<event>
 9    1  0.3197504E-005  0.9431185E+02  0.7546771E-02  0.1298291E+00
         -2   -1    0    0    0  501 -0.00000000000E+00  0.00000000000E+00  0.40516678629E+02  0.40516678629E+02  0.00000000000E+00 0.  1.
         21   -1    0    0  501  502  0.00000000000E+00 -0.00000000000E+00 -0.36692840767E+03  0.36692840767E+03  0.00000000000E+00 0.  1.
         23    2    1    2    0    0 -0.43927550703E+01  0.17323983319E+02 -0.80632357352E+02  0.12368000459E+03  0.92063835394E+02 0.  0.
        -24    2    1    2    0    0 -0.43001728064E+02 -0.13927563234E+02 -0.17002228228E+03  0.19433964184E+03  0.82566302353E+02 0.  0.
         11    1    4    4    0    0 -0.32979641524E+02  0.31538429865E+02 -0.64571556244E+02  0.79068420935E+02  0.00000000000E+00 0. -1.
        -12    1    4    4    0    0 -0.10022086540E+02 -0.45465993099E+02 -0.10545072603E+03  0.11527122090E+03  0.00000000000E+00 0.  1.
        -11    1    3    3    0    0  0.20581076073E+02  0.48977265676E+02 -0.40607664333E+02  0.66868046539E+02  0.00000000000E+00 0.  1.
         11    1    3    3    0    0 -0.24973831143E+02 -0.31653282357E+02 -0.40024693019E+02  0.56811958048E+02  0.00000000000E+00 0. -1.
         -1    1    1    2    0  502  0.47394483134E+02 -0.33964200849E+01 -0.75757089415E+02  0.89425439879E+02  0.00000000000E+00 0.  1.
<scales pt_clust_5="13000.00000" pt_clust_6="13000.00000" pt_clust_7="13000.00000" pt_clust_8="13000.00000" pt_clust_9="47.51603"></scales>
<clustering>
<clus scale="   47.516">  2  9  1 -1</clus>
<clus scale="   82.566">  5  6 -1 -1</clus>
<clus scale="   85.066">  2  5  1 -1</clus>
<clus scale="   92.064">  7  8 -1 -1</clus>
<clus scale="   47.516">  2  5  1 -1</clus>
</clustering>
</event>
<event>
 9    1  0.3197504E-005  0.1205375E+03  0.7546771E-02  0.1261076E+00
         21   -1    0    0  501  502  0.00000000000E+00  0.00000000000E+00  0.31101953690E+03  0.31101953690E+03  0.00000000000E+00 0.  1.
         -4   -1    0    0    0  501 -0.00000000000E+00 -0.00000000000E+00 -0.37272953782E+03  0.37272953782E+03  0.00000000000E+00 0.  1.
        -24    2    1    2    0    0 -0.12618324187E+02  0.32012909238E+01 -0.33267529521E+03  0.34281812014E+03  0.81743140903E+02 0.  0.
         23    2    1    2    0    0 -0.70695633724E+02 -0.33807736457E+02  0.12903963200E+03  0.17353661863E+03  0.85573919543E+02 0.  0.
         13    1    3    3    0    0  0.22218412477E+02  0.30440751332E+02 -0.12871170976E+03  0.13411562707E+03  0.00000000000E+00 0. -1.
        -14    1    3    3    0    0 -0.34836736664E+02 -0.27239460408E+02 -0.20396358545E+03  0.20870249307E+03  0.00000000000E+00 0.  1.
        -11    1    4    4    0    0 -0.78225433897E+02 -0.39426345773E+01  0.62466309431E+02  0.10018384445E+03  0.00000000000E+00 0.  1.
         11    1    4    4    0    0  0.75298001725E+01 -0.29865101880E+02  0.66573322572E+02  0.73352774175E+02  0.00000000000E+00 0. -1.
         -3    1    1    2    0  502  0.83313957912E+02  0.30606445533E+02  0.14192566229E+03  0.16739433595E+03  0.00000000000E+00 0.  1.
<scales pt_clust_5="13000.00000" pt_clust_6="13000.00000" pt_clust_7="13000.00000" pt_clust_8="13000.00000" pt_clust_9="84.89046"></scales>
<clustering>
<clus scale="   81.743">  5  6 -1 -1</clus>
<clus scale="   82.773">  2  5  1 -1</clus>
<clus scale="   84.890">  1  9  2 -1</clus>
<clus scale="   85.574">  7  8 -1 -1</clus>
<clus scale="   84.890">  1  5  2 -1</clus>
</clustering>
</event>
<event>
 9    1  0.3197504E-005  0.1212671E+03  0.7546771E-02  0.1245055E+00
         -4   -1    0    0    0  501 -0.00000000000E+00  0.00000000000E+00  0.23592700710E+03  0.23592700710E+03  0.00000000000E+00 0.  1.
         21   -1    0    0  501  502  0.00000000000E+00 -0.00000000000E+00 -0.10970387392E+03  0.10970387392E+03  0.00000000000E+00 0.  1.
         23    2    1    2    0    0 -0.83375687454E+02 -0.25994174271E+02  0.16067391984E+03  0.20496004875E+03  0.92548963857E+02 0.  0.
        -24    2    1    2    0    0  0.51912427656E+02  0.24871062784E+02 -0.64377480376E+01  0.98529066423E+02  0.79706100275E+02 0.  0.
         11    1    4    4    0    0  0.71561164782E+02  0.30181139857E+02 -0.19669925193E+01  0.77690221827E+02  0.00000000000E+00 0. -1.
        -12    1    4    4    0    0 -0.19648737126E+02 -0.53100770732E+01 -0.44707555183E+01  0.20838844595E+02  0.00000000000E+00 0.  1.
        -13    1    3    3    0    0 -0.66997031152E+02 -0.55340046788E+02  0.14209411513E+03  0.16655888002E+03  0.00000000000E+00 0.  1.
         13    1    3    3    0    0 -0.16378656302E+02  0.29345872517E+02  0.18579804715E+02  0.38401168723E+02  0.00000000000E+00 0. -1.
         -3    1    1    2    0  502  0.31463259797E+02  0.11231114870E+01 -0.28013038620E+02  0.42141765853E+02  0.00000000000E+00 0.  1.
<scales pt_clust_5="13000.00000" pt_clust_6="13000.00000" pt_clust_7="13000.00000" pt_clust_8="13000.00000" pt_clust_9="31.48330"></scales>
<clustering>
<clus scale="   31.483">  2  9  1 -1</clus>
<clus scale="   79.706">  5  6 -1 -1</clus>
<clus scale="   92.549">  7  8 -1 -1</clus>
<clus scale="  111.774">  2  5  1 -1</clus>
<clus scale="   31.483">  2  5  1 -1</clus>
</clustering>
</event>
<event>
 9    1  0.3197504E-005  0.9190441E+02  0.7546771E-02  0.1304226E+00
         -2   -1    0    0    0  501 -0.00000000000E+00  0.00000000000E+00  0.23482895723E+03  0.23482895723E+03  0.00000000000E+00 0.  1.
         21   -1    0    0  501  502  0.00000000000E+00 -0.00000000000E+00 -0.11640652393E+03  0.11640652393E+03  0.00000000000E+00 0. -1.
        -24    2    1    2    0    0 -0.17857579883E+02  0.44242687864E+01  0.18242931573E+03  0.19985962688E+03  0.79529541071E+02 0.  0.
         23    2    1    2    0    0  0.45624169538E+02 -0.23600311944E+02 -0.43186213095E+02  0.11172482145E+03  0.89324392848E+02 0.  0.
         11    1    3    3    0    0  0.29088954066E+02  0.70087338667E+00  0.37462700127E+02  0.47435349403E+02  0.00000000000E+00 0. -1.
        -12    1    3    3    0    0 -0.46946533949E+02  0.37233953997E+01  0.14496661561E+03  0.15242427747E+03  0.00000000000E+00 0.  1.
        -13    1    4    4    0    0  0.16656297874E+02 -0.56649438198E+02 -0.23107782694E+02  0.63407891686E+02  0.00000000000E+00 0.  1.
         13    1    4    4    0    0  0.28967871664E+02  0.33049126254E+02 -0.20078430402E+02  0.48316929769E+02  0.00000000000E+00 0. -1.
         -1    1    1    2    0  502 -0.27766589655E+02  0.19176043157E+02 -0.20820669346E+02  0.39651032827E+02  0.00000000000E+00 0.  1.
<scales pt_clust_5="13000.00000" pt_clust_6="13000.00000" pt_clust_7="13000.00000" pt_clust_8="13000.00000" pt_clust_9="33.74469"></scales>
<clustering>
<clus scale="   33.745">  2  9  1 -1</clus>
<clus scale="   79.530">  5  6 -1 -1</clus>
<clus scale="   82.417">  1  5  2 -1</clus>
<clus scale="   89.324">  7  8 -1 -1</clus>
<clus scale="   33.745">  2  5  1 -1</clus>
</clustering>
</event>
<event>
 9    1  0.3197504E-005  0.1084379E+03  0.7546771E-02  0.1263977E+00
         21   -1    0    0  501  502  0.00000000000E+00  0.00000000000E+00  0.59326233265E+02  0.59326233265E+02  0.00000000000E+00 0.  1.
          1   -1    0    0  502    0 -0.00000000000E+00 -0.00000000000E+00 -0.35582497782E+03  0.35582497782E+03  0.00000000000E+00 0. -1.
         23    2    1    2    0    0 -0.57463743399E+02 -0.15766311604E+01 -0.21779665820E+03  0.24396224077E+03  0.93688969605E+02 0.  0.
        -24    2    1    2    0    0  0.44837366516E+02  0.32883914535E+02 -0.84330904493E+02  0.13696536765E+03  0.92499022768E+02 0.  0.
         13    1    4    4    0    0  0.15464886646E+02 -0.29611760326E+02 -0.86365699951E+01  0.34505208446E+02  0.00000000000E+00 0. -1.
        -14    1    4    4    0    0  0.29372479870E+02  0.62495674862E+02 -0.75694334498E+02  0.10246015921E+03  0.00000000000E+00 0.  1.
        -13    1    3    3    0    0 -0.82100970109E+02  0.17650742246E+01 -0.14020225673E+03  0.16248186844E+03  0.00000000000E+00 0.  1.
         13    1    3    3    0    0  0.24637226710E+02 -0.33417053849E+01 -0.77594401477E+02  0.81480372333E+02  0.00000000000E+00 0. -1.
          2    1    1    2  501    0  0.12626376884E+02 -0.31307283375E+02  0.56288181388E+01  0.34223602662E+02  0.00000000000E+00 0. -1.
<scales pt_clust_5="13000.00000" pt_clust_6="13000.00000" pt_clust_7="13000.00000" pt_clust_8="13000.00000" pt_clust_9="33.75754"></scales>
<clustering>
<clus scale="   33.758">  1  9  2 -1</clus>
<clus scale="   92.499">  5  6 -1 -1</clus>
<clus scale="   93.689">  7  8 -1 -1</clus>
<clus scale="  107.411">  1  5  2 -1</clus>
<clus scale="   33.758">  1  5  2 -1</clus>
</clustering>
</event>
<event>
 9    1  0.3197504E-005  0.1512088E+03  0.7546771E-02  0.1200810E+00
          3   -1    0    0  502    0 -0.00000000000E+00  0.00000000000E+00  0.13152337951E+03  0.13152337951E+03  0.00000000000E+00 0. -1.
         21   -1    0    0  501  502  0.00000000000E+00 -0.00000000000E+00 -0.43141431481E+03  0.43141431481E+03  0.00000000000E+00 0. -1.
        -24    2    1    2    0    0  0.11419915339E+03 -0.36971981932E+02  0.22472263956E+02  0.14631694976E+03  0.80593256881E+02 0.  0.
         23    2    1    2    0    0 -0.13923775792E+03 -0.49167173543E+02 -0.19560338258E+03  0.26133089640E+03  0.90711575607E+02 0.  0.
         11    1    3    3    0    0  0.81911647786E+02 -0.62466723847E+02  0.10942340648E+02  0.10359220265E+03  0.00000000000E+00 0. -1.
        -12    1    3    3    0    0  0.32287505608E+02  0.25494741915E+02  0.11529923308E+02  0.42724747105E+02  0.00000000000E+00 0.  1.
        -11    1    4    4    0    0 -0.53270559088E+02 -0.52478453700E+02 -0.43301606682E+02  0.86410472221E+02  0.00000000000E+00 0.  1.
         11    1    4    4    0    0 -0.85967198831E+02  0.33112801570E+01 -0.15230177590E+03  0.17492042417E+03  0.00000000000E+00 0. -1.
          4    1    1    2  501    0  0.25038604525E+02  0.86139155475E+02 -0.12675981667E+03  0.15528984817E+03  0.00000000000E+00 0. -1.
<scales pt_clust_5="13000.00000" pt_clust_6="13000.00000" pt_clust_7="13000.00000" pt_clust_8="13000.00000" pt_clust_9="89.70444"></scales>
<clustering>
<clus scale="   80.593">  5  6 -1 -1</clus>
<clus scale="   89.704">  2  9  1 -1</clus>
<clus scale="   90.712">  7  8 -1 -1</clus>
<clus scale="  145.364">  1  5  2 -1</clus>
<clus scale="   89.704">  2  5  1 -1</clus>
</clustering>
</event>
<event>
 9    1  0.3197504E-005  0.1373128E+03  0.7546771E-02  0.1219333E+00
         21   -1    0    0  501  502  0.00000000000E+00  0.00000000000E+00  0.41281981637E+03  0.41281981637E+03  0.00000000000E+00 0.  1.
         -2   -1    0    0    0  501 -0.00000000000E+00 -0.00000000000E+00 -0.10241810673E+03  0.10241810673E+03  0.00000000000E+00 0.  1.
         23    2    1    2    0    0  0.60790431048E+02  0.81833091025E+02  0.13010887007E+02  0.13746228580E+03  0.91293294071E+02 0.  0.
        -24    2    1    2    0    0 -0.11383484970E+03 -0.40405958605E+02  0.26674846875E+03  0.30382381851E+03  0.81013286654E+02 0.  0.
         11    1    4    4    0    0 -0.34701454136E+02 -0.33535950918E+02  0.37232538472E+02  0.60951725523E+02  0.00000000000E+00 0. -1.
        -12    1    4    4    0    0 -0.79133395564E+02 -0.68700076875E+01  0.22951593028E+03  0.24287209299E+03  0.00000000000E+00 0.  1.
        -11    1    3    3    0    0  0.11139464448E+02  0.61109569461E+02 -0.29620470551E+02  0.68817435463E+02  0.00000000000E+00 0.  1.
         11    1    3    3    0    0  0.49650966600E+02  0.20723521564E+02  0.42631357559E+02  0.68644850336E+02  0.00000000000E+00 0. -1.
         -1    1    1    2    0  502  0.53044418652E+02 -0.41427132420E+02  0.30642353878E+02  0.73951818787E+02  0.00000000000E+00 0.  1.
<scales pt_clust_5="13000.00000" pt_clust_6="13000.00000" pt_clust_7="13000.00000" pt_clust_8="13000.00000" pt_clust_9="67.30470"></scales>
<clustering>
<clus scale="   67.305">  1  9  2 -1</clus>
<clus scale="   81.013">  5  6 -1 -1</clus>
<clus scale="   91.293">  7  8 -1 -1</clus>
<clus scale="  130.704">  1  5  2 -1</clus>
<clus scale="   67.305">  1  5  2 -1</clus>
</clustering>
</event>
<event>
 9    1  0.3197504E-005  0.1102680E+03  0.7546771E-02  0.1263459E+00
          1   -1    0    0  502    0 -0.00000000000E+00  0.00000000000E+00  0.24435836046E+03  0.24435836046E+03  0.00000000000E+00 0. -1.
         21   -1    0    0  501  502  0.00000000000E+00 -0.00000000000E+00 -0.90216007163E+02  0.90216007163E+02  0.00000000000E+00 0.  1.
         23    2    1    2    0    0  0.14004257423E+02  0.87766567770E+02  0.10813003258E+03  0.16622424607E+03  0.89662179261E+02 0.  0.
        -24    2    1    2    0    0  0.15645917335E+02 -0.28379353554E+02 -0.91129495680E+00  0.87061747340E+02  0.80800587584E+02 0.  0.
         11    1    4    4    0    0  0.42457948163E+02 -0.17770228262E+02  0.21249353415E+02  0.50695102281E+02  0.00000000000E+00 0. -1.
        -12    1    4    4    0    0 -0.26812030828E+02 -0.10609125292E+02 -0.22160648372E+02  0.36366645059E+02  0.00000000000E+00 0.  1.
        -11    1    3    3    0    0  0.43574756326E+02  0.80936896883E+02  0.61534300606E+02  0.11061650337E+03  0.00000000000E+00 0.  1.
         11    1    3    3    0    0 -0.29570498903E+02  0.68296708873E+01  0.46595731977E+02  0.55607742700E+02  0.00000000000E+00 0. -1.
          2    1    1    2  501    0 -0.29650174758E+02 -0.59387214216E+02  0.46923615675E+02  0.81288374221E+02  0.00000000000E+00 0. -1.
<scales pt_clust_5="13000.00000" pt_clust_6="13000.00000" pt_clust_7="13000.00000" pt_clust_8="13000.00000" pt_clust_9="66.37755"></scales>
<clustering>
<clus scale="   66.378">  2  9  1 -1</clus>
<clus scale="   80.801">  5  6 -1 -1</clus>
<clus scale="   89.662">  7  8 -1 -1</clus>
<clus scale="  103.191">  2  5  1 -1</clus>
<clus scale="   66.378">  2  5  1 -1</clus>
</clustering>
</event>
<event>
 9    1  0.3197504E-005  0.2279023E+03  0.7546771E-02  0.1165263E+00
          1   -1    0    0  502    0 -0.00000000000E+00  0.00000000000E+00  0.72153988885E+03  0.72153988885E+03  0.00000000000E+00 0. -1.
         21   -1    0    0  501  502  0.00000000000E+00 -0.00000000000E+00 -0.14667213647E+03  0.14667213647E+03  0.00000000000E+00 0.  1.
        -24    2    1    2    0    0 -0.53481879333E+01 -0.53338220351E+02  0.56954702478E+02  0.10992630557E+03  0.77242382524E+02 0.  0.
         23    2    1    2    0    0 -0.17731952283E+03  0.93588760839E+02  0.26820054815E+02  0.23277651109E+03  0.11517169548E+03 0.  0.
         11    1    3    3    0    0 -0.32669361100E+02 -0.48791911404E+02  0.57555826434E+02  0.82222934329E+02  0.00000000000E+00 0. -1.
        -12    1    3    3    0    0  0.27321173167E+02 -0.45463089472E+01 -0.60112395592E+00  0.27703371243E+02  0.00000000000E+00 0.  1.
        -11    1    4    4    0    0 -0.37986504021E+02  0.17966818221E+02 -0.42486574621E+02  0.59756924852E+02  0.00000000000E+00 0.  1.
         11    1    4    4    0    0 -0.13933301881E+03  0.75621942618E+02  0.69306629436E+02  0.17301958623E+03  0.00000000000E+00 0. -1.
          2    1    1    2  501    0  0.18266771077E+03 -0.40250540488E+02  0.49109299508E+03  0.52550920866E+03  0.00000000000E+00 0. -1.
<scales pt_clust_5="13000.00000" pt_clust_6="13000.00000" pt_clust_7="13000.00000" pt_clust_8="13000.00000" pt_clust_9="196.65958"></scales>
<clustering>
<clus scale="   77.242">  5  6 -1 -1</clus>
<clus scale="   94.021">  1  5  2 -1</clus>
<clus scale="  115.172">  7  8 -1 -1</clus>
<clus scale="  196.660">  2  9  1 -1</clus>
<clus scale="  196.660">  2  5  1 -1</clus>
</clustering>
</event>
<event>
 9    1  0.3197504E-005  0.1279647E+03  0.7546771E-02  0.1233717E+00
         21   -1    0    0  501  502  0.00000000000E+00  0.00000000000E+00  0.28280358011E+03  0.28280358011E+03  0.00000000000E+00 0.  1.
         -2   -1    0    0    0  501 -0.00000000000E+00 -0.00000000000E+00 -0.42926698480E+03  0.42926698480E+03  0.00000000000E+00 0.  1.
         23    2    1    2    0    0  0.12088284541E+03 -0.34235142748E+02 -0.31134888907E+03  0.34787311539E+03  0.91065176502E+02 0.  0.
        -24    2    1    2    0    0 -0.46302299236E+02  0.28159590913E+01 -0.70228569346E+02  0.11554499884E+03  0.79162884381E+02 0.  0.
         11    1    4    4    0    0 -0.56228732158E+02  0.26956123808E+02 -0.62586187130E+02  0.88347799917E+02  0.00000000000E+00 0. -1.
        -12    1    4    4    0    0  0.99264329213E+01 -0.24140164717E+02 -0.76423822166E+01  0.27197198919E+02  0.00000000000E+00 0.  1.
        -13    1    3    3    0    0  0.23078059239E+02  0.29899492912E+02 -0.87738915208E+02  0.95523262803E+02  0.00000000000E+00 0. -1.
         13    1    3    3    0    0  0.97804786169E+02 -0.64134635660E+02 -0.22360997387E+03  0.25234985259E+03  0.00000000000E+00 0.  1.
         -1    1    1    2    0  502 -0.74580546171E+02  0.31419183656E+02  0.23511405373E+03  0.24865245068E+03  0.00000000000E+00 0.  1.
<scales pt_clust_5="13000.00000" pt_clust_6="13000.00000" pt_clust_7="13000.00000" pt_clust_8="13000.00000" pt_clust_9="80.92851"></scales>
<clustering>
<clus scale="   79.163">  5  6 -1 -1</clus>
<clus scale="   80.929">  1  9  2 -1</clus>
<clus scale="   91.065">  7  8 -1 -1</clus>
<clus scale="  119.787">  1  5  2 -1</clus>
<clus scale="   80.929">  1  5  2 -1</clus>
</clustering>
</event>
<event>
 9    1  0.3197504E-005  0.1011029E+03  0.7546771E-02  0.1285408E+00
         21   -1    0    0  501  502  0.00000000000E+00  0.00000000000E+00  0.12449728799E+03  0.12449728799E+03  0.00000000000E+00 0.  1.
         -2   -1    0    0    0  501 -0.00000000000E+00 -0.00000000000E+00 -0.28782231176E+03  0.28782231176E+03  0.00000000000E+00 0.  1.
        -24    2    1    2    0    0 -0.25790213547E+02 -0.41066080503E+02 -0.21951033937E+03  0.23813642617E+03  0.78565961440E+02 0.  0.
         23    2    1    2    0    0 -0.14832010694E+02 -0.93061444991E+00  0.18017148087E+01  0.94361725796E+02  0.93166702928E+02 0.  0.
         11    1    3    3    0    0 -0.29729488642E+02  0.15539016651E+02 -0.58702316499E+02  0.67611134406E+02  0.00000000000E+00 0. -1.
        -12    1    3    3    0    0  0.39392750945E+01 -0.56605097154E+02 -0.16080802287E+03  0.17052529177E+03  0.00000000000E+00 0.  1.
        -13    1    4    4    0    0 -0.40377766782E+02 -0.18346492404E+02 -0.27153427783E+02  0.52002562189E+02  0.00000000000E+00 0.  1.
         13    1    4    4    0    0  0.25545756087E+02  0.17415877954E+02  0.28955142592E+02  0.42359163607E+02  0.00000000000E+00 0. -1.
         -1    1    1    2    0  502  0.40622224241E+02  0.41996694953E+02  0.54383600797E+02  0.79821447775E+02  0.00000000000E+00 0.  1.
<scales pt_clust_5="13000.00000" pt_clust_6="13000.00000" pt_clust_7="13000.00000" pt_clust_8="13000.00000" pt_clust_9="58.42848"></scales>
<clustering>
<clus scale="   58.428">  1  9  2 -1</clus>
<clus scale="   78.566">  5  6 -1 -1</clus>
<clus scale="   87.831">  2  5  1 -1</clus>
<clus scale="   93.167">  7  8 -1 -1</clus>
<clus scale="   58.428">  1  5  2 -1</clus>
</clustering>
</event>
<event>
 9    1  0.3197504E-005  0.1082440E+03  0.7546771E-02  0.1269099E+00
         -2   -1    0    0    0  501 -0.00000000000E+00  0.00000000000E+00  0.17952768536E+03  0.17952768536E+03  0.00000000000E+00 0.  1.
         21   -1    0    0  501  502  0.00000000000E+00 -0.00000000000E+00 -0.31441825051E+03  0.31441825051E+03  0.00000000000E+00 0.  1.
        -24    2    1    2    0    0 -0.46376269977E+02 -0.13859577055E+02  0.61444269800E+02  0.11344490261E+03  0.82167520012E+02 0.  0.
         23    2    1    2    0    0  0.61532733353E+02 -0.46148349423E+02  0.46162593567E+02  0.13022983543E+03  0.94408037603E+02 0.  0.
         11    1    3    3    0    0 -0.59363432176E+02 -0.26667937648E+02  0.19868524079E+02  0.68043766998E+02  0.00000000000E+00 0. -1.
        -12    1    3    3    0    0  0.12987162199E+02  0.12808360594E+02  0.41575745721E+02  0.45401135617E+02  0.00000000000E+00 0.  1.
        -13    1    4    4    0    0  0.57627262073E+02 -0.67068571673E+02  0.10970870007E+02  0.89103617373E+02  0.00000000000E+00 0.  1.
         13    1    4    4    0    0  0.39054712800E+01  0.20920222250E+02  0.35191723560E+02  0.41126218061E+02  0.00000000000E+00 0. -1.
         -1    1    1    2    0  502 -0.15156463375E+02  0.60007926478E+02 -0.24249742851E+03  0.25027119782E+03  0.00000000000E+00 0.  1.
<scales pt_clust_5="13000.00000" pt_clust_6="13000.00000" pt_clust_7="13000.00000" pt_clust_8="13000.00000" pt_clust_9="61.89240"></scales>
<clustering>
<clus scale="   61.892">  2  9  1 -1</clus>
<clus scale="   82.168">  5  6 -1 -1</clus>
<clus scale="   94.408">  7  8 -1 -1</clus>
<clus scale="   97.752">  1  5  2 -1</clus>
<clus scale="   61.892">  2  5  1 -1</clus>
</clustering>
</event>
<event>
 9    1  0.3197504E-005  0.9618820E+02  0.7546771E-02  0.1294185E+00
         21   -1    0    0  501  502  0.00000000000E+00  0.00000000000E+00  0.59009059474E+02  0.59009059474E+02  0.00000000000E+00 0. -1.
         -2   -1    0    0    0  501 -0.00000000000E+00 -0.00000000000E+00 -0.22516205364E+03  0.22516205364E+03  0.00000000000E+00 0.  1.
         23    2    1    2    0    0  0.10393136403E+02  0.31347435943E+02 -0.84333465733E+02  0.12919041621E+03  0.92126821142E+02 0.  0.
        -24    2    1    2    0    0 -0.36393877513E+02  0.15163252265E+01 -0.56077750717E+02  0.10580037100E+03  0.81988967640E+02 0.  0.
         13    1    4    4    0    0  0.29053927548E+01  0.30468303306E+02 -0.47097483790E+02  0.56168779520E+02  0.00000000000E+00 0. -1.
        -14    1    4    4    0    0 -0.39299270268E+02 -0.28951978079E+02 -0.89802669265E+01  0.49631591475E+02  0.00000000000E+00 0.  1.
        -13    1    3    3    0    0  0.23131356122E+02  0.35494370824E+00 -0.91960050096E+02  0.94825294277E+02  0.00000000000E+00 0.  1.
         13    1    3    3    0    0 -0.12738219718E+02  0.30992492235E+02  0.76265843630E+01  0.34365121934E+02  0.00000000000E+00 0. -1.
         -1    1    1    2    0  502  0.26000741110E+02 -0.32863761169E+02 -0.25741777717E+02  0.49180325909E+02  0.00000000000E+00 0.  1.
<scales pt_clust_5="13000.00000" pt_clust_6="13000.00000" pt_clust_7="13000.00000" pt_clust_8="13000.00000" pt_clust_9="41.90543"></scales>
<clustering>
<clus scale="   41.905">  1  9  2 -1</clus>
<clus scale="   81.989">  5  6 -1 -1</clus>
<clus scale="   86.528">  1  5  2 -1</clus>
<clus scale="   92.127">  7  8 -1 -1</clus>
<clus scale="   41.905">  1  5  2 -1</clus>
</clustering>
</event>
<event>
 9    1  0.3197504E-005  0.2904480E+03  0.7546771E-02  0.1126455E+00
         -2   -1    0    0    0  501 -0.00000000000E+00  0.00000000000E+00  0.32889627372E+03  0.32889627372E+03  0.00000000000E+00 0.  1.
         21   -1    0    0  501  502  0.00000000000E+00 -0.00000000000E+00 -0.13530729842E+04  0.13530729842E+04  0.00000000000E+00 0.  1.
        -24    2    1    2    0    0 -0.51032186384E+02  0.60945260202E+02  0.25172310723E+03  0.27663753118E+03  0.82735676429E+02 0.  0.
         23    2    1    2    0    0 -0.16353701638E+03 -0.22843378621E+03 -0.84747992484E+03  0.89775320697E+03  0.93873570356E+02 0.  0.
         13    1    3    3    0    0 -0.34305972109E+02 -0.39303382601E+00  0.28701395092E+02  0.44730574311E+02  0.00000000000E+00 0. -1.
        -14    1    3    3    0    0 -0.16726214275E+02  0.61338294028E+02  0.22302171214E+03  0.23190695687E+03  0.00000000000E+00 0.  1.
        -11    1    4    4    0    0 -0.63504075671E+02 -0.14444734029E+03 -0.35968101124E+03  0.39276994741E+03  0.00000000000E+00 0.  1.
         11    1    4    4    0    0 -0.10003294071E+03 -0.83986445919E+02 -0.48779891360E+03  0.50498325956E+03  0.00000000000E+00 0. -1.
         -1    1    1    2    0  502  0.21456920276E+03  0.16748852601E+03 -0.42841989288E+03  0.50757851977E+03  0.00000000000E+00 0.  1.
<scales pt_clust_5="13000.00000" pt_clust_6="13000.00000" pt_clust_7="13000.00000" pt_clust_8="13000.00000" pt_clust_9="274.85969"></scales>
<clustering>
<clus scale="   82.736">  5  6 -1 -1</clus>
<clus scale="   93.874">  7  8 -1 -1</clus>
<clus scale="  114.734">  1  5  2 -1</clus>
<clus scale="  274.860">  2  9  1 -1</clus>
<clus scale="  274.860">  2  5  1 -1</clus>
</clustering>
</event>
<event>
 9    1  0.3197504E-005  0.1380723E+03  0.7546771E-02  0.1218883E+00
          1   -1    0    0  502    0 -0.00000000000E+00  0.00000000000E+00  0.11144056383E+03  0.11144056383E+03  0.00000000000E+00 0. -1.
         21   -1    0    0  501  502  0.00000000000E+00 -0.00000000000E+00 -0.34150878002E+03  0.34150878002E+03  0.00000000000E+00 0.  1.
        -24    2    1    2    0    0 -0.73146542343E+02  0.65142392003E+02  0.71061932880E+01  0.12597039584E+03  0.78892932202E+02 0.  0.
         23    2    1    2    0    0  0.10122692787E+03 -0.76239258787E+02 -0.24935787752E+03  0.29441999537E+03  0.91893781563E+02 0.  0.
         13    1    3    3    0    0 -0.54798637948E+02  0.72787070957E+02 -0.19089389052E+02  0.93087341749E+02  0.00000000000E+00 0. -1.
        -14    1    3    3    0    0 -0.18347904395E+02 -0.76446789537E+01  0.26195582340E+02  0.32883054087E+02  0.00000000000E+00 0.  1.
        -11    1    4    4    0    0  0.47028987436E+02 -0.85479773196E+02 -0.12593494514E+03  0.15930514020E+03  0.00000000000E+00 0.  1.
         11    1    4    4    0    0  0.54197940430E+02  0.92405144089E+01 -0.12342293238E+03  0.13511485518E+03  0.00000000000E+00 0. -1.
          2    1    1    2  501    0 -0.28080385523E+02  0.11096866784E+02  0.12183468046E+02  0.32558952642E+02  0.00000000000E+00 0. -1.
<scales pt_clust_5="13000.00000" pt_clust_6="13000.00000" pt_clust_7="13000.00000" pt_clust_8="13000.00000" pt_clust_9="30.19353"></scales>
<clustering>
<clus scale="   30.194">  2  9  1 -1</clus>
<clus scale="   78.893">  5  6 -1 -1</clus>
<clus scale="   91.894">  7  8 -1 -1</clus>
<clus scale="  129.783">  1  5  2 -1</clus>
<clus scale="   30.194">  2  5  1 -1</clus>
</clustering>
</event>
<event>
 9    1  0.3197504E-005  0.9125396E+02  0.7546771E-02  0.1306453E+00
         21   -1    0    0  501  502  0.00000000000E+00  0.00000000000E+00  0.11336203352E+03  0.11336203352E+03  0.00000000000E+00 0. -1.
          1   -1    0    0  502    0 -0.00000000000E+00 -0.00000000000E+00 -0.92727754323E+02  0.92727754323E+02  0.00000000000E+00 0. -1.
        -24    2    1    2    0    0  0.25807766547E+01 -0.10815416220E+02 -0.80603011433E+01  0.81187293942E+02  0.80017339414E+02 0.  0.
         23    2    1    2    0    0  0.20973096936E+02  0.61442131570E+01  0.84870477814E+01  0.93518589248E+02  0.90532173311E+02 0.  0.
         11    1    3    3    0    0  0.24934807911E+02  0.26586343855E+02 -0.92248000726E+01  0.37598873142E+02  0.00000000000E+00 0. -1.
        -12    1    3    3    0    0 -0.22354031256E+02 -0.37401760075E+02  0.11644989293E+01  0.43588420801E+02  0.00000000000E+00 0.  1.
        -11    1    4    4    0    0  0.56339840945E+02 -0.33274657703E+01  0.32343612720E+01  0.56530618243E+02  0.00000000000E+00 0. -1.
         11    1    4    4    0    0 -0.35366744009E+02  0.94716789273E+01  0.52526865094E+01  0.36987971005E+02  0.00000000000E+00 0.  1.
          2    1    1    2  501    0 -0.23553873591E+02  0.46712030630E+01  0.20207532557E+02  0.31383904652E+02  0.00000000000E+00 0. -1.
<scales pt_clust_5="13000.00000" pt_clust_6="13000.00000" pt_clust_7="13000.00000" pt_clust_8="13000.00000" pt_clust_9="24.01260"></scales>
<clustering>
<clus scale="   24.013">  1  9  2 -1</clus>
<clus scale="   80.017">  5  6 -1 -1</clus>
<clus scale="   80.833">  2  5  1 -1</clus>
<clus scale="   90.532">  7  8 -1 -1</clus>
<clus scale="   24.013">  1  5  2 -1</clus>
</clustering>
</event>
<event>
 9    1  0.3197504E-005  0.1878516E+03  0.7546771E-02  0.1160803E+00
         21   -1    0    0  501  502  0.00000000000E+00  0.00000000000E+00  0.98138148721E+03  0.98138148721E+03  0.00000000000E+00 0. -1.
         -4   -1    0    0    0  501 -0.00000000000E+00 -0.00000000000E+00 -0.50815864603E+03  0.50815864603E+03  0.00000000000E+00 0.  1.
        -24    2    1    2    0    0  0.16120262181E+03 -0.30579014546E+02 -0.47635330288E+03  0.51136745579E+03  0.87537673450E+02 0.  0.
         23    2    1    2    0    0 -0.17526233170E+03  0.47534449680E+01  0.71625655088E+03  0.74300748434E+03  0.91088939805E+02 0.  0.
         13    1    3    3    0    0  0.97429241076E+02  0.85959571051E+01 -0.17119793916E+03  0.19716764914E+03  0.00000000000E+00 0. -1.
        -14    1    3    3    0    0  0.63773380732E+02 -0.39174971651E+02 -0.30515536372E+03  0.31419980666E+03  0.00000000000E+00 0.  1.
        -13    1    4    4    0    0 -0.45610307530E+02  0.39635371807E+02  0.28495959981E+03  0.29129578846E+03  0.00000000000E+00 0.  1.
         13    1    4    4    0    0 -0.12965202417E+03 -0.34881926839E+02  0.43129695107E+03  0.45171169588E+03  0.00000000000E+00 0. -1.
         -3    1    1    2    0  502  0.14059709896E+02  0.25825569578E+02  0.23331959319E+03  0.23516519311E+03  0.00000000000E+00 0.  1.
<scales pt_clust_5="13000.00000" pt_clust_6="13000.00000" pt_clust_7="13000.00000" pt_clust_8="13000.00000" pt_clust_9="29.40468"></scales>
<clustering>
<clus scale="   29.405">  1  9  2 -1</clus>
<clus scale="   87.538">  5  6 -1 -1</clus>
<clus scale="   91.089">  7  8 -1 -1</clus>
<clus scale="  186.156">  2  5  1 -1</clus>
<clus scale="   29.405">  1  5  2 -1</clus>
</clustering>
</event>
<event>
 9    1  0.3197504E-005  0.1569288E+03  0.7546771E-02  0.1193945E+00
         21   -1    0    0  501  502  0.00000000000E+00  0.00000000000E+00  0.11516001821E+03  0.11516001821E+03  0.00000000000E+00 0. -1.
          1   -1    0    0  502    0 -0.00000000000E+00 -0.00000000000E+00 -0.56133253999E+03  0.56133253999E+03  0.00000000000E+00 0. -1.
         23    2    1    2    0    0 -0.12891515219E+02 -0.12193345205E+03 -0.36437029460E+03  0.39510216234E+03  0.91137529096E+02 0.  0.
        -24    2    1    2    0    0  0.22910697827E+02  0.15836044167E+03  0.12703360580E+02  0.17961311101E+03  0.80601269951E+02 0.  0.
         13    1    4    4    0    0  0.12906435954E+02  0.10494762765E+03 -0.30656473604E+02  0.11009268828E+03  0.00000000000E+00 0. -1.
        -14    1    4    4    0    0  0.10004261872E+02  0.53412814018E+02  0.43359834184E+02  0.69520422736E+02  0.00000000000E+00 0.  1.
        -13    1    3    3    0    0  0.20368914171E+02 -0.52194539628E+02 -0.25568651793E+03  0.26175323891E+03  0.00000000000E+00 0.  1.
         13    1    3    3    0    0 -0.33260429389E+02 -0.69738912420E+02 -0.10868377667E+03  0.13334892343E+03  0.00000000000E+00 0. -1.
          2    1    1    2  501    0 -0.10019182608E+02 -0.36426989618E+02 -0.94505587758E+02  0.10177728484E+03  0.00000000000E+00 0. -1.
<scales pt_clust_5="13000.00000" pt_clust_6="13000.00000" pt_clust_7="13000.00000" pt_clust_8="13000.00000" pt_clust_9="37.77977"></scales>
<clustering>
<clus scale="   37.780">  1  9  2 -1</clus>
<clus scale="   80.601">  5  6 -1 -1</clus>
<clus scale="   91.138">  7  8 -1 -1</clus>
<clus scale="  151.054">  1  5  2 -1</clus>
<clus scale="   37.780">  1  5  2 -1</clus>
</clustering>
</event>
<event>
 9    1  0.3197504E-005  0.1757948E+03  0.7546771E-02  0.1173438E+00
         -2   -1    0    0    0  501 -0.00000000000E+00  0.00000000000E+00  0.42935186179E+03  0.42935186179E+03  0.00000000000E+00 0.  1.
         21   -1    0    0  501  502  0.00000000000E+00 -0.00000000000E+00 -0.22102937931E+03  0.22102937931E+03  0.00000000000E+00 0. -1.
        -24    2    1    2    0    0  0.29326477698E+02  0.12870738528E+03  0.22030813974E+02  0.15539540465E+03  0.78973044151E+02 0.  0.
         23    2    1    2    0    0 -0.94588086637E+02 -0.17166243667E+03 -0.69924895243E+02  0.22712180083E+03  0.90994082993E+02 0.  0.
         13    1    3    3    0    0  0.48182564001E+02  0.61992794846E+02  0.33066862792E+02  0.85194386560E+02  0.00000000000E+00 0. -1.
        -14    1    3    3    0    0 -0.18856086302E+02  0.66714590433E+02 -0.11036048819E+02  0.70201018090E+02  0.00000000000E+00 0.  1.
        -11    1    4    4    0    0 -0.36250988232E+02 -0.41590059354E+02  0.19872908752E+02  0.58641279719E+02  0.00000000000E+00 0.  1.
         11    1    4    4    0    0 -0.58337098405E+02 -0.13007237731E+03 -0.89797803995E+02  0.16848052111E+03  0.00000000000E+00 0. -1.
         -1    1    1    2    0  502  0.65261608938E+02  0.42955051388E+02  0.25621656375E+03  0.26786403562E+03  0.00000000000E+00 0.  1.
<scales pt_clust_5="13000.00000" pt_clust_6="13000.00000" pt_clust_7="13000.00000" pt_clust_8="13000.00000" pt_clust_9="78.12951"></scales>
<clustering>
<clus scale="   78.130">  2  9  1 -1</clus>
<clus scale="   78.973">  5  6 -1 -1</clus>
<clus scale="   90.994">  7  8 -1 -1</clus>
<clus scale="  169.884">  1  5  2 -1</clus>
<clus scale="   78.130">  2  5  1 -1</clus>
</clustering>
</event>
<event>
 9    1  0.3197504E-005  0.1026221E+03  0.7546771E-02  0.1279213E+00
         21   -1    0    0  501  502  0.00000000000E+00  0.00000000000E+00  0.12006226300E+03  0.12006226300E+03  0.00000000000E+00 0.  1.
         -2   -1    0    0    0  501 -0.00000000000E+00 -0.00000000000E+00 -0.56061613425E+03  0.56061613425E+03  0.00000000000E+00 0.  1.
        -24    2    1    2    0    0 -0.34376591532E+02  0.35828465093E+02 -0.46559099653E+03  0.47527167395E+03  0.81503122970E+02 0.  0.
         23    2    1    2    0    0  0.41584176138E+01 -0.44513484227E+02 -0.57953832654E+02  0.11665951664E+03  0.90840813448E+02 0.  0.
         11    1    3    3    0    0 -0.26747718984E+02  0.60245876294E+02 -0.38835692651E+03  0.39391129515E+03  0.00000000000E+00 0. -1.
        -12    1    3    3    0    0 -0.76288725475E+01 -0.24417411202E+02 -0.77234070021E+02  0.81360378798E+02  0.00000000000E+00 0.  1.
        -11    1    4    4    0    0 -0.21730823890E+02 -0.64025022374E+02 -0.47377725660E+02  0.82559560837E+02  0.00000000000E+00 0.  1.
         11    1    4    4    0    0  0.25889241504E+02  0.19511538147E+02 -0.10576106994E+02  0.34099955801E+02  0.00000000000E+00 0. -1.
         -1    1    1    2    0  502  0.30218173918E+02  0.86850191340E+01  0.82990957933E+02  0.88747206665E+02  0.00000000000E+00 0.  1.
<scales pt_clust_5="13000.00000" pt_clust_6="13000.00000" pt_clust_7="13000.00000" pt_clust_8="13000.00000" pt_clust_9="31.44149"></scales>
<clustering>
<clus scale="   31.441">  1  9  2 -1</clus>
<clus scale="   81.503">  5  6 -1 -1</clus>
<clus scale="   90.841">  7  8 -1 -1</clus>
<clus scale="   94.456">  2  5  1 -1</clus>
<clus scale="   31.441">  1  5  2 -1</clus>
</clustering>
</event>
<event>
 9    1  0.3197504E-005  0.9481584E+02  0.7546771E-02  0.1297535E+00
         -2   -1    0    0    0  501 -0.00000000000E+00  0.00000000000E+00  0.26886756754E+03  0.26886756754E+03  0.00000000000E+00 0.  1.
         21   -1    0    0  501  502  0.00000000000E+00 -0.00000000000E+00 -0.55652598764E+02  0.55652598764E+02  0.00000000000E+00 0. -1.
        -24    2    1    2    0    0 -0.23645989443E+02  0.15057980629E+02  0.61877794635E+02  0.10579526419E+03  0.81104259185E+02 0.  0.
         23    2    1    2    0    0 -0.12428894938E+02 -0.35292706078E+02  0.53160034984E+02  0.11219043798E+03  0.91436603841E+02 0.  0.
         13    1    3    3    0    0 -0.27341051753E+02 -0.29723800508E+02  0.34959163934E+02  0.53415171727E+02  0.00000000000E+00 0. -1.
        -14    1    3    3    0    0  0.36950623109E+01  0.44781781137E+02  0.26918630700E+02  0.52380092459E+02  0.00000000000E+00 0.  1.
        -13    1    4    4    0    0  0.51785273439E+01  0.30017637854E+02  0.10501908492E+02  0.32220580531E+02  0.00000000000E+00 0. -1.
         13    1    4    4    0    0 -0.17607422282E+02 -0.65310343931E+02  0.42658126492E+02  0.79969857444E+02  0.00000000000E+00 0.  1.
         -1    1    1    2    0  502  0.36074884380E+02  0.20234725449E+02  0.98177139153E+02  0.10653446414E+03  0.00000000000E+00 0.  1.
<scales pt_clust_5="13000.00000" pt_clust_6="13000.00000" pt_clust_7="13000.00000" pt_clust_8="13000.00000" pt_clust_9="41.36234"></scales>
<clustering>
<clus scale="   41.362">  2  9  1 -1</clus>
<clus scale="   81.104">  5  6 -1 -1</clus>
<clus scale="   84.896">  1  5  2 -1</clus>
<clus scale="   91.437">  7  8 -1 -1</clus>
<clus scale="   41.362">  2  5  1 -1</clus>
</clustering>
</event>
<event>
 9    1  0.3197504E-005  0.1237459E+03  0.7546771E-02  0.1240735E+00
         21   -1    0    0  501  502  0.00000000000E+00  0.00000000000E+00  0.43533327415E+03  0.43533327415E+03  0.00000000000E+00 0. -1.
          1   -1    0    0  502    0 -0.00000000000E+00 -0.00000000000E+00 -0.95150252074E+02  0.95150252074E+02  0.00000000000E+00 0. -1.
        -24    2    1    2    0    0  0.33330943010E+02 -0.74460888146E+02 -0.37451786769E+02  0.12101494064E+03  0.81157894870E+02 0.  0.
         23    2    1    2    0    0 -0.61225769199E+02  0.57429220547E+02  0.29632001197E+03  0.32183129204E+03  0.93397649093E+02 0.  0.
         13    1    3    3    0    0  0.65805779891E+01 -0.38292992935E+02 -0.59385689092E+02  0.70967016166E+02  0.00000000000E+00 0. -1.
        -14    1    3    3    0    0  0.26750365020E+02 -0.36167895211E+02  0.21933902323E+02  0.50047924471E+02  0.00000000000E+00 0.  1.
        -13    1    4    4    0    0 -0.45229683538E+02 -0.17102471191E+02  0.95832391592E+02  0.10734088723E+03  0.00000000000E+00 0. -1.
         13    1    4    4    0    0 -0.15996085661E+02  0.74531691738E+02  0.20048762038E+03  0.21449040481E+03  0.00000000000E+00 0.  1.
          2    1    1    2  501    0  0.27894826189E+02  0.17031667599E+02  0.81314796868E+02  0.87637293540E+02  0.00000000000E+00 0. -1.
<scales pt_clust_5="13000.00000" pt_clust_6="13000.00000" pt_clust_7="13000.00000" pt_clust_8="13000.00000" pt_clust_9="32.68331"></scales>
<clustering>
<clus scale="   32.683">  1  9  2 -1</clus>
<clus scale="   81.158">  5  6 -1 -1</clus>
<clus scale="   93.398">  7  8 -1 -1</clus>
<clus scale="  114.789">  2  5  1 -1</clus>
<clus scale="   32.683">  1  5  2 -1</clus>
</clustering>
</event>
<event>
 9    1  0.3197504E-005  0.9874657E+02  0.7546771E-02  0.1285390E+00
         21   -1    0    0  501  502  0.00000000000E+00  0.00000000000E+00  0.53190001281E+03  0.53190001281E+03  0.00000000000E+00 0.  1.
          1   -1    0    0  502    0 -0.00000000000E+00 -0.00000000000E+00 -0.34184661890E+02  0.34184661890E+02  0.00000000000E+00 0. -1.
        -24    2    1    2    0    0  0.32753827450E+02  0.51556946710E+00  0.65125143773E+02  0.11293121678E+03  0.86250196217E+02 0.  0.
         23    2    1    2    0    0 -0.58673153257E+02  0.21407590969E+01  0.33177203079E+03  0.34902290421E+03  0.91088887831E+02 0.  0.
         11    1    3    3    0    0  0.52198373753E+02 -0.26704556141E+02  0.44794429608E+02  0.73785801244E+02  0.00000000000E+00 0. -1.
        -12    1    3    3    0    0 -0.19444546303E+02  0.27220125609E+02  0.20330714164E+02  0.39145415537E+02  0.00000000000E+00 0.  1.
        -13    1    4    4    0    0 -0.28623966780E+02 -0.42725873756E+02  0.12167089712E+03  0.13209329646E+03  0.00000000000E+00 0. -1.
         13    1    4    4    0    0 -0.30049186477E+02  0.44866632853E+02  0.21010113366E+03  0.21692960775E+03  0.00000000000E+00 0.  1.
          2    1    1    2  501    0  0.25919325807E+02 -0.26563285640E+01  0.10081817636E+03  0.10413055371E+03  0.00000000000E+00 0. -1.
<scales pt_clust_5="13000.00000" pt_clust_6="13000.00000" pt_clust_7="13000.00000" pt_clust_8="13000.00000" pt_clust_9="26.05509"></scales>
<clustering>
<clus scale="   26.055">  1  9  2 -1</clus>
<clus scale="   86.250">  5  6 -1 -1</clus>
<clus scale="   91.089">  7  8 -1 -1</clus>
<clus scale="   94.302">  2  5  1 -1</clus>
<clus scale="   26.055">  1  5  2 -1</clus>
</clustering>
</event>
<event>
 9    1  0.3197504E-005  0.1350241E+03  0.7546771E-02  0.1222973E+00
         21   -1    0    0  501  502  0.00000000000E+00  0.00000000000E+00  0.10194900933E+03  0.10194900933E+03  0.00000000000E+00 0.  1.
         -2   -1    0    0    0  501 -0.00000000000E+00 -0.00000000000E+00 -0.41073515551E+03  0.41073515551E+03  0.00000000000E+00 0.  1.
        -24    2    1    2    0    0  0.67828670957E+02  0.40675686534E+02 -0.17363723887E+03  0.20691373076E+03  0.80050991093E+02 0.  0.
         23    2    1    2    0    0 -0.14950997305E+03 -0.59961641393E+02 -0.11904745425E+03  0.22031260848E+03  0.91742676064E+02 0.  0.
         13    1    3    3    0    0  0.20209912452E+02  0.33853117109E+02 -0.14643574154E+03  0.15165058687E+03  0.00000000000E+00 0. -1.
        -14    1    3    3    0    0  0.47618758505E+02  0.68225694250E+01 -0.27201497337E+02  0.55263143889E+02  0.00000000000E+00 0.  1.
        -13    1    4    4    0    0 -0.28952948930E+02 -0.37959854099E+02  0.23712492625E+01  0.47800069017E+02  0.00000000000E+00 0. -1.
         13    1    4    4    0    0 -0.12055702412E+03 -0.22001787294E+02 -0.12141870351E+03  0.17251253946E+03  0.00000000000E+00 0.  1.
         -1    1    1    2    0  502  0.81681302089E+02  0.19285954859E+02 -0.16101453060E+02  0.85457825601E+02  0.00000000000E+00 0.  1.
<scales pt_clust_5="13000.00000" pt_clust_6="13000.00000" pt_clust_7="13000.00000" pt_clust_8="13000.00000" pt_clust_9="83.92725"></scales>
<clustering>
<clus scale="   80.051">  5  6 -1 -1</clus>
<clus scale="   83.927">  1  9  2 -1</clus>
<clus scale="   91.743">  7  8 -1 -1</clus>
<clus scale="  127.369">  2  5  1 -1</clus>
<clus scale="   83.927">  1  5  2 -1</clus>
</clustering>
</event>
<event>
 9    1  0.3197504E-005  0.3658997E+03  0.7546771E-02  0.1112365E+00
         21   -1    0    0  501  502  0.00000000000E+00  0.00000000000E+00  0.15117307442E+03  0.15117307442E+03  0.00000000000E+00 0.  1.
          1   -1    0    0  502    0 -0.00000000000E+00 -0.00000000000E+00 -0.12722213327E+04  0.12722213327E+04  0.00000000000E+00 0. -1.
        -24    2    1    2    0    0  0.13752562629E+02 -0.11326408097E+01 -0.30526537132E+03  0.31599901004E+03  0.80486095476E+02 0.  0.
         23    2    1    2    0    0 -0.33558374415E+03 -0.12443932702E+03 -0.25821484115E+03  0.45147943127E+03  0.95169203110E+02 0.  0.
         11    1    3    3    0    0  0.45330934677E+02 -0.14032707837E+02 -0.18507823426E+03  0.19106481446E+03  0.00000000000E+00 0. -1.
        -12    1    3    3    0    0 -0.31578372047E+02  0.12900067028E+02 -0.12018713706E+03  0.12493419558E+03  0.00000000000E+00 0.  1.
        -13    1    4    4    0    0 -0.89614518209E+02  0.43863395864E+01 -0.88675218039E+02  0.12614791375E+03  0.00000000000E+00 0. -1.
         13    1    4    4    0    0 -0.24596922594E+03 -0.12882566661E+03 -0.16953962311E+03  0.32533151752E+03  0.00000000000E+00 0.  1.
          2    1    1    2  501    0  0.32183118152E+03  0.12557196783E+03 -0.55756804578E+03  0.65591596579E+03  0.00000000000E+00 0. -1.
<scales pt_clust_5="13000.00000" pt_clust_6="13000.00000" pt_clust_7="13000.00000" pt_clust_8="13000.00000" pt_clust_9="353.30653"></scales>
<clustering>
<clus scale="   80.486">  5  6 -1 -1</clus>
<clus scale="   81.660">  2  5  1 -1</clus>
<clus scale="   95.169">  7  8 -1 -1</clus>
<clus scale="  353.307">  1  9  2 -1</clus>
<clus scale="  353.307">  1  5  2 -1</clus>
</clustering>
</event>
<event>
 9    1  0.3197504E-005  0.2444503E+03  0.7546771E-02  0.1117656E+00
         21   -1    0    0  501  502  0.00000000000E+00  0.00000000000E+00  0.32678798926E+03  0.32678798926E+03  0.00000000000E+00 0.  1.
          3   -1    0    0  502    0 -0.00000000000E+00 -0.00000000000E+00 -0.24109751620E+03  0.24109751620E+03  0.00000000000E+00 0. -1.
        -24    2    1    2    0    0 -0.23068370773E+03 -0.35157784989E+02 -0.59238478701E+02  0.25373299206E+03  0.80126094635E+02 0.  0.
         23    2    1    2    0    0  0.21357762840E+03 -0.66556990683E+01  0.11617167462E+03  0.26059911588E+03  0.93575314735E+02 0.  0.
         13    1    3    3    0    0 -0.18760487065E+03 -0.42806269960E+01 -0.68814114033E+02  0.19987319367E+03  0.00000000000E+00 0. -1.
        -14    1    3    3    0    0 -0.43078837084E+02 -0.30877157993E+02  0.95756353315E+01  0.53859798386E+02  0.00000000000E+00 0.  1.
        -13    1    4    4    0    0  0.41023549879E+02 -0.32725225632E+01 -0.15020678239E+02  0.43809380541E+02  0.00000000000E+00 0. -1.
         13    1    4    4    0    0  0.17255407852E+03 -0.33831765052E+01  0.13119235286E+03  0.21678973533E+03  0.00000000000E+00 0.  1.
          4    1    1    2  501    0  0.17106079333E+02  0.41813484057E+02  0.28757277138E+02  0.53553397535E+02  0.00000000000E+00 0. -1.
<scales pt_clust_5="13000.00000" pt_clust_6="13000.00000" pt_clust_7="13000.00000" pt_clust_8="13000.00000" pt_clust_9="45.17727"></scales>
<clustering>
<clus scale="   45.177">  1  9  2 -1</clus>
<clus scale="   80.126">  5  6 -1 -1</clus>
<clus scale="   93.575">  7  8 -1 -1</clus>
<clus scale="  239.624">  2  5  1 -1</clus>
<clus scale="   45.177">  1  5  2 -1</clus>
</clustering>
</event>
<event>
 9    1  0.3197504E-005  0.9660486E+02  0.7546771E-02  0.1296051E+00
         21   -1    0    0  501  502  0.00000000000E+00  0.00000000000E+00  0.73904215357E+03  0.73904215357E+03  0.00000000000E+00 0.  1.
          1   -1    0    0  502    0 -0.00000000000E+00 -0.00000000000E+00 -0.19706976351E+02  0.19706976351E+02  0.00000000000E+00 0. -1.
         23    2    1    2    0    0  0.12969318569E+02  0.14622758958E+02  0.14272451254E+03  0.17258262154E+03  0.95039183883E+02 0.  0.
        -24    2    1    2    0    0 -0.19225975238E+02  0.62949764577E+01  0.47651027247E+03  0.48371268499E+03  0.80663851867E+02 0.  0.
         13    1    4    4    0    0 -0.29197036799E+02  0.29452137360E+02  0.13388329616E+03  0.14015931058E+03  0.00000000000E+00 0. -1.
        -14    1    4    4    0    0  0.99710615603E+01 -0.23157160903E+02  0.34262697631E+03  0.34355337441E+03  0.00000000000E+00 0.  1.
        -13    1    3    3    0    0  0.52628082686E+02  0.15608374968E+02  0.63192748376E+02  0.83705793729E+02  0.00000000000E+00 0.  1.
         13    1    3    3    0    0 -0.39658764118E+02 -0.98561601062E+00  0.79531764167E+02  0.88876827811E+02  0.00000000000E+00 0. -1.
          2    1    1    2  501    0  0.62566566694E+01 -0.20917735415E+02  0.10010039220E+03  0.10245382339E+03  0.00000000000E+00 0. -1.
<scales pt_clust_5="13000.00000" pt_clust_6="13000.00000" pt_clust_7="13000.00000" pt_clust_8="13000.00000" pt_clust_9="21.83340"></scales>
<clustering>
<clus scale="   21.833">  1  9  2 -1</clus>
<clus scale="   80.664">  5  6 -1 -1</clus>
<clus scale="   82.503">  1  5  2 -1</clus>
<clus scale="   95.039">  7  8 -1 -1</clus>
<clus scale="   21.833">  1  5  2 -1</clus>
</clustering>
</event>
<event>
 9    1  0.3197504E-005  0.1032244E+03  0.7546771E-02  0.1278291E+00
         -2   -1    0    0    0  501 -0.00000000000E+00  0.00000000000E+00  0.91140308297E+03  0.91140308297E+03  0.00000000000E+00 0.  1.
         21   -1    0    0  501  502  0.00000000000E+00 -0.00000000000E+00 -0.24665764281E+02  0.24665764281E+02  0.00000000000E+00 0. -1.
        -24    2    1    2    0    0  0.21694383492E+02  0.34569448847E+02  0.22175939763E+03  0.23940436662E+03  0.80445803180E+02 0.  0.
         23    2    1    2    0    0  0.53556420953E+02 -0.64611679957E+02  0.33968902884E+03  0.36143607697E+03  0.90578374971E+02 0.  0.
         13    1    3    3    0    0 -0.23270143269E+02 -0.24787928461E+01  0.25190916092E+02  0.34383516913E+02  0.00000000000E+00 0. -1.
        -14    1    3    3    0    0  0.44964526760E+02  0.37048241693E+02  0.19656848154E+03  0.20502084971E+03  0.00000000000E+00 0.  1.
        -11    1    4    4    0    0  0.55604635676E+02 -0.85481638789E+02  0.26810305683E+03  0.28684182952E+03  0.00000000000E+00 0. -1.
         11    1    4    4    0    0 -0.20482147222E+01  0.20869958833E+02  0.71585972007E+02  0.74594247455E+02  0.00000000000E+00 0.  1.
         -1    1    1    2    0  502 -0.75250804445E+02  0.30042231110E+02  0.32528889222E+03  0.33522840366E+03  0.00000000000E+00 0.  1.
<scales pt_clust_5="13000.00000" pt_clust_6="13000.00000" pt_clust_7="13000.00000" pt_clust_8="13000.00000" pt_clust_9="81.02608"></scales>
<clustering>
<clus scale="   80.446">  5  6 -1 -1</clus>
<clus scale="   81.026">  2  9  1 -1</clus>
<clus scale="   90.578">  7  8 -1 -1</clus>
<clus scale="   94.458">  1  5  2 -1</clus>
<clus scale="   81.026">  2  5  1 -1</clus>
</clustering>
</event>
<event>
 9    1  0.3197504E-005  0.1618853E+03  0.7546771E-02  0.1187161E+00
         21   -1    0    0  501  502  0.00000000000E+00  0.00000000000E+00  0.40350067316E+03  0.40350067316E+03  0.00000000000E+00 0. -1.
         -4   -1    0    0    0  501 -0.00000000000E+00 -0.00000000000E+00 -0.19617464545E+03  0.19617464545E+03  0.00000000000E+00 0.  1.
        -24    2    1    2    0    0  0.12739796110E+03 -0.61449481540E+02 -0.12945051642E+03  0.20930048617E+03  0.83922452492E+02 0.  0.
         23    2    1    2    0    0 -0.82655180579E+02  0.73381513185E+02  0.19149453310E+03  0.23789154640E+03  0.87781013268E+02 0.  0.
         13    1    3    3    0    0  0.94107274231E+01 -0.27876202261E+02  0.20157122970E+01  0.29490804316E+02  0.00000000000E+00 0. -1.
        -14    1    3    3    0    0  0.11798723368E+03 -0.33573279279E+02 -0.13146622872E+03  0.17980968185E+03  0.00000000000E+00 0.  1.
        -13    1    4    4    0    0 -0.26958717645E+01  0.33166324945E+02  0.11638636242E+03  0.12104981698E+03  0.00000000000E+00 0. -1.
         13    1    4    4    0    0 -0.79959308814E+02  0.40215188240E+02  0.75108170682E+02  0.11684172942E+03  0.00000000000E+00 0.  1.
         -3    1    1    2    0  502 -0.44742780525E+02 -0.11932031645E+02  0.14528201104E+03  0.15248328603E+03  0.00000000000E+00 0.  1.
<scales pt_clust_5="13000.00000" pt_clust_6="13000.00000" pt_clust_7="13000.00000" pt_clust_8="13000.00000" pt_clust_9="46.30648"></scales>
<clustering>
<clus scale="   46.306">  1  9  2 -1</clus>
<clus scale="   83.922">  5  6 -1 -1</clus>
<clus scale="   87.781">  7  8 -1 -1</clus>
<clus scale="  159.826">  2  5  1 -1</clus>
<clus scale="   46.306">  1  5  2 -1</clus>
</clustering>
</event>
<event>
 9    1  0.3197504E-005  0.9116253E+02  0.7546771E-02  0.1306361E+00
         -2   -1    0    0    0  501 -0.00000000000E+00  0.00000000000E+00  0.42548348185E+02  0.42548348185E+02  0.00000000000E+00 0.  1.
         21   -1    0    0  501  502  0.00000000000E+00 -0.00000000000E+00 -0.36235845230E+03  0.36235845230E+03  0.00000000000E+00 0.  1.
        -24    2    1    2    0    0 -0.23115184693E+02 -0.21271139684E+02 -0.11629290536E+03  0.14434076532E+03  0.79520082684E+02 0.  0.
         23    2    1    2    0    0 -0.72646869486E+01 -0.36218260204E+01 -0.20212362318E+03  0.22126541945E+03  0.89657869119E+02 0.  0.
         11    1    3    3    0    0  0.58926414860E+00  0.24856684168E+02 -0.11453161234E+02  0.27374748991E+02  0.00000000000E+00 0. -1.
        -12    1    3    3    0    0 -0.23704448841E+02 -0.46127823852E+02 -0.10483974413E+03  0.11696601633E+03  0.00000000000E+00 0.  1.
        -11    1    4    4    0    0  0.26346099155E+02  0.20438228628E+02 -0.15515907101E+03  0.15870152944E+03  0.00000000000E+00 0.  1.
         11    1    4    4    0    0 -0.33610786103E+02 -0.24060054648E+02 -0.46964552174E+02  0.62563890009E+02  0.00000000000E+00 0. -1.
         -1    1    1    2    0  502  0.30379871641E+02  0.24892965705E+02 -0.13935755705E+01  0.39300615712E+02  0.00000000000E+00 0.  1.
<scales pt_clust_5="13000.00000" pt_clust_6="13000.00000" pt_clust_7="13000.00000" pt_clust_8="13000.00000" pt_clust_9="39.27592"></scales>
<clustering>
<clus scale="   39.276">  2  9  1 -1</clus>
<clus scale="   79.520">  5  6 -1 -1</clus>
<clus scale="   81.213">  1  5  2 -1</clus>
<clus scale="   89.658">  7  8 -1 -1</clus>
<clus scale="   39.276">  2  5  1 -1</clus>
</clustering>
</event>
<event>
 9    1  0.3197504E-005  0.1215318E+03  0.7546771E-02  0.1251666E+00
         21   -1    0    0  501  502  0.00000000000E+00  0.00000000000E+00  0.90935900876E+02  0.90935900876E+02  0.00000000000E+00 0. -1.
          1   -1    0    0  502    0 -0.00000000000E+00 -0.00000000000E+00 -0.29006503958E+03  0.29006503958E+03  0.00000000000E+00 0. -1.
         23    2    1    2    0    0  0.21960745924E+02 -0.49193783629E+02 -0.71295626924E+02  0.12870890940E+03  0.92631604923E+02 0.  0.
        -24    2    1    2    0    0  0.16879715436E+02  0.12092855124E+03 -0.67224126461E+02  0.15066547984E+03  0.57204583199E+02 0.  0.
         11    1    4    4    0    0 -0.49860111497E+01  0.92967293961E+02 -0.67788465101E+02  0.11516533356E+03  0.00000000000E+00 0. -1.
        -12    1    4    4    0    0  0.21865726586E+02  0.27961257281E+02  0.56433863966E+00  0.35500146281E+02  0.00000000000E+00 0.  1.
        -11    1    3    3    0    0  0.51313255125E+02 -0.65240358155E+01 -0.52260862883E+02  0.73531020556E+02  0.00000000000E+00 0.  1.
         11    1    3    3    0    0 -0.29352509201E+02 -0.42669747814E+02 -0.19034764041E+02  0.55177888842E+02  0.00000000000E+00 0. -1.
          2    1    1    2  501    0 -0.38840461360E+02 -0.71734767613E+02 -0.60609385318E+02  0.10162655121E+03  0.00000000000E+00 0. -1.
<scales pt_clust_5="13000.00000" pt_clust_6="13000.00000" pt_clust_7="13000.00000" pt_clust_8="13000.00000" pt_clust_9="81.57490"></scales>
<clustering>
<clus scale="   57.205">  5  6 -1 -1</clus>
<clus scale="   81.575">  1  9  2 -1</clus>
<clus scale="   92.632">  7  8 -1 -1</clus>
<clus scale="   97.271">  1  5  2 -1</clus>
<clus scale="   81.575">  1  5  2 -1</clus>
</clustering>
</event>
<event>
 9    1  0.3197504E-005  0.2553439E+03  0.7546771E-02  0.1138926E+00
         21   -1    0    0  501  502  0.00000000000E+00  0.00000000000E+00  0.21852585044E+03  0.21852585044E+03  0.00000000000E+00 0. -1.
         -4   -1    0    0    0  501 -0.00000000000E+00 -0.00000000000E+00 -0.59399695482E+03  0.59399695482E+03  0.00000000000E+00 0.  1.
        -24    2    1    2    0    0 -0.70128178964E+02 -0.65185291780E+02 -0.18309797630E+03  0.22141182849E+03  0.79569121654E+02 0.  0.
         23    2    1    2    0    0  0.19240623113E+03 -0.14608148688E+03  0.31049618273E+02  0.26019815231E+03  0.91537102225E+02 0.  0.
         11    1    3    3    0    0 -0.14396747384E+02  0.17804551079E+02 -0.49633116084E+02  0.54659990730E+02  0.00000000000E+00 0. -1.
        -12    1    3    3    0    0 -0.55731431581E+02 -0.82989842859E+02 -0.13346486021E+03  0.16675183776E+03  0.00000000000E+00 0.  1.
        -13    1    4    4    0    0  0.13047982681E+02 -0.21020378401E+02  0.33358367384E+02  0.41531756942E+02  0.00000000000E+00 0.  1.
         13    1    4    4    0    0  0.17935824845E+03 -0.12506110848E+03 -0.23087491108E+01  0.21866639537E+03  0.00000000000E+00 0. -1.
         -3    1    1    2    0  502 -0.12227805217E+03  0.21126677866E+03 -0.22342274635E+03  0.33091282447E+03  0.00000000000E+00 0.  1.
<scales pt_clust_5="13000.00000" pt_clust_6="13000.00000" pt_clust_7="13000.00000" pt_clust_8="13000.00000" pt_clust_9="238.37262"></scales>
<clustering>
<clus scale="   79.569">  5  6 -1 -1</clus>
<clus scale="   91.537">  7  8 -1 -1</clus>
<clus scale="  124.492">  2  5  1 -1</clus>
<clus scale="  238.373">  1  9  2 -1</clus>
<clus scale="  238.373">  1  5  2 -1</clus>
</clustering>
</event>
<event>
 9    1  0.3197504E-005  0.1059172E+03  0.7546771E-02  0.1272467E+00
          3   -1    0    0  502    0 -0.00000000000E+00  0.00000000000E+00  0.16521374801E+03  0.16521374801E+03  0.00000000000E+00 0. -1.
         21   -1    0    0  501  502  0.00000000000E+00 -0.00000000000E+00 -0.15267499763E+03  0.15267499763E+03  0.00000000000E+00 0.  1.
         23    2    1    2    0    0  0.43867628234E+02 -0.19293069297E+02  0.56211121562E+02  0.11845054779E+03  0.92597250254E+02 0.  0.
        -24    2    1    2    0    0 -0.72914450444E+02 -0.44130540268E+02 -0.50519324295E+02  0.12934431154E+03  0.83148825208E+02 0.  0.
         11    1    4    4    0    0 -0.42134712389E+02  0.69153101728E+01  0.10575189123E+02  0.43988522684E+02  0.00000000000E+00 0. -1.
        -12    1    4    4    0    0 -0.30779738054E+02 -0.51045850441E+02 -0.61094513418E+02  0.85355788859E+02  0.00000000000E+00 0.  1.
        -11    1    3    3    0    0  0.12685825644E+02  0.16589530132E+02 -0.19812997898E+02  0.28787107669E+02  0.00000000000E+00 0. -1.
         11    1    3    3    0    0  0.31181802590E+02 -0.35882599429E+02  0.76024119459E+02  0.89663440120E+02  0.00000000000E+00 0.  1.
          4    1    1    2  501    0  0.29046822210E+02  0.63423609565E+02  0.68469531166E+01  0.70093886308E+02  0.00000000000E+00 0. -1.
<scales pt_clust_5="13000.00000" pt_clust_6="13000.00000" pt_clust_7="13000.00000" pt_clust_8="13000.00000" pt_clust_9="69.75871"></scales>
<clustering>
<clus scale="   69.759">  2  9  1 -1</clus>
<clus scale="   83.149">  5  6 -1 -1</clus>
<clus scale="   92.597">  7  8 -1 -1</clus>
<clus scale="   97.765">  2  5  1 -1</clus>
<clus scale="   69.759">  2  5  1 -1</clus>
</clustering>
</event>
<event>
 9    1  0.3197504E-005  0.1530277E+03  0.7546771E-02  0.1200498E+00
         21   -1    0    0  501  502  0.00000000000E+00  0.00000000000E+00  0.23907433873E+03  0.23907433873E+03  0.00000000000E+00 0. -1.
          1   -1    0    0  502    0 -0.00000000000E+00 -0.00000000000E+00 -0.60375660204E+03  0.60375660204E+03  0.00000000000E+00 0. -1.
         23    2    1    2    0    0 -0.53774584651E+02  0.11131104521E+03 -0.53873488139E+03  0.56148090988E+03  0.98710105860E+02 0.  0.
        -24    2    1    2    0    0  0.80602040763E+02 -0.35210458970E+02  0.40017888324E+02  0.12490093242E+03  0.79134986818E+02 0.  0.
         11    1    4    4    0    0  0.92855612059E+02 -0.34810459562E+02  0.19599419031E+02  0.10108446969E+03  0.00000000000E+00 0. -1.
        -12    1    4    4    0    0 -0.12253571296E+02 -0.39999940808E+00  0.20418469293E+02  0.23816462737E+02  0.00000000000E+00 0.  1.
        -13    1    3    3    0    0 -0.61093765372E+02  0.17313952757E+02 -0.23698128055E+03  0.24534128975E+03  0.00000000000E+00 0.  1.
         13    1    3    3    0    0  0.73191807205E+01  0.93997092456E+02 -0.30175360084E+03  0.31613962013E+03  0.00000000000E+00 0. -1.
          2    1    1    2  501    0 -0.26827456111E+02 -0.76100586243E+02  0.13403472976E+03  0.15644909846E+03  0.00000000000E+00 0. -1.
<scales pt_clust_5="13000.00000" pt_clust_6="13000.00000" pt_clust_7="13000.00000" pt_clust_8="13000.00000" pt_clust_9="80.69084"></scales>
<clustering>
<clus scale="   79.135">  5  6 -1 -1</clus>
<clus scale="   80.691">  1  9  2 -1</clus>
<clus scale="   98.710">  7  8 -1 -1</clus>
<clus scale="  141.195">  1  5  2 -1</clus>
<clus scale="   80.691">  1  5  2 -1</clus>
</clustering>
</event>
<event>
 9    1  0.3197504E-005  0.9977073E+02  0.7546771E-02  0.1285792E+00
         21   -1    0    0  501  502  0.00000000000E+00  0.00000000000E+00  0.97180492353E+02  0.97180492353E+02  0.00000000000E+00 0.  1.
         -4   -1    0    0    0  501 -0.00000000000E+00 -0.00000000000E+00 -0.13038508196E+03  0.13038508196E+03  0.00000000000E+00 0.  1.
         23    2    1    2    0    0  0.13500885133E+02 -0.48594562440E+02 -0.44886171839E+02  0.11289527617E+03  0.90481321618E+02 0.  0.
        -24    2    1    2    0    0  0.78792880237E+01  0.32492784616E+02  0.58819831948E+01  0.87283907323E+02  0.80411557126E+02 0.  0.
         11    1    4    4    0    0 -0.22818978122E+02 -0.31642117785E+01  0.27186211174E+02  0.35634366512E+02  0.00000000000E+00 0. -1.
        -12    1    4    4    0    0  0.30698266146E+02  0.35656996395E+02 -0.21304227979E+02  0.51649540811E+02  0.00000000000E+00 0.  1.
        -13    1    3    3    0    0  0.42903672868E+02 -0.56782739058E+02 -0.40981659060E+02  0.82124910836E+02  0.00000000000E+00 0.  1.
         13    1    3    3    0    0 -0.29402787736E+02  0.81881766178E+01 -0.39045127794E+01  0.30770365337E+02  0.00000000000E+00 0. -1.
         -3    1    1    2    0  502 -0.21380173156E+02  0.16101777824E+02  0.57995990330E+01  0.27386390821E+02  0.00000000000E+00 0.  1.
<scales pt_clust_5="13000.00000" pt_clust_6="13000.00000" pt_clust_7="13000.00000" pt_clust_8="13000.00000" pt_clust_9="26.76526"></scales>
<clustering>
<clus scale="   26.765">  1  9  2 -1</clus>
<clus scale="   80.412">  5  6 -1 -1</clus>
<clus scale="   90.481">  7  8 -1 -1</clus>
<clus scale="   90.738">  1  5  2 -1</clus>
<clus scale="   26.765">  1  5  2 -1</clus>
</clustering>
</event>
<event>
 9    1  0.3197504E-005  0.1621053E+03  0.7546771E-02  0.1188983E+00
          1   -1    0    0  502    0 -0.00000000000E+00  0.00000000000E+00  0.77672715704E+02  0.77672715704E+02  0.00000000000E+00 0. -1.
         21   -1    0    0  501  502  0.00000000000E+00 -0.00000000000E+00 -0.78059171086E+03  0.78059171086E+03  0.00000000000E+00 0. -1.
         23    2    1    2    0    0  0.10135536702E+03 -0.80299647613E+02 -0.13096327593E+03  0.20538150843E+03  0.91155035694E+02 0.  0.
        -24    2    1    2    0    0 -0.13466801435E+03 -0.11215511073E+02 -0.17896232974E+03  0.24800199623E+03  0.10590662345E+03 0.  0.
         11    1    4    4    0    0 -0.13316617210E+03 -0.80682927085E+01 -0.94550013778E+02  0.16351768053E+03  0.00000000000E+00 0. -1.
        -12    1    4    4    0    0 -0.15018422424E+01 -0.31472183646E+01 -0.84412315958E+02  0.84484315698E+02  0.00000000000E+00 0.  1.
        -13    1    3    3    0    0 -0.12553761695E+02 -0.23674861047E+02 -0.68528701564E+01  0.27659678372E+02  0.00000000000E+00 0.  1.
         13    1    3    3    0    0  0.11390912871E+03 -0.56624786566E+02 -0.12411040577E+03  0.17772183006E+03  0.00000000000E+00 0. -1.
          2    1    1    2  501    0  0.33312647327E+02  0.91515158686E+02 -0.39299338950E+03  0.40488092191E+03  0.00000000000E+00 0. -1.
<scales pt_clust_5="13000.00000" pt_clust_6="13000.00000" pt_clust_7="13000.00000" pt_clust_8="13000.00000" pt_clust_9="97.38972"></scales>
<clustering>
<clus scale="   91.155">  7  8 -1 -1</clus>
<clus scale="   97.390">  2  9  1 -1</clus>
<clus scale="  105.907">  5  6 -1 -1</clus>
<clus scale="  152.876">  1  7  2 -1</clus>
<clus scale="   97.390">  2  5  1 -1</clus>
</clustering>
</event>
<event>
 9    1  0.3197504E-005  0.1438257E+03  0.7546771E-02  0.1226732E+00
          1   -1    0    0  502    0 -0.00000000000E+00  0.00000000000E+00  0.36738558224E+03  0.36738558224E+03  0.00000000000E+00 0. -1.
         21   -1    0    0  501  502  0.00000000000E+00 -0.00000000000E+00 -0.14700930883E+03  0.14700930883E+03  0.00000000000E+00 0.  1.
         23    2    1    2    0    0 -0.34526302213E+02  0.18042509629E+01 -0.65403324433E+02  0.11736444956E+03  0.91112558455E+02 0.  0.
        -24    2    1    2    0    0  0.10367856252E+03 -0.89604451443E+02  0.20419095906E+03  0.25865552944E+03  0.80190604842E+02 0.  0.
         11    1    4    4    0    0  0.10096103121E+03 -0.45551845401E+02  0.11811572462E+03  0.16192413299E+03  0.00000000000E+00 0. -1.
        -12    1    4    4    0    0  0.27175313092E+01 -0.44052606042E+02  0.86075234441E+02  0.96731396452E+02  0.00000000000E+00 0.  1.
        -11    1    3    3    0    0 -0.28005424821E+01  0.36044331171E+02 -0.60433448574E+02  0.70421861338E+02  0.00000000000E+00 0.  1.
         11    1    3    3    0    0 -0.31725759731E+02 -0.34240080209E+02 -0.49698758596E+01  0.46942588225E+02  0.00000000000E+00 0. -1.
          2    1    1    2  501    0 -0.69152260306E+02  0.87800200480E+02  0.81588638789E+02  0.13837491207E+03  0.00000000000E+00 0. -1.
<scales pt_clust_5="13000.00000" pt_clust_6="13000.00000" pt_clust_7="13000.00000" pt_clust_8="13000.00000" pt_clust_9="119.39559"></scales>
<clustering>
<clus scale="   80.191">  5  6 -1 -1</clus>
<clus scale="   91.113">  7  8 -1 -1</clus>
<clus scale="   97.452">  1  7  2 -1</clus>
<clus scale="  119.396">  2  9  1 -1</clus>
<clus scale="  119.396">  2  5  1 -1</clus>
</clustering>
</event>
<event>
 9    1  0.3197504E-005  0.9775472E+02  0.7546771E-02  0.1290969E+00
         21   -1    0    0  501  502  0.00000000000E+00  0.00000000000E+00  0.21338303900E+03  0.21338303900E+03  0.00000000000E+00 0.  1.
          1   -1    0    0  502    0 -0.00000000000E+00 -0.00000000000E+00 -0.91981213430E+02  0.91981213430E+02  0.00000000000E+00 0. -1.
         23    2    1    2    0    0 -0.10777567158E+02  0.42285212891E+02  0.66018305183E+01  0.10164054598E+03  0.91558840307E+02 0.  0.
        -24    2    1    2    0    0  0.51138683901E+02  0.12152104598E+02  0.89508844059E+02  0.13139056329E+03  0.80553139733E+02 0.  0.
         11    1    4    4    0    0  0.49303079702E+02  0.26900503419E+01  0.88565896511E+01  0.50164421846E+02  0.00000000000E+00 0. -1.
        -12    1    4    4    0    0  0.18356041992E+01  0.94620542559E+01  0.80652254408E+02  0.81226141448E+02  0.00000000000E+00 0.  1.
        -13    1    3    3    0    0  0.28571307676E+02 -0.78745270027E+01 -0.16392898185E+02  0.33868199077E+02  0.00000000000E+00 0.  1.
         13    1    3    3    0    0 -0.39348874834E+02  0.50159739894E+02  0.22994728703E+02  0.67772346906E+02  0.00000000000E+00 0. -1.
          2    1    1    2  501    0 -0.40361116743E+02 -0.54437317489E+02  0.25291150996E+02  0.72333143157E+02  0.00000000000E+00 0. -1.
<scales pt_clust_5="13000.00000" pt_clust_6="13000.00000" pt_clust_7="13000.00000" pt_clust_8="13000.00000" pt_clust_9="67.76759"></scales>
<clustering>
<clus scale="   67.768">  1  9  2 -1</clus>
<clus scale="   80.553">  5  6 -1 -1</clus>
<clus scale="   87.532">  1  5  2 -1</clus>
<clus scale="   91.559">  7  8 -1 -1</clus>
<clus scale="   67.768">  1  5  2 -1</clus>
</clustering>
</event>
<event>
 9    1  0.3197504E-005  0.1141161E+03  0.7546771E-02  0.1257632E+00
         21   -1    0    0  501  502  0.00000000000E+00  0.00000000000E+00  0.22769333152E+03  0.22769333152E+03  0.00000000000E+00 0. -1.
         -4   -1    0    0    0  501 -0.00000000000E+00 -0.00000000000E+00 -0.36139846777E+03  0.36139846777E+03  0.00000000000E+00 0.  1.
         23    2    1    2    0    0  0.65347947734E+02  0.51796495830E+01 -0.26742521721E+03  0.29027896513E+03  0.91915438052E+02 0.  0.
        -24    2    1    2    0    0 -0.10627929107E+03  0.47301930422E+02  0.17175158091E+03  0.22215720099E+03  0.79513873484E+02 0.  0.
         13    1    4    4    0    0 -0.57935731032E+02  0.42038287304E+02  0.15498873720E+03  0.17071987344E+03  0.00000000000E+00 0. -1.
        -14    1    4    4    0    0 -0.48343560040E+02  0.52636431181E+01  0.16762843707E+02  0.51437327549E+02  0.00000000000E+00 0.  1.
        -13    1    3    3    0    0  0.81899062198E+02  0.18018796734E+02 -0.15807882988E+03  0.17894426473E+03  0.00000000000E+00 0.  1.
         13    1    3    3    0    0 -0.16551114464E+02 -0.12839147151E+02 -0.10934638733E+03  0.11133470040E+03  0.00000000000E+00 0. -1.
         -3    1    1    2    0  502  0.40931343337E+02 -0.52481580005E+02 -0.38031499950E+02  0.76655633163E+02  0.00000000000E+00 0.  1.
<scales pt_clust_5="13000.00000" pt_clust_6="13000.00000" pt_clust_7="13000.00000" pt_clust_8="13000.00000" pt_clust_9="66.55596"></scales>
<clustering>
<clus scale="   66.556">  1  9  2 -1</clus>
<clus scale="   79.514">  5  6 -1 -1</clus>
<clus scale="   91.915">  7  8 -1 -1</clus>
<clus scale="  104.386">  1  5  2 -1</clus>
<clus scale="   66.556">  1  5  2 -1</clus>
</clustering>
</event>
<event>
 9    1  0.3197504E-005  0.9725010E+02  0.7546771E-02  0.1290498E+00
         21   -1    0    0  501  502  0.00000000000E+00  0.00000000000E+00  0.13443195760E+03  0.13443195760E+03  0.00000000000E+00 0.  1.
          3   -1    0    0  502    0 -0.00000000000E+00 -0.00000000000E+00 -0.12102453652E+03  0.12102453652E+03  0.00000000000E+00 0. -1.
         23    2    1    2    0    0  0.74288994673E+00 -0.47045467570E+02  0.23151359643E+02  0.10386321897E+03  0.89653526968E+02 0.  0.
        -24    2    1    2    0    0  0.27829221141E+02  0.23234432043E+02  0.32927752544E+02  0.94987584906E+02  0.81388574241E+02 0.  0.
         11    1    4    4    0    0  0.43393796651E+02  0.18072628477E+02 -0.10847114641E+02  0.48242112141E+02  0.00000000000E+00 0. -1.
        -12    1    4    4    0    0 -0.15564575510E+02  0.51618035661E+01  0.43774867185E+02  0.46745472764E+02  0.00000000000E+00 0.  1.
        -13    1    3    3    0    0  0.38973812033E+02 -0.48586311254E+01  0.25592967220E+02  0.46878185672E+02  0.00000000000E+00 0. -1.
         13    1    3    3    0    0 -0.38230922086E+02 -0.42186836445E+02 -0.24416075766E+01  0.56985033301E+02  0.00000000000E+00 0.  1.
          4    1    1    2  501    0 -0.28572111087E+02  0.23811035527E+02 -0.42671691116E+02  0.56605690240E+02  0.00000000000E+00 0. -1.
<scales pt_clust_5="13000.00000" pt_clust_6="13000.00000" pt_clust_7="13000.00000" pt_clust_8="13000.00000" pt_clust_9="37.19318"></scales>
<clustering>
<clus scale="   37.193">  1  9  2 -1</clus>
<clus scale="   81.389">  5  6 -1 -1</clus>
<clus scale="   89.654">  7  8 -1 -1</clus>
<clus scale="   89.688">  1  5  2 -1</clus>
<clus scale="   37.193">  1  5  2 -1</clus>
</clustering>
</event>
<event>
 9    1  0.3197504E-005  0.1002483E+03  0.7546771E-02  0.1285642E+00
         21   -1    0    0  501  502  0.00000000000E+00  0.00000000000E+00  0.25506570020E+03  0.25506570020E+03  0.00000000000E+00 0. -1.
         -2   -1    0    0    0  501 -0.00000000000E+00 -0.00000000000E+00 -0.50513942657E+03  0.50513942657E+03  0.00000000000E+00 0.  1.
        -24    2    1    2    0    0 -0.12423116911E+02  0.39101654385E+02 -0.48438788438E+03  0.49260929649E+03  0.79680758262E+02 0.  0.
         23    2    1    2    0    0  0.34751022034E+02 -0.40331587815E+02  0.17871076680E+03  0.20766432605E+03  0.91392908031E+02 0.  0.
         11    1    3    3    0    0  0.34075833076E+02  0.17239249184E+02 -0.21490681550E+03  0.21827343737E+03  0.00000000000E+00 0. -1.
        -12    1    3    3    0    0 -0.46498949987E+02  0.21862405200E+02 -0.26948106889E+03  0.27433585912E+03  0.00000000000E+00 0.  1.
        -13    1    4    4    0    0  0.34760610078E+02  0.16333408382E+02  0.30672243081E+02  0.49151467302E+02  0.00000000000E+00 0.  1.
         13    1    4    4    0    0 -0.95880435938E-02 -0.56664996196E+02  0.14803852372E+03  0.15851285875E+03  0.00000000000E+00 0. -1.
         -1    1    1    2    0  502 -0.22327905123E+02  0.12299334299E+01  0.55603391223E+02  0.59931504228E+02  0.00000000000E+00 0.  1.
<scales pt_clust_5="13000.00000" pt_clust_6="13000.00000" pt_clust_7="13000.00000" pt_clust_8="13000.00000" pt_clust_9="22.36175"></scales>
<clustering>
<clus scale="   22.362">  1  9  2 -1</clus>
<clus scale="   79.681">  5  6 -1 -1</clus>
<clus scale="   89.700">  2  5  1 -1</clus>
<clus scale="   91.393">  7  8 -1 -1</clus>
<clus scale="   22.362">  1  5  2 -1</clus>
</clustering>
</event>
<event>
 9    1  0.3197504E-005  0.1850078E+03  0.7546771E-02  0.1185882E+00
         21   -1    0    0  501  502  0.00000000000E+00  0.00000000000E+00  0.27300434856E+03  0.27300434856E+03  0.00000000000E+00 0. -1.
          1   -1    0    0  502    0 -0.00000000000E+00 -0.00000000000E+00 -0.20795568329E+03  0.20795568329E+03  0.00000000000E+00 0. -1.
        -24    2    1    2    0    0 -0.19954832433E+02 -0.70105457687E+02 -0.29258950509E+02  0.11398413237E+03  0.82603424341E+02 0.  0.
         23    2    1    2    0    0  0.17240362700E+03  0.50320042767E+02  0.56560304484E+02  0.20868200472E+03  0.89966625718E+02 0.  0.
         13    1    3    3    0    0  0.44326267478E+00 -0.84380723558E+02 -0.16394159792E+02  0.85959708383E+02  0.00000000000E+00 0. -1.
        -14    1    3    3    0    0 -0.20398095108E+02  0.14275265871E+02 -0.12864790717E+02  0.28024423989E+02  0.00000000000E+00 0.  1.
        -13    1    4    4    0    0  0.13684686224E+03  0.74239855456E+02  0.30872675632E+02  0.15871906610E+03  0.00000000000E+00 0. -1.
         13    1    4    4    0    0  0.35556764758E+02 -0.23919812689E+02  0.25687628852E+02  0.49962938616E+02  0.00000000000E+00 0.  1.
          2    1    1    2  501    0 -0.15244879457E+03  0.19785414919E+02  0.37747311295E+02  0.15829389476E+03  0.00000000000E+00 0. -1.
<scales pt_clust_5="13000.00000" pt_clust_6="13000.00000" pt_clust_7="13000.00000" pt_clust_8="13000.00000" pt_clust_9="161.65983"></scales>
<clustering>
<clus scale="   82.603">  5  6 -1 -1</clus>
<clus scale="   89.967">  7  8 -1 -1</clus>
<clus scale="  110.165">  2  5  1 -1</clus>
<clus scale="  161.660">  1  9  2 -1</clus>
<clus scale="  161.660">  1  5  2 -1</clus>
</clustering>
</event>
<event>
 9    1  0.3197504E-005  0.3017131E+03  0.7546771E-02  0.1085206E+00
          1   -1    0    0  502    0 -0.00000000000E+00  0.00000000000E+00  0.26836342574E+03  0.26836342574E+03  0.00000000000E+00 0. -1.
         21   -1    0    0  501  502  0.00000000000E+00 -0.00000000000E+00 -0.10817557777E+04  0.10817557777E+04  0.00000000000E+00 0.  1.
         23    2    1    2    0    0 -0.10949318585E+03  0.20558461503E+03 -0.34134435010E+03  0.42539625157E+03  0.10095649469E+03 0.  0.
        -24    2    1    2    0    0  0.22950981801E+03 -0.29802466848E+03 -0.60920861317E+03  0.72036496020E+03  0.79354155148E+02 0.  0.
         11    1    4    4    0    0  0.74943971499E+02 -0.56230659301E+02 -0.10948413483E+03  0.14410156726E+03  0.00000000000E+00 0. -1.
        -12    1    4    4    0    0  0.15456584651E+03 -0.24179400918E+03 -0.49972447835E+03  0.57626339294E+03  0.00000000000E+00 0.  1.
        -13    1    3    3    0    0 -0.37675821789E+02  0.16640442769E+03 -0.25120522336E+03  0.30366752435E+03  0.00000000000E+00 0.  1.
         13    1    3    3    0    0 -0.71817364060E+02  0.39180187340E+02 -0.90139126739E+02  0.12172872722E+03  0.00000000000E+00 0. -1.
          2    1    1    2  501    0 -0.12001663216E+03  0.92440053450E+02  0.13716061130E+03  0.20435799169E+03  0.00000000000E+00 0. -1.
<scales pt_clust_5="13000.00000" pt_clust_6="13000.00000" pt_clust_7="13000.00000" pt_clust_8="13000.00000" pt_clust_9="151.48986"></scales>
<clustering>
<clus scale="   79.354">  5  6 -1 -1</clus>
<clus scale="  100.956">  7  8 -1 -1</clus>
<clus scale="  151.490">  2  9  1 -1</clus>
<clus scale="  295.187">  2  5  1 -1</clus>
<clus scale="  151.490">  2  5  1 -1</clus>
</clustering>
</event>
<event>
 9    1  0.3197504E-005  0.9823389E+02  0.7546771E-02  0.1290208E+00
         21   -1    0    0  501  502  0.00000000000E+00  0.00000000000E+00  0.14538828419E+03  0.14538828419E+03  0.00000000000E+00 0. -1.
          1   -1    0    0  502    0 -0.00000000000E+00 -0.00000000000E+00 -0.20465293427E+03  0.20465293427E+03  0.00000000000E+00 0. -1.
        -24    2    1    2    0    0 -0.15166986883E+02 -0.44346471322E+02 -0.14489267802E+03  0.17021888225E+03  0.76052171052E+02 0.  0.
         23    2    1    2    0    0 -0.35555515430E+02  0.25094900614E+02  0.76959621141E+02  0.12488112678E+03  0.88196166733E+02 0.  0.
         11    1    3    3    0    0 -0.31146636801E+02 -0.58793094228E+02 -0.12071689558E+03  0.13783798385E+03  0.00000000000E+00 0. -1.
        -12    1    3    3    0    0  0.15979649918E+02  0.14446622906E+02 -0.24175782441E+02  0.32380898405E+02  0.00000000000E+00 0.  1.
        -11    1    4    4    0    0  0.26995536660E+02  0.13268011087E+02  0.43714399215E+02  0.53063620462E+02  0.00000000000E+00 0.  1.
         11    1    4    4    0    0 -0.62551052090E+02  0.11826889527E+02  0.33245221926E+02  0.71817506322E+02  0.00000000000E+00 0. -1.
          2    1    1    2  501    0  0.50722502313E+02  0.19251570708E+02  0.86684067988E+01  0.54941209416E+02  0.00000000000E+00 0. -1.
<scales pt_clust_5="13000.00000" pt_clust_6="13000.00000" pt_clust_7="13000.00000" pt_clust_8="13000.00000" pt_clust_9="54.25307"></scales>
<clustering>
<clus scale="   54.253">  1  9  2 -1</clus>
<clus scale="   76.052">  5  6 -1 -1</clus>
<clus scale="   87.494">  2  5  1 -1</clus>
<clus scale="   88.196">  7  8 -1 -1</clus>
<clus scale="   54.253">  1  5  2 -1</clus>
</clustering>
</event>
<event>
 9    1  0.3197504E-005  0.2551371E+03  0.7546771E-02  0.1110692E+00
         -2   -1    0    0    0  501 -0.00000000000E+00  0.00000000000E+00  0.91365738836E+02  0.91365738836E+02  0.00000000000E+00 0.  1.
         21   -1    0    0  501  502  0.00000000000E+00 -0.00000000000E+00 -0.84612617617E+03  0.84612617617E+03  0.00000000000E+00 0. -1.
         23    2    1    2    0    0  0.20214552472E+03  0.10059870435E+03 -0.30515030137E+03  0.39051123480E+03  0.91648271111E+02 0.  0.
        -24    2    1    2    0    0 -0.21889756839E+03 -0.12355075679E+03 -0.32244228357E+03  0.41667684159E+03  0.80434004801E+02 0.  0.
         11    1    4    4    0    0 -0.59656367258E+02 -0.58319082699E+02 -0.59662473877E+02  0.10256514199E+03  0.00000000000E+00 0. -1.
        -12    1    4    4    0    0 -0.15924120113E+03 -0.65231674091E+02 -0.26277980970E+03  0.31411169960E+03  0.00000000000E+00 0.  1.
        -13    1    3    3    0    0  0.88008970503E+02  0.73825306157E+02 -0.21063267047E+03  0.23992056308E+03  0.00000000000E+00 0. -1.
         13    1    3    3    0    0  0.11413655421E+03  0.26773398196E+02 -0.94517630904E+02  0.15059067173E+03  0.00000000000E+00 0.  1.
         -1    1    1    2    0  502  0.16752043670E+02  0.22952052437E+02 -0.12716785239E+03  0.13030383862E+03  0.00000000000E+00 0.  1.
<scales pt_clust_5="13000.00000" pt_clust_6="13000.00000" pt_clust_7="13000.00000" pt_clust_8="13000.00000" pt_clust_9="28.41527"></scales>
<clustering>
<clus scale="   28.415">  2  9  1 -1</clus>
<clus scale="   80.434">  5  6 -1 -1</clus>
<clus scale="   91.648">  7  8 -1 -1</clus>
<clus scale="  251.327">  2  5  1 -1</clus>
<clus scale="   28.415">  2  5  1 -1</clus>
</clustering>
</event>
<event>
 9    1  0.3197504E-005  0.1040034E+03  0.7546771E-02  0.1278056E+00
         -2   -1    0    0    0  501 -0.00000000000E+00  0.00000000000E+00  0.22770986094E+03  0.22770986094E+03  0.00000000000E+00 0.  1.
         21   -1    0    0  501  502  0.00000000000E+00 -0.00000000000E+00 -0.11393602687E+03  0.11393602687E+03  0.00000000000E+00 0.  1.
        -24    2    1    2    0    0  0.79851884626E+01 -0.48910383614E+02  0.99402574606E+02  0.13708638118E+03  0.80348087763E+02 0.  0.
         23    2    1    2    0    0  0.52167235402E+02  0.36145233433E+02  0.60315126529E+02  0.12779947746E+03  0.93096152454E+02 0.  0.
         11    1    3    3    0    0  0.13655969759E+02 -0.56772158202E+02  0.27517323076E+02  0.64550495941E+02  0.00000000000E+00 0. -1.
        -12    1    3    3    0    0 -0.56707812965E+01  0.78617745874E+01  0.71885251530E+02  0.72535885241E+02  0.00000000000E+00 0.  1.
        -11    1    4    4    0    0  0.64770006730E+02  0.51725270037E+02  0.23952679706E+02  0.86280868083E+02  0.00000000000E+00 0. -1.
         11    1    4    4    0    0 -0.12602771327E+02 -0.15580036604E+02  0.36362446823E+02  0.41518609378E+02  0.00000000000E+00 0.  1.
         -1    1    1    2    0  502 -0.60152423865E+02  0.12765150182E+02 -0.45943867067E+02  0.76760029163E+02  0.00000000000E+00 0.  1.
<scales pt_clust_5="13000.00000" pt_clust_6="13000.00000" pt_clust_7="13000.00000" pt_clust_8="13000.00000" pt_clust_9="61.49198"></scales>
<clustering>
<clus scale="   61.492">  2  9  1 -1</clus>
<clus scale="   80.348">  5  6 -1 -1</clus>
<clus scale="   92.767">  1  5  2 -1</clus>
<clus scale="   93.096">  7  8 -1 -1</clus>
<clus scale="   61.492">  2  5  1 -1</clus>
</clustering>
</event>
<event>
 9    1  0.3197504E-005  0.1511596E+03  0.7546771E-02  0.1202252E+00
          3   -1    0    0  502    0 -0.00000000000E+00  0.00000000000E+00  0.84491592928E+03  0.84491592928E+03  0.00000000000E+00 0. -1.
         21   -1    0    0  501  502  0.00000000000E+00 -0.00000000000E+00 -0.61096077062E+02  0.61096077062E+02  0.00000000000E+00 0.  1.
         23    2    1    2    0    0  0.43618555819E+02 -0.10292127393E+03  0.52200167120E+03  0.54204869046E+03  0.93998250251E+02 0.  0.
        -24    2    1    2    0    0 -0.70926307870E+02  0.11133891130E+03  0.28751817931E+03  0.32553077949E+03  0.76659576344E+02 0.  0.
         13    1    4    4    0    0 -0.26977710063E+02  0.81875862237E+02  0.23773249683E+03  0.25287980091E+03  0.00000000000E+00 0. -1.
        -14    1    4    4    0    0 -0.43948597808E+02  0.29463049064E+02  0.49785682477E+02  0.72650978583E+02  0.00000000000E+00 0.  1.
        -11    1    3    3    0    0 -0.28768464319E+02 -0.42810974330E+02  0.20395269240E+03  0.21037372650E+03  0.00000000000E+00 0.  1.
         11    1    3    3    0    0  0.72387020138E+02 -0.60110299602E+02  0.31804897880E+03  0.33167496396E+03  0.00000000000E+00 0. -1.
          4    1    1    2  501    0  0.27307752052E+02 -0.84176373691E+01 -0.25699998296E+02  0.38432536390E+02  0.00000000000E+00 0. -1.
<scales pt_clust_5="13000.00000" pt_clust_6="13000.00000" pt_clust_7="13000.00000" pt_clust_8="13000.00000" pt_clust_9="28.57569"></scales>
<clustering>
<clus scale="   28.576">  2  9  1 -1</clus>
<clus scale="   76.660">  5  6 -1 -1</clus>
<clus scale="   93.998">  7  8 -1 -1</clus>
<clus scale="  141.033">  2  5  1 -1</clus>
<clus scale="   28.576">  2  5  1 -1</clus>
</clustering>
</event>
<event>
 9    1  0.3197504E-005  0.9748369E+02  0.7546771E-02  0.1290410E+00
          3   -1    0    0  502    0 -0.00000000000E+00  0.00000000000E+00  0.16801046334E+03  0.16801046334E+03  0.00000000000E+00 0. -1.
         21   -1    0    0  501  502  0.00000000000E+00 -0.00000000000E+00 -0.89746907351E+02  0.89746907351E+02  0.00000000000E+00 0.  1.
        -24    2    1    2    0    0 -0.16480631034E+02  0.39447570692E+02  0.95901867396E+02  0.13226026771E+03  0.80423182057E+02 0.  0.
         23    2    1    2    0    0 -0.89201058317E+01 -0.31575338363E+02 -0.35918476862E+01  0.95422651729E+02  0.89532177525E+02 0.  0.
         11    1    3    3    0    0 -0.74748361286E+01  0.62436593960E+02  0.83784283164E+02  0.10475689737E+03  0.00000000000E+00 0. -1.
        -12    1    3    3    0    0 -0.90057949055E+01 -0.22989023268E+02  0.12117584232E+02  0.27503370345E+02  0.00000000000E+00 0.  1.
        -11    1    4    4    0    0 -0.37772270584E+02 -0.29519589978E+02 -0.29753067526E+02  0.56421588463E+02  0.00000000000E+00 0.  1.
         11    1    4    4    0    0  0.28852164753E+02 -0.20557483857E+01  0.26161219839E+02  0.39001063265E+02  0.00000000000E+00 0. -1.
          4    1    1    2  501    0  0.25400736866E+02 -0.78722323284E+01 -0.14046463719E+02  0.30074451253E+02  0.00000000000E+00 0. -1.
<scales pt_clust_5="13000.00000" pt_clust_6="13000.00000" pt_clust_7="13000.00000" pt_clust_8="13000.00000" pt_clust_9="26.59266"></scales>
<clustering>
<clus scale="   26.593">  2  9  1 -1</clus>
<clus scale="   80.423">  5  6 -1 -1</clus>
<clus scale="   89.191">  1  5  2 -1</clus>
<clus scale="   89.532">  7  8 -1 -1</clus>
<clus scale="   26.593">  2  5  1 -1</clus>
</clustering>
</event>
<event>
 9    1  0.3197504E-005  0.9485490E+02  0.7546771E-02  0.1299257E+00
         21   -1    0    0  501  502  0.00000000000E+00  0.00000000000E+00  0.31114608802E+02  0.31114608802E+02  0.00000000000E+00 0.  1.
          1   -1    0    0  502    0 -0.00000000000E+00 -0.00000000000E+00 -0.44591073857E+03  0.44591073857E+03  0.00000000000E+00 0. -1.
        -24    2    1    2    0    0  0.88926131329E+01  0.10662831443E+02 -0.21940010633E+03  0.23362506447E+03  0.79066361698E+02 0.  0.
         23    2    1    2    0    0 -0.44097644388E+02 -0.19397259939E+02 -0.11427895159E+03  0.15454273503E+03  0.92211291288E+02 0.  0.
         13    1    3    3    0    0  0.10471610948E+02  0.44829882671E+02 -0.12240306294E+03  0.13077416731E+03  0.00000000000E+00 0. -1.
        -14    1    3    3    0    0 -0.15789978155E+01 -0.34167051229E+02 -0.96997043381E+02  0.10285089717E+03  0.00000000000E+00 0.  1.
        -13    1    4    4    0    0 -0.71709317553E+02 -0.28169268212E+01 -0.81385883266E+02  0.10850724997E+03  0.00000000000E+00 0.  1.
         13    1    4    4    0    0  0.27611673165E+02 -0.16580333118E+02 -0.32893068320E+02  0.46035485061E+02  0.00000000000E+00 0. -1.
          2    1    1    2  501    0  0.35205031255E+02  0.87344284967E+01 -0.81117071859E+02  0.88857547872E+02  0.00000000000E+00 0. -1.
<scales pt_clust_5="13000.00000" pt_clust_6="13000.00000" pt_clust_7="13000.00000" pt_clust_8="13000.00000" pt_clust_9="36.27238"></scales>
<clustering>
<clus scale="   36.272">  1  9  2 -1</clus>
<clus scale="   79.066">  5  6 -1 -1</clus>
<clus scale="   82.134">  2  5  1 -1</clus>
<clus scale="   92.211">  7  8 -1 -1</clus>
<clus scale="   36.272">  1  5  2 -1</clus>
</clustering>
</event>
<event>
 9    1  0.3827131E-005  0.1714981E+03  0.7546771E-02  0.1204299E+00
         21   -1    0    0  501  502  0.00000000000E+00  0.00000000000E+00  0.29598387747E+03  0.29598387747E+03  0.00000000000E+00 0. -1.
          1   -1    0    0  502    0 -0.00000000000E+00 -0.00000000000E+00 -0.34468000289E+03  0.34468000289E+03  0.00000000000E+00 0. -1.
        -24    2    1    2    0    0 -0.64488766471E+01 -0.45002508660E+02 -0.23687296639E+03  0.25425491672E+03  0.80435978747E+02 0.  0.
         23    2    1    2    0    0 -0.50336316165E+02 -0.64118422294E+02 -0.12300524795E+02  0.15120031185E+03  0.12674902205E+03 0.  0.
         13    1    3    3    0    0 -0.33750389622E+02 -0.48195265702E+02 -0.19861049515E+03  0.20714246600E+03  0.00000000000E+00 0. -1.
        -14    1    3    3    0    0  0.27301512975E+02  0.31927570417E+01 -0.38262471240E+02  0.47112450728E+02  0.00000000000E+00 0.  1.
        -11    1    4    4    0    0  0.29559179938E+02  0.17713288141E+02 -0.13002233508E+02  0.36831559451E+02  0.00000000000E+00 0.  1.
         11    1    4    4    0    0 -0.79895496103E+02 -0.81831710435E+02  0.70170871289E+00  0.11436875240E+03  0.00000000000E+00 0. -1.
          2    1    1    2  501    0  0.56785192812E+02  0.10912093095E+03  0.20047736576E+03  0.23520865179E+03  0.00000000000E+00 0. -1.
<scales pt_clust_5="13000.00000" pt_clust_6="13000.00000" pt_clust_7="13000.00000" pt_clust_8="13000.00000" pt_clust_9="115.52616"></scales>
<clustering>
<clus scale="   80.436">  5  6 -1 -1</clus>
<clus scale="   92.395">  2  5  1 -1</clus>
<clus scale="  115.526">  1  9  2 -1</clus>
<clus scale="  126.749">  7  8 -1 -1</clus>
<clus scale="  115.526">  1  5  2 -1</clus>
</clustering>
</event>
<event>
 9    1  0.3197504E-005  0.9343817E+02  0.7546771E-02  0.1310964E+00
         21   -1    0    0  501  502  0.00000000000E+00  0.00000000000E+00  0.93009329325E+02  0.93009329325E+02  0.00000000000E+00 0. -1.
          1   -1    0    0  502    0 -0.00000000000E+00 -0.00000000000E+00 -0.23571180205E+03  0.23571180205E+03  0.00000000000E+00 0. -1.
        -24    2    1    2    0    0  0.19165774854E+02  0.14917354327E+02 -0.18425288604E+03  0.19721394514E+03  0.65987572766E+02 0.  0.
         23    2    1    2    0    0 -0.28379102137E+01  0.12597844372E+02  0.23736648866E+02  0.94887307381E+02  0.90958304654E+02 0.  0.
         13    1    3    3    0    0  0.33400818919E+02  0.14900446578E+02 -0.17790874320E+03  0.18162917971E+03  0.00000000000E+00 0. -1.
        -14    1    3    3    0    0 -0.14235044065E+02  0.16907748948E-01 -0.63441428346E+01  0.15584765436E+02  0.00000000000E+00 0.  1.
        -13    1    4    4    0    0 -0.15284697622E+01 -0.39135887497E+02  0.17015995701E+02  0.42702435758E+02  0.00000000000E+00 0.  1.
         13    1    4    4    0    0 -0.13094404515E+01  0.51733731869E+02  0.67206531657E+01  0.52184871624E+02  0.00000000000E+00 0. -1.
          2    1    1    2  501    0 -0.16327864640E+02 -0.27515198699E+02  0.17813764447E+02  0.36619878850E+02  0.00000000000E+00 0. -1.
<scales pt_clust_5="13000.00000" pt_clust_6="13000.00000" pt_clust_7="13000.00000" pt_clust_8="13000.00000" pt_clust_9="31.99508"></scales>
<clustering>
<clus scale="   31.995">  1  9  2 -1</clus>
<clus scale="   65.988">  5  6 -1 -1</clus>
<clus scale="   69.366">  2  5  1 -1</clus>
<clus scale="   90.958">  7  8 -1 -1</clus>
<clus scale="   31.995">  1  5  2 -1</clus>
</clustering>
</event>
<event>
 9    1  0.3197504E-005  0.1646290E+03  0.7546771E-02  0.1185285E+00
         21   -1    0    0  501  502  0.00000000000E+00  0.00000000000E+00  0.18738486715E+03  0.18738486715E+03  0.00000000000E+00 0.  1.
          1   -1    0    0  502    0 -0.00000000000E+00 -0.00000000000E+00 -0.30786203325E+03  0.30786203325E+03  0.00000000000E+00 0. -1.
        -24    2    1    2    0    0  0.11873177501E+03 -0.82826081044E+02 -0.20309625940E+03  0.26215115731E+03  0.80732549831E+02 0.  0.
         23    2    1    2    0    0 -0.10998212017E+03  0.38785071179E+02  0.11725742082E+02  0.14917891368E+03  0.92284921616E+02 0.  0.
         13    1    3    3    0    0  0.43751967682E+02  0.39160944179E+01 -0.25597384335E+02  0.50840894527E+02  0.00000000000E+00 0. -1.
        -14    1    3    3    0    0  0.74979807324E+02 -0.86742175462E+02 -0.17749887506E+03  0.21131026278E+03  0.00000000000E+00 0.  1.
        -13    1    4    4    0    0 -0.34758284994E+02  0.19440860036E+02  0.48903456709E+02  0.63068482563E+02  0.00000000000E+00 0.  1.
         13    1    4    4    0    0 -0.75223835173E+02  0.19344211144E+02 -0.37177714627E+02  0.86110431121E+02  0.00000000000E+00 0. -1.
          2    1    1    2  501    0 -0.87496548394E+01  0.44041009865E+02  0.70893351220E+02  0.83916829402E+02  0.00000000000E+00 0. -1.
<scales pt_clust_5="13000.00000" pt_clust_6="13000.00000" pt_clust_7="13000.00000" pt_clust_8="13000.00000" pt_clust_9="44.90175"></scales>
<clustering>
<clus scale="   44.902">  1  9  2 -1</clus>
<clus scale="   80.733">  5  6 -1 -1</clus>
<clus scale="   92.285">  7  8 -1 -1</clus>
<clus scale="  158.442">  2  5  1 -1</clus>
<clus scale="   44.902">  1  5  2 -1</clus>
</clustering>
</event>
<event>
 9    1  0.3197504E-005  0.9804686E+02  0.7546771E-02  0.1297320E+00
         21   -1    0    0  501  502  0.00000000000E+00  0.00000000000E+00  0.15821494925E+03  0.15821494925E+03  0.00000000000E+00 0.  1.
         -2   -1    0    0    0  501 -0.00000000000E+00 -0.00000000000E+00 -0.66308640848E+02  0.66308640848E+02  0.00000000000E+00 0.  1.
        -24    2    1    2    0    0 -0.31040412605E+02  0.31482187690E+02  0.24959886689E+02  0.85645502943E+02  0.68974784337E+02 0.  0.
         23    2    1    2    0    0  0.12642245465E+02 -0.13877151527E+02  0.63462540980E+02  0.11317658375E+03  0.91809821351E+02 0.  0.
         11    1    3    3    0    0 -0.10375602738E+02 -0.21942719168E+02  0.11212051758E+02  0.26736607139E+02  0.00000000000E+00 0. -1.
        -12    1    3    3    0    0 -0.20664809866E+02  0.53424906857E+02  0.13747834931E+02  0.58908895804E+02  0.00000000000E+00 0.  1.
        -13    1    4    4    0    0  0.51124223739E+02  0.38905680247E+01  0.36606656197E+02  0.62998968646E+02  0.00000000000E+00 0. -1.
         13    1    4    4    0    0 -0.38481978274E+02 -0.17767719552E+02  0.26855884783E+02  0.50177615103E+02  0.00000000000E+00 0.  1.
         -1    1    1    2    0  502  0.18398167140E+02 -0.17605036162E+02  0.34838807329E+01  0.25701503406E+02  0.00000000000E+00 0.  1.
<scales pt_clust_5="13000.00000" pt_clust_6="13000.00000" pt_clust_7="13000.00000" pt_clust_8="13000.00000" pt_clust_9="25.46430"></scales>
<clustering>
<clus scale="   25.464">  1  9  2 -1</clus>
<clus scale="   68.975">  5  6 -1 -1</clus>
<clus scale="   77.082">  2  5  1 -1</clus>
<clus scale="   91.810">  7  8 -1 -1</clus>
<clus scale="   25.464">  1  5  2 -1</clus>
</clustering>
</event>
<event>
 9    1  0.3197504E-005  0.1033417E+03  0.7546771E-02  0.1277384E+00
          1   -1    0    0  502    0 -0.00000000000E+00  0.00000000000E+00  0.17041107505E+03  0.17041107505E+03  0.00000000000E+00 0. -1.
         21   -1    0    0  501  502  0.00000000000E+00 -0.00000000000E+00 -0.10692952984E+03  0.10692952984E+03  0.00000000000E+00 0.  1.
        -24    2    1    2    0    0 -0.56293010558E+02 -0.21967493344E+02  0.72031152105E+02  0.12463776377E+03  0.81820605489E+02 0.  0.
         23    2    1    2    0    0  0.22094642230E+02  0.10997587456E+01 -0.40328951704E+02  0.10156657708E+03  0.90553644600E+02 0.  0.
         11    1    3    3    0    0 -0.95434966148E+01  0.30111745648E+02  0.19372195106E+02  0.37055060340E+02  0.00000000000E+00 0. -1.
        -12    1    3    3    0    0 -0.46749513943E+02 -0.52079238992E+02  0.52658957000E+02  0.87582703430E+02  0.00000000000E+00 0.  1.
        -11    1    4    4    0    0 -0.27770245489E+02  0.11563775376E+02 -0.40704919955E+02  0.50614206939E+02  0.00000000000E+00 0.  1.
         11    1    4    4    0    0  0.49864887719E+02 -0.10464016630E+02  0.37596825068E+00  0.50952370145E+02  0.00000000000E+00 0. -1.
          2    1    1    2  501    0  0.34198368328E+02  0.20867734598E+02  0.31779344809E+02  0.51136264041E+02  0.00000000000E+00 0. -1.
<scales pt_clust_5="13000.00000" pt_clust_6="13000.00000" pt_clust_7="13000.00000" pt_clust_8="13000.00000" pt_clust_9="40.06236"></scales>
<clustering>
<clus scale="   40.062">  2  9  1 -1</clus>
<clus scale="   81.821">  5  6 -1 -1</clus>
<clus scale="   90.554">  7  8 -1 -1</clus>
<clus scale="   95.782">  1  5  2 -1</clus>
<clus scale="   40.062">  2  5  1 -1</clus>
</clustering>
</event>
<event>
 9    1  0.3197504E-005  0.9883804E+02  0.7546771E-02  0.1289046E+00
         21   -1    0    0  501  502  0.00000000000E+00  0.00000000000E+00  0.69590057740E+02  0.69590057740E+02  0.00000000000E+00 0. -1.
          1   -1    0    0  502    0 -0.00000000000E+00 -0.00000000000E+00 -0.51917382321E+03  0.51917382321E+03  0.00000000000E+00 0. -1.
        -24    2    1    2    0    0 -0.20138305463E+02  0.24691899873E+02 -0.36481436648E+03  0.37459316295E+03  0.78837012048E+02 0.  0.
         23    2    1    2    0    0  0.40117519469E+02 -0.84958713066E+02 -0.72394916436E+02  0.14948389103E+03  0.90978082296E+02 0.  0.
         13    1    3    3    0    0  0.24704891909E+02  0.30919455664E+02 -0.18242750778E+03  0.18667120832E+03  0.00000000000E+00 0. -1.
        -14    1    3    3    0    0 -0.44843197372E+02 -0.62275557910E+01 -0.18238685871E+03  0.18792195463E+03  0.00000000000E+00 0.  1.
        -11    1    4    4    0    0  0.62135222129E+02 -0.72042520191E+02 -0.29565526195E+02  0.99624449226E+02  0.00000000000E+00 0. -1.
         11    1    4    4    0    0 -0.22017702660E+02 -0.12916192876E+02 -0.42829390241E+02  0.49859441806E+02  0.00000000000E+00 0.  1.
          2    1    1    2  501    0 -0.19979214006E+02  0.60266813194E+02 -0.12374482550E+02  0.64686826968E+02  0.00000000000E+00 0. -1.
<scales pt_clust_5="13000.00000" pt_clust_6="13000.00000" pt_clust_7="13000.00000" pt_clust_8="13000.00000" pt_clust_9="63.49219"></scales>
<clustering>
<clus scale="   63.492">  1  9  2 -1</clus>
<clus scale="   78.837">  5  6 -1 -1</clus>
<clus scale="   87.791">  2  5  1 -1</clus>
<clus scale="   90.978">  7  8 -1 -1</clus>
<clus scale="   63.492">  1  5  2 -1</clus>
</clustering>
</event>
<event>
 9    1  0.3197504E-005  0.2108825E+03  0.7546771E-02  0.1142128E+00
         21   -1    0    0  501  502  0.00000000000E+00  0.00000000000E+00  0.68918665470E+03  0.68918665470E+03  0.00000000000E+00 0.  1.
         -2   -1    0    0    0  501 -0.00000000000E+00 -0.00000000000E+00 -0.13339301939E+03  0.13339301939E+03  0.00000000000E+00 0.  1.
         23    2    1    2    0    0 -0.10478182430E+03  0.17165270092E+03 -0.68412023094E+00  0.22132327843E+03  0.92410200285E+02 0.  0.
        -24    2    1    2    0    0  0.79533345349E+02 -0.12811478806E+03  0.35092541328E+03  0.38963219818E+03  0.76978258158E+02 0.  0.
         11    1    4    4    0    0  0.74138724789E+02 -0.56360958202E+02  0.15397109959E+03  0.17994501280E+03  0.00000000000E+00 0. -1.
        -12    1    4    4    0    0  0.53946205601E+01 -0.71753829857E+02  0.19695431370E+03  0.20968718538E+03  0.00000000000E+00 0.  1.
        -11    1    3    3    0    0 -0.31215343661E+02 -0.17249739550E+01  0.95979433217E+01  0.32703115005E+02  0.00000000000E+00 0. -1.
         11    1    3    3    0    0 -0.73566480641E+02  0.17337767488E+03 -0.10282063553E+02  0.18862016343E+03  0.00000000000E+00 0.  1.
         -1    1    1    2    0  502  0.25248478953E+02 -0.43537912866E+02  0.20555234226E+03  0.21162419747E+03  0.00000000000E+00 0.  1.
<scales pt_clust_5="13000.00000" pt_clust_6="13000.00000" pt_clust_7="13000.00000" pt_clust_8="13000.00000" pt_clust_9="50.32927"></scales>
<clustering>
<clus scale="   50.329">  1  9  2 -1</clus>
<clus scale="   76.978">  5  6 -1 -1</clus>
<clus scale="   92.410">  7  8 -1 -1</clus>
<clus scale="  204.591">  1  5  2 -1</clus>
<clus scale="   50.329">  1  5  2 -1</clus>
</clustering>
</event>
<event>
 9    1  0.3197504E-005  0.9982756E+02  0.7546771E-02  0.1286907E+00
         21   -1    0    0  501  502  0.00000000000E+00  0.00000000000E+00  0.71522316852E+02  0.71522316852E+02  0.00000000000E+00 0. -1.
          1   -1    0    0  502    0 -0.00000000000E+00 -0.00000000000E+00 -0.43673198608E+03  0.43673198608E+03  0.00000000000E+00 0. -1.
         23    2    1    2    0    0 -0.14678289829E+02  0.34700964334E+02 -0.38045284403E+03  0.39351926996E+03  0.93238619580E+02 0.  0.
        -24    2    1    2    0    0  0.20626210103E+02 -0.10727882792E+02  0.25123280053E+02  0.88132347507E+02  0.81213320730E+02 0.  0.
         11    1    4    4    0    0  0.17350864516E+01  0.34616208528E+02  0.15982674767E+02  0.38167241328E+02  0.00000000000E+00 0. -1.
        -12    1    4    4    0    0  0.18891123651E+02 -0.45344091320E+02  0.91406052857E+01  0.49965106179E+02  0.00000000000E+00 0.  1.
        -13    1    3    3    0    0  0.33621830477E+02  0.32061313624E+02 -0.12133701019E+03  0.12992700011E+03  0.00000000000E+00 0.  1.
         13    1    3    3    0    0 -0.48300120305E+02  0.26396507096E+01 -0.25911583385E+03  0.26359226986E+03  0.00000000000E+00 0. -1.
          2    1    1    2  501    0 -0.59479202743E+01 -0.23973081542E+02 -0.98801052505E+01  0.26602685465E+02  0.00000000000E+00 0. -1.
<scales pt_clust_5="13000.00000" pt_clust_6="13000.00000" pt_clust_7="13000.00000" pt_clust_8="13000.00000" pt_clust_9="24.69993"></scales>
<clustering>
<clus scale="   24.700">  1  9  2 -1</clus>
<clus scale="   81.213">  5  6 -1 -1</clus>
<clus scale="   88.700">  1  5  2 -1</clus>
<clus scale="   93.239">  7  8 -1 -1</clus>
<clus scale="   24.700">  1  5  2 -1</clus>
</clustering>
</event>
<event>
 9    1  0.3197504E-005  0.9497358E+02  0.7546771E-02  0.1298072E+00
         21   -1    0    0  501  502  0.00000000000E+00  0.00000000000E+00  0.12180719250E+03  0.12180719250E+03  0.00000000000E+00 0.  1.
          1   -1    0    0  502    0 -0.00000000000E+00 -0.00000000000E+00 -0.14742435191E+03  0.14742435191E+03  0.00000000000E+00 0. -1.
        -24    2    1    2    0    0 -0.25665710916E+02 -0.86619995915E+01 -0.87964556935E+02  0.12134796942E+03  0.79081018278E+02 0.  0.
         23    2    1    2    0    0  0.12835097672E+02  0.39072845530E+02  0.55274600016E+02  0.11412755847E+03  0.90985664833E+02 0.  0.
         13    1    3    3    0    0 -0.52591963755E+02 -0.13957487164E+01 -0.72125754778E+02  0.89274785177E+02  0.00000000000E+00 0. -1.
        -14    1    3    3    0    0  0.26926252839E+02 -0.72662508752E+01 -0.15838802157E+02  0.32073184243E+02  0.00000000000E+00 0.  1.
        -13    1    4    4    0    0 -0.29871154478E+02  0.47396545162E+02  0.26597884530E+02  0.62017463868E+02  0.00000000000E+00 0.  1.
         13    1    4    4    0    0  0.42706252150E+02 -0.83236996324E+01  0.28676715486E+02  0.52110094601E+02  0.00000000000E+00 0. -1.
          2    1    1    2  501    0  0.12830613245E+02 -0.30410845938E+02  0.70727975110E+01  0.33756016524E+02  0.00000000000E+00 0. -1.
<scales pt_clust_5="13000.00000" pt_clust_6="13000.00000" pt_clust_7="13000.00000" pt_clust_8="13000.00000" pt_clust_9="33.00673"></scales>
<clustering>
<clus scale="   33.007">  1  9  2 -1</clus>
<clus scale="   79.081">  5  6 -1 -1</clus>
<clus scale="   83.638">  2  5  1 -1</clus>
<clus scale="   90.986">  7  8 -1 -1</clus>
<clus scale="   33.007">  1  5  2 -1</clus>
</clustering>
</event>
<event>
 9    1  0.3197504E-005  0.9786836E+02  0.7546771E-02  0.1300672E+00
          3   -1    0    0  502    0 -0.00000000000E+00  0.00000000000E+00  0.13840801724E+03  0.13840801724E+03  0.00000000000E+00 0. -1.
         21   -1    0    0  501  502  0.00000000000E+00 -0.00000000000E+00 -0.13467991555E+03  0.13467991555E+03  0.00000000000E+00 0.  1.
         23    2    1    2    0    0  0.24476646683E+02 -0.41184763233E+02  0.86901033422E+02  0.13476689646E+03  0.91186818213E+02 0.  0.
        -24    2    1    2    0    0  0.42450549416E+01  0.12721125458E+02 -0.30169795565E+02  0.71654348526E+02  0.63594666237E+02 0.  0.
         13    1    4    4    0    0 -0.20347428721E+02 -0.14558493447E+02 -0.15055952798E+01  0.25064604608E+02  0.00000000000E+00 0. -1.
        -14    1    4    4    0    0  0.24592483663E+02  0.27279618905E+02 -0.28664200286E+02  0.46589743918E+02  0.00000000000E+00 0.  1.
        -13    1    3    3    0    0  0.23030239396E+02  0.26603777251E+02  0.30787528694E+02  0.46754944271E+02  0.00000000000E+00 0.  1.
         13    1    3    3    0    0  0.14464072876E+01 -0.67788540484E+02  0.56113504728E+02  0.88011952188E+02  0.00000000000E+00 0. -1.
          4    1    1    2  501    0 -0.28721701625E+02  0.28463637775E+02 -0.53003136169E+02  0.66666687809E+02  0.00000000000E+00 0. -1.
<scales pt_clust_5="13000.00000" pt_clust_6="13000.00000" pt_clust_7="13000.00000" pt_clust_8="13000.00000" pt_clust_9="40.43655"></scales>
<clustering>
<clus scale="   40.437">  2  9  1 -1</clus>
<clus scale="   63.595">  5  6 -1 -1</clus>
<clus scale="   72.852">  2  5  1 -1</clus>
<clus scale="   91.187">  7  8 -1 -1</clus>
<clus scale="   40.437">  2  5  1 -1</clus>
</clustering>
</event>
<event>
 9    1  0.3197504E-005  0.9347014E+02  0.7546771E-02  0.1297900E+00
          3   -1    0    0  502    0 -0.00000000000E+00  0.00000000000E+00  0.19277242843E+03  0.19277242843E+03  0.00000000000E+00 0. -1.
         21   -1    0    0  501  502  0.00000000000E+00 -0.00000000000E+00 -0.25681758413E+03  0.25681758413E+03  0.00000000000E+00 0. -1.
         23    2    1    2    0    0  0.44879090684E+01  0.36877195305E+02  0.12019062983E+03  0.15496754573E+03  0.90493557064E+02 0.  0.
        -24    2    1    2    0    0 -0.49270913998E+02  0.38896373009E+02 -0.26636478662E+01  0.92841416279E+02  0.68351172319E+02 0.  0.
         13    1    4    4    0    0 -0.33057632873E+02  0.57284613974E+01 -0.31481079490E+02  0.46007398612E+02  0.00000000000E+00 0. -1.
        -14    1    4    4    0    0 -0.16213281125E+02  0.33167911612E+02  0.28817431624E+02  0.46834017668E+02  0.00000000000E+00 0.  1.
        -13    1    3    3    0    0  0.27036368970E+02 -0.21947494704E+02  0.42531412084E+02  0.54968889244E+02  0.00000000000E+00 0.  1.
         13    1    3    3    0    0 -0.22548459902E+02  0.58824690009E+02  0.77659217744E+02  0.99998656487E+02  0.00000000000E+00 0. -1.
          4    1    1    2  501    0  0.44783004929E+02 -0.75773568314E+02 -0.18157213766E+03  0.20178105055E+03  0.00000000000E+00 0. -1.
<scales pt_clust_5="13000.00000" pt_clust_6="13000.00000" pt_clust_7="13000.00000" pt_clust_8="13000.00000" pt_clust_9="88.01790"></scales>
<clustering>
<clus scale="   68.351">  5  6 -1 -1</clus>
<clus scale="   88.018">  2  9  1 -1</clus>
<clus scale="   88.018">  2  5  1 -1</clus>
<clus scale="   90.494">  7  8 -1 -1</clus>
<clus scale="   88.018">  2  5  1 -1</clus>
</clustering>
</event>
<event>
 9    1  0.3197504E-005  0.1380921E+03  0.7546771E-02  0.1217783E+00
         21   -1    0    0  501  502  0.00000000000E+00  0.00000000000E+00  0.17316644647E+03  0.17316644647E+03  0.00000000000E+00 0. -1.
          1   -1    0    0  502    0 -0.00000000000E+00 -0.00000000000E+00 -0.30536604988E+03  0.30536604988E+03  0.00000000000E+00 0. -1.
        -24    2    1    2    0    0  0.10017319900E+03  0.73217923386E+02 -0.20069791162E+03  0.24980860020E+03  0.82031401950E+02 0.  0.
         23    2    1    2    0    0  0.54083392355E+01 -0.62707900471E+02  0.50217652958E+02  0.12105726179E+03  0.90396443785E+02 0.  0.
         13    1    3    3    0    0  0.21111783174E+02  0.62679234953E+02 -0.67129924089E+02  0.94238105835E+02  0.00000000000E+00 0. -1.
        -14    1    3    3    0    0  0.79061415824E+02  0.10538688433E+02 -0.13356798753E+03  0.15557049437E+03  0.00000000000E+00 0.  1.
        -11    1    4    4    0    0 -0.47656858178E+01 -0.35038598845E+02 -0.22962152278E+02  0.42162490529E+02  0.00000000000E+00 0.  1.
         11    1    4    4    0    0  0.10174025053E+02 -0.27669301626E+02  0.73179805236E+02  0.78894771263E+02  0.00000000000E+00 0. -1.
          2    1    1    2  501    0 -0.10558153823E+03 -0.10510022915E+02  0.18280655250E+02  0.10766663436E+03  0.00000000000E+00 0. -1.
<scales pt_clust_5="13000.00000" pt_clust_6="13000.00000" pt_clust_7="13000.00000" pt_clust_8="13000.00000" pt_clust_9="106.10335"></scales>
<clustering>
<clus scale="   82.031">  5  6 -1 -1</clus>
<clus scale="   90.396">  7  8 -1 -1</clus>
<clus scale="  106.103">  1  9  2 -1</clus>
<clus scale="  132.767">  2  5  1 -1</clus>
<clus scale="  106.103">  1  5  2 -1</clus>
</clustering>
</event>
<event>
 9    1  0.3197504E-005  0.9752035E+02  0.7546771E-02  0.1293785E+00
          3   -1    0    0  502    0 -0.00000000000E+00  0.00000000000E+00  0.83737456193E+02  0.83737456193E+02  0.00000000000E+00 0. -1.
         21   -1    0    0  501  502  0.00000000000E+00 -0.00000000000E+00 -0.21144223282E+03  0.21144223282E+03  0.00000000000E+00 0.  1.
        -24    2    1    2    0    0 -0.21956402832E+01 -0.12850126058E+01 -0.25455220510E+02  0.82906923457E+02  0.78861382262E+02 0.  0.
         23    2    1    2    0    0  0.65505211068E+02 -0.18990662475E+02 -0.43626862324E+02  0.12363967365E+03  0.93444570983E+02 0.  0.
         11    1    3    3    0    0 -0.30233801447E+02 -0.87346544940E+00  0.14938373206E+02  0.33734265752E+02  0.00000000000E+00 0. -1.
        -12    1    3    3    0    0  0.28038161163E+02 -0.41154715639E+00 -0.40393593716E+02  0.49172657705E+02  0.00000000000E+00 0.  1.
        -11    1    4    4    0    0 -0.23959641344E+02 -0.36060208395E+01 -0.14811447579E+02  0.28398006603E+02  0.00000000000E+00 0.  1.
         11    1    4    4    0    0  0.89464852412E+02 -0.15384641636E+02 -0.28815414745E+02  0.95241667049E+02  0.00000000000E+00 0. -1.
          4    1    1    2  501    0 -0.63309570785E+02  0.20275675081E+02 -0.58622693793E+02  0.88633091905E+02  0.00000000000E+00 0. -1.
<scales pt_clust_5="13000.00000" pt_clust_6="13000.00000" pt_clust_7="13000.00000" pt_clust_8="13000.00000" pt_clust_9="66.47710"></scales>
<clustering>
<clus scale="   66.477">  2  9  1 -1</clus>
<clus scale="   78.861">  5  6 -1 -1</clus>
<clus scale="   83.651">  1  5  2 -1</clus>
<clus scale="   93.445">  7  8 -1 -1</clus>
<clus scale="   66.477">  2  5  1 -1</clus>
</clustering>
</event>
<event>
 9    1  0.3197504E-005  0.2011951E+03  0.7546771E-02  0.1178345E+00
         21   -1    0    0  501  502  0.00000000000E+00  0.00000000000E+00  0.45099972756E+02  0.45099972756E+02  0.00000000000E+00 0.  1.
         -2   -1    0    0    0  501 -0.00000000000E+00 -0.00000000000E+00 -0.18552787917E+04  0.18552787917E+04  0.00000000000E+00 0.  1.
        -24    2    1    2    0    0 -0.58131133170E+02  0.16538965526E+02 -0.37595442543E+03  0.38939081809E+03  0.81429191249E+02 0.  0.
         23    2    1    2    0    0 -0.89732512091E+02  0.14746065221E+03 -0.30489097778E+03  0.36026925959E+03  0.83897934399E+02 0.  0.
         13    1    3    3    0    0 -0.42189060126E+02  0.45301102977E+02 -0.30455110318E+03  0.31077882999E+03  0.00000000000E+00 0. -1.
        -14    1    3    3    0    0 -0.15942073044E+02 -0.28762137451E+02 -0.71403322250E+02  0.78611988094E+02  0.00000000000E+00 0.  1.
        -13    1    4    4    0    0 -0.67054002235E+02  0.92229072397E+02 -0.26492107857E+03  0.28841917218E+03  0.00000000000E+00 0.  1.
         13    1    4    4    0    0 -0.22678509857E+02  0.55231579813E+02 -0.39969899217E+02  0.71850087414E+02  0.00000000000E+00 0. -1.
         -1    1    1    2    0  502  0.14786364526E+03 -0.16399961774E+03 -0.11293334157E+04  0.11507186867E+04  0.00000000000E+00 0.  1.
<scales pt_clust_5="13000.00000" pt_clust_6="13000.00000" pt_clust_7="13000.00000" pt_clust_8="13000.00000" pt_clust_9="182.86782"></scales>
<clustering>
<clus scale="   81.429">  5  6 -1 -1</clus>
<clus scale="   83.898">  7  8 -1 -1</clus>
<clus scale="  101.407">  2  5  1 -1</clus>
<clus scale="  182.868">  1  9  2 -1</clus>
<clus scale="  182.868">  1  5  2 -1</clus>
</clustering>
</event>
<event>
 9    1  0.3197504E-005  0.1100622E+03  0.7546771E-02  0.1262471E+00
         21   -1    0    0  501  502  0.00000000000E+00  0.00000000000E+00  0.81478171534E+02  0.81478171534E+02  0.00000000000E+00 0. -1.
          1   -1    0    0  502    0 -0.00000000000E+00 -0.00000000000E+00 -0.44583039321E+03  0.44583039321E+03  0.00000000000E+00 0. -1.
        -24    2    1    2    0    0 -0.30851040799E+02  0.59464988860E+02 -0.30386549957E+03  0.32122384309E+03  0.79766182850E+02 0.  0.
         23    2    1    2    0    0  0.61167319314E+02 -0.68716805512E+02  0.12896578168E+02  0.12614861208E+03  0.85344655888E+02 0.  0.
         11    1    3    3    0    0 -0.45299866903E+02  0.71517505197E+02 -0.26165973826E+03  0.27501390896E+03  0.00000000000E+00 0. -1.
        -12    1    3    3    0    0  0.14448826104E+02 -0.12052516337E+02 -0.42205761303E+02  0.46209934138E+02  0.00000000000E+00 0.  1.
        -11    1    4    4    0    0  0.51729971084E+02 -0.11976415637E+02 -0.23515471635E+02  0.58072384539E+02  0.00000000000E+00 0.  1.
         11    1    4    4    0    0  0.94373482297E+01 -0.56740389875E+02  0.36412049803E+02  0.68076227537E+02  0.00000000000E+00 0. -1.
          2    1    1    2  501    0 -0.30316278515E+02  0.92518166516E+01 -0.73383300279E+02  0.79936109576E+02  0.00000000000E+00 0. -1.
<scales pt_clust_5="13000.00000" pt_clust_6="13000.00000" pt_clust_7="13000.00000" pt_clust_8="13000.00000" pt_clust_9="31.69659"></scales>
<clustering>
<clus scale="   31.697">  1  9  2 -1</clus>
<clus scale="   79.766">  5  6 -1 -1</clus>
<clus scale="   85.345">  7  8 -1 -1</clus>
<clus scale="  105.795">  2  5  1 -1</clus>
<clus scale="   31.697">  1  5  2 -1</clus>
</clustering>
</event>
<event>
 9    1  0.4038527E-005  0.9561998E+02  0.7546771E-02  0.1296896E+00
          1   -1    0    0  502    0 -0.00000000000E+00  0.00000000000E+00  0.16244636230E+03  0.16244636230E+03  0.00000000000E+00 0. -1.
         21   -1    0    0  501  502  0.00000000000E+00 -0.00000000000E+00 -0.15004725148E+03  0.15004725148E+03  0.00000000000E+00 0.  1.
         23    2    1    2    0    0 -0.83842989744E+01 -0.27275107986E+02  0.12148865248E+03  0.15513139524E+03  0.92152206279E+02 0.  0.
        -24    2    1    2    0    0  0.19366441825E+02  0.47283615539E+01 -0.58554300116E+02  0.10094614039E+03  0.79775314010E+02 0.  0.
         13    1    4    4    0    0 -0.59676450762E+01 -0.32730492985E+02 -0.10332236233E+02  0.34837523798E+02  0.00000000000E+00 0. -1.
        -14    1    4    4    0    0  0.25334086901E+02  0.37458854539E+02 -0.48222063883E+02  0.66108616591E+02  0.00000000000E+00 0.  1.
        -13    1    3    3    0    0 -0.41674284351E+02  0.10560616483E+02  0.75620887652E+02  0.86987305085E+02  0.00000000000E+00 0.  1.
         13    1    3    3    0    0  0.33289985377E+02 -0.37835724469E+02  0.45867764832E+02  0.68144090156E+02  0.00000000000E+00 0. -1.
          2    1    1    2  501    0 -0.10982142851E+02  0.22546746432E+02 -0.50535241545E+02  0.56416078154E+02  0.00000000000E+00 0. -1.
<scales pt_clust_5="13000.00000" pt_clust_6="13000.00000" pt_clust_7="13000.00000" pt_clust_8="13000.00000" pt_clust_9="25.07914"></scales>
<clustering>
<clus scale="   25.079">  2  9  1 -1</clus>
<clus scale="   79.775">  5  6 -1 -1</clus>
<clus scale="   83.757">  2  5  1 -1</clus>
<clus scale="   92.152">  7  8 -1 -1</clus>
<clus scale="   25.079">  2  5  1 -1</clus>
</clustering>
</event>
<event>
 9    1  0.3197504E-005  0.1017626E+03  0.7546771E-02  0.1280918E+00
         -2   -1    0    0    0  501 -0.00000000000E+00  0.00000000000E+00  0.11056949904E+03  0.11056949904E+03  0.00000000000E+00 0.  1.
         21   -1    0    0  501  502  0.00000000000E+00 -0.00000000000E+00 -0.14015419965E+03  0.14015419965E+03  0.00000000000E+00 0.  1.
        -24    2    1    2    0    0 -0.49258549810E+02 -0.31281206270E+02  0.37472590907E+02  0.10646385792E+03  0.80780191747E+02 0.  0.
         23    2    1    2    0    0  0.20972362248E+02  0.14887172137E+02 -0.39617734084E+02  0.10157726735E+03  0.89927240118E+02 0.  0.
         13    1    3    3    0    0 -0.12619534999E+01  0.22996283602E+02 -0.33922979149E+01  0.23279374375E+02  0.00000000000E+00 0. -1.
        -14    1    3    3    0    0 -0.47996596311E+02 -0.54277489871E+02  0.40864888822E+02  0.83184483545E+02  0.00000000000E+00 0.  1.
        -13    1    4    4    0    0 -0.18993742145E+01  0.27383573583E+02 -0.61627463334E+02  0.67464153159E+02  0.00000000000E+00 0.  1.
         13    1    4    4    0    0  0.22871736462E+02 -0.12496401446E+02  0.22009729250E+02  0.34113114187E+02  0.00000000000E+00 0. -1.
         -1    1    1    2    0  502  0.28286187563E+02  0.16394034133E+02 -0.27439557433E+02  0.42682573424E+02  0.00000000000E+00 0.  1.
<scales pt_clust_5="13000.00000" pt_clust_6="13000.00000" pt_clust_7="13000.00000" pt_clust_8="13000.00000" pt_clust_9="32.69362"></scales>
<clustering>
<clus scale="   32.694">  2  9  1 -1</clus>
<clus scale="   80.780">  5  6 -1 -1</clus>
<clus scale="   89.927">  7  8 -1 -1</clus>
<clus scale="   93.777">  1  5  2 -1</clus>
<clus scale="   32.694">  2  5  1 -1</clus>
</clustering>
</event>
<event>
 9    1  0.3197504E-005  0.1159359E+03  0.7546771E-02  0.1253565E+00
         21   -1    0    0  501  502  0.00000000000E+00  0.00000000000E+00  0.13311501709E+03  0.13311501709E+03  0.00000000000E+00 0.  1.
          1   -1    0    0  502    0 -0.00000000000E+00 -0.00000000000E+00 -0.17117877383E+03  0.17117877383E+03  0.00000000000E+00 0. -1.
         23    2    1    2    0    0 -0.21220300877E+02 -0.78059873102E+02 -0.10896334192E+03  0.16193319907E+03  0.88349907306E+02 0.  0.
        -24    2    1    2    0    0  0.11425641235E+02  0.57679753029E+02  0.42760666216E+02  0.10626234518E+03  0.77496530506E+02 0.  0.
         11    1    4    4    0    0  0.21920586957E+02  0.22469865689E+02 -0.17309392715E+02  0.35847204533E+02  0.00000000000E+00 0. -1.
        -12    1    4    4    0    0 -0.10494945722E+02  0.35209887340E+02  0.60070058931E+02  0.70415140646E+02  0.00000000000E+00 0.  1.
        -13    1    3    3    0    0 -0.39884115354E+02 -0.59684438735E+02 -0.28363546757E+02  0.77184620679E+02  0.00000000000E+00 0. -1.
         13    1    3    3    0    0  0.18663814477E+02 -0.18375434367E+02 -0.80599795165E+02  0.84748578393E+02  0.00000000000E+00 0.  1.
          2    1    1    2  501    0  0.97946596418E+01  0.20380120073E+02  0.28138918968E+02  0.36098246666E+02  0.00000000000E+00 0. -1.
<scales pt_clust_5="13000.00000" pt_clust_6="13000.00000" pt_clust_7="13000.00000" pt_clust_8="13000.00000" pt_clust_9="22.61160"></scales>
<clustering>
<clus scale="   22.612">  1  9  2 -1</clus>
<clus scale="   77.497">  5  6 -1 -1</clus>
<clus scale="   88.350">  7  8 -1 -1</clus>
<clus scale="  107.894">  1  5  2 -1</clus>
<clus scale="   22.612">  1  5  2 -1</clus>
</clustering>
</event>
<event>
 9    1  0.3197504E-005  0.1626400E+03  0.7546771E-02  0.1187499E+00
         21   -1    0    0  501  502  0.00000000000E+00  0.00000000000E+00  0.31098039341E+03  0.31098039341E+03  0.00000000000E+00 0.  1.
         -2   -1    0    0    0  501 -0.00000000000E+00 -0.00000000000E+00 -0.13528150633E+03  0.13528150633E+03  0.00000000000E+00 0.  1.
         23    2    1    2    0    0  0.11480948371E+03 -0.92972714260E+01  0.81028587354E+02  0.16746528070E+03  0.90616397331E+02 0.  0.
        -24    2    1    2    0    0 -0.15757818274E+03  0.43939077316E+02  0.12052572732E+03  0.21798774247E+03  0.78934648482E+02 0.  0.
         11    1    4    4    0    0 -0.64927505909E+02  0.91860750020E+01  0.48377796347E+01  0.65752331588E+02  0.00000000000E+00 0. -1.
        -12    1    4    4    0    0 -0.92650676832E+02  0.34753002314E+02  0.11568794769E+03  0.15223541089E+03  0.00000000000E+00 0.  1.
        -13    1    3    3    0    0  0.11382359209E+03  0.20134698526E+02  0.54356405058E+02  0.12773345283E+03  0.00000000000E+00 0.  1.
         13    1    3    3    0    0  0.98589162306E+00 -0.29431969952E+02  0.26672182296E+02  0.39731827871E+02  0.00000000000E+00 0. -1.
         -1    1    1    2    0  502  0.42768699027E+02 -0.34641805890E+02 -0.25855427596E+02  0.60808876555E+02  0.00000000000E+00 0.  1.
<scales pt_clust_5="13000.00000" pt_clust_6="13000.00000" pt_clust_7="13000.00000" pt_clust_8="13000.00000" pt_clust_9="55.03834"></scales>
<clustering>
<clus scale="   55.038">  1  9  2 -1</clus>
<clus scale="   78.935">  5  6 -1 -1</clus>
<clus scale="   90.616">  7  8 -1 -1</clus>
<clus scale="  156.432">  1  5  2 -1</clus>
<clus scale="   55.038">  1  5  2 -1</clus>
</clustering>
</event>
<event>
 9    1  0.3197504E-005  0.1313970E+03  0.7546771E-02  0.1248644E+00
         21   -1    0    0  501  502  0.00000000000E+00  0.00000000000E+00  0.18337145471E+03  0.18337145471E+03  0.00000000000E+00 0.  1.
         -4   -1    0    0    0  501 -0.00000000000E+00 -0.00000000000E+00 -0.16010984770E+03  0.16010984770E+03  0.00000000000E+00 0.  1.
        -24    2    1    2    0    0 -0.36895985729E+01 -0.22821236921E+02  0.14833044846E+02  0.83089570935E+02  0.78418337055E+02 0.  0.
         23    2    1    2    0    0 -0.75382096213E+02 -0.47868897810E+02  0.61444616657E+02  0.14181631202E+03  0.91446889674E+02 0.  0.
         13    1    3    3    0    0 -0.39097890882E+02 -0.30711796942E+01  0.16414341226E+02  0.42514795237E+02  0.00000000000E+00 0. -1.
        -14    1    3    3    0    0  0.35408292309E+02 -0.19750057227E+02 -0.15812963800E+01  0.40574775698E+02  0.00000000000E+00 0.  1.
        -13    1    4    4    0    0 -0.27727833159E+02  0.23808791559E+02  0.85691002676E+00  0.36557155004E+02  0.00000000000E+00 0. -1.
         13    1    4    4    0    0 -0.47654263054E+02 -0.71677689369E+02  0.60587706630E+02  0.10525915701E+03  0.00000000000E+00 0.  1.
         -3    1    1    2    0  502  0.79071694786E+02  0.70690134731E+02 -0.53016054490E+02  0.11857541945E+03  0.00000000000E+00 0.  1.
<scales pt_clust_5="13000.00000" pt_clust_6="13000.00000" pt_clust_7="13000.00000" pt_clust_8="13000.00000" pt_clust_9="94.35382"></scales>
<clustering>
<clus scale="   78.418">  5  6 -1 -1</clus>
<clus scale="   81.755">  2  5  1 -1</clus>
<clus scale="   91.447">  7  8 -1 -1</clus>
<clus scale="   94.354">  1  9  2 -1</clus>
<clus scale="   94.354">  1  5  2 -1</clus>
</clustering>
</event>
<event>
 9    1  0.3197504E-005  0.9946718E+02  0.7546771E-02  0.1292077E+00
          1   -1    0    0  502    0 -0.00000000000E+00  0.00000000000E+00  0.21991761177E+03  0.21991761177E+03  0.00000000000E+00 0. -1.
         21   -1    0    0  501  502  0.00000000000E+00 -0.00000000000E+00 -0.67194419144E+02  0.67194419144E+02  0.00000000000E+00 0.  1.
         23    2    1    2    0    0 -0.24072619826E+02  0.98059994431E+01  0.11169759972E+03  0.15057405671E+03  0.97573275641E+02 0.  0.
        -24    2    1    2    0    0  0.46508457094E+01 -0.16133434825E+02  0.65948427301E+02  0.10431392383E+03  0.79058722200E+02 0.  0.
         13    1    4    4    0    0  0.11793928416E+02  0.22629286822E+02  0.59011720264E+02  0.64292802848E+02  0.00000000000E+00 0. -1.
        -14    1    4    4    0    0 -0.71430827069E+01 -0.38762721647E+02  0.69367070374E+01  0.40021120980E+02  0.00000000000E+00 0.  1.
        -11    1    3    3    0    0 -0.41317852794E+02 -0.33560978289E+02  0.48502971674E+02  0.72014182523E+02  0.00000000000E+00 0.  1.
         11    1    3    3    0    0  0.17245232968E+02  0.43366977733E+02  0.63194628049E+02  0.78559874185E+02  0.00000000000E+00 0. -1.
          2    1    1    2  501    0  0.19421774117E+02  0.63274353820E+01 -0.24922834397E+02  0.32224050378E+02  0.00000000000E+00 0. -1.
<scales pt_clust_5="13000.00000" pt_clust_6="13000.00000" pt_clust_7="13000.00000" pt_clust_8="13000.00000" pt_clust_9="20.42650"></scales>
<clustering>
<clus scale="   20.426">  2  9  1 -1</clus>
<clus scale="   79.059">  5  6 -1 -1</clus>
<clus scale="   81.385">  2  5  1 -1</clus>
<clus scale="   97.573">  7  8 -1 -1</clus>
<clus scale="   20.426">  2  5  1 -1</clus>
</clustering>
</event>
<event>
 9    1  0.4289455E-005  0.1065020E+03  0.7546771E-02  0.1270420E+00
          3   -1    0    0  502    0 -0.00000000000E+00  0.00000000000E+00  0.80001702816E+02  0.80001702816E+02  0.00000000000E+00 0. -1.
         21   -1    0    0  501  502  0.00000000000E+00 -0.00000000000E+00 -0.53737092100E+03  0.53737092100E+03  0.00000000000E+00 0. -1.
         23    2    1    2    0    0 -0.52528962177E+02 -0.20801566228E+02  0.30182464712E+02  0.11109799159E+03  0.90773264422E+02 0.  0.
        -24    2    1    2    0    0  0.55576137562E+02 -0.12905588826E+02 -0.39726391943E+03  0.40985192841E+03  0.83094646353E+02 0.  0.
         11    1    4    4    0    0  0.65574362119E+02 -0.36246082116E+02 -0.27838520429E+03  0.28829168806E+03  0.00000000000E+00 0. -1.
        -12    1    4    4    0    0 -0.99982245566E+01  0.23340493290E+02 -0.11887871514E+03  0.12156024036E+03  0.00000000000E+00 0.  1.
        -13    1    3    3    0    0 -0.45730553036E+02  0.27876165228E+02  0.26360018413E+00  0.53557759044E+02  0.00000000000E+00 0. -1.
         13    1    3    3    0    0 -0.67984091408E+01 -0.48677731455E+02  0.29918864528E+02  0.57540232543E+02  0.00000000000E+00 0.  1.
          4    1    1    2  501    0 -0.30471753853E+01  0.33707155054E+02 -0.90287763461E+02  0.96422703812E+02  0.00000000000E+00 0. -1.
<scales pt_clust_5="13000.00000" pt_clust_6="13000.00000" pt_clust_7="13000.00000" pt_clust_8="13000.00000" pt_clust_9="33.84461"></scales>
<clustering>
<clus scale="   33.845">  2  9  1 -1</clus>
<clus scale="   83.095">  5  6 -1 -1</clus>
<clus scale="   90.773">  7  8 -1 -1</clus>
<clus scale="  100.038">  2  5  1 -1</clus>
<clus scale="   33.845">  2  5  1 -1</clus>
</clustering>
</event>
<event>
 9    1  0.3197504E-005  0.1642320E+03  0.7546771E-02  0.1191968E+00
          1   -1    0    0  502    0 -0.00000000000E+00  0.00000000000E+00  0.65100402247E+03  0.65100402247E+03  0.00000000000E+00 0. -1.
         21   -1    0    0  501  502  0.00000000000E+00 -0.00000000000E+00 -0.12174341130E+03  0.12174341130E+03  0.00000000000E+00 0. -1.
         23    2    1    2    0    0 -0.99411922923E+02 -0.34938272514E+02  0.26625319071E+02  0.14018985291E+03  0.88548709414E+02 0.  0.
        -24    2    1    2    0    0  0.17086785558E+02  0.15081178017E+03  0.86686158100E+02  0.19299213625E+03  0.81824955671E+02 0.  0.
         11    1    4    4    0    0 -0.32581430116E+02  0.50527971467E+02  0.36595373934E+02  0.70383569690E+02  0.00000000000E+00 0. -1.
        -12    1    4    4    0    0  0.49668215674E+02  0.10028380870E+03  0.50090784167E+02  0.12260856656E+03  0.00000000000E+00 0.  1.
        -13    1    3    3    0    0 -0.44011135374E+02 -0.39002164571E+02  0.52571817012E+02  0.78879305410E+02  0.00000000000E+00 0.  1.
         13    1    3    3    0    0 -0.55400787550E+02  0.40638920568E+01 -0.25946497941E+02  0.61310547504E+02  0.00000000000E+00 0. -1.
          2    1    1    2  501    0  0.82325137365E+02 -0.11587350766E+03  0.41594913400E+03  0.43956544461E+03  0.00000000000E+00 0. -1.
<scales pt_clust_5="13000.00000" pt_clust_6="13000.00000" pt_clust_7="13000.00000" pt_clust_8="13000.00000" pt_clust_9="142.39677"></scales>
<clustering>
<clus scale="   81.825">  5  6 -1 -1</clus>
<clus scale="   88.549">  7  8 -1 -1</clus>
<clus scale="  137.638">  1  7  2 -1</clus>
<clus scale="  142.397">  2  9  1 -1</clus>
<clus scale="  142.397">  2  5  1 -1</clus>
</clustering>
</event>
<event>
 9    1  0.3197504E-005  0.2100174E+03  0.7546771E-02  0.1167140E+00
         21   -1    0    0  501  502  0.00000000000E+00  0.00000000000E+00  0.52850054594E+02  0.52850054594E+02  0.00000000000E+00 0.  1.
          1   -1    0    0  502    0 -0.00000000000E+00 -0.00000000000E+00 -0.14587019757E+04  0.14587019757E+04  0.00000000000E+00 0. -1.
        -24    2    1    2    0    0 -0.43850372259E+02  0.68543865927E+02 -0.26285579506E+03  0.28693722889E+03  0.81355317133E+02 0.  0.
         23    2    1    2    0    0  0.97484872588E+00 -0.21021005788E+03 -0.35620279481E+03  0.42402041812E+03  0.93400563106E+02 0.  0.
         11    1    3    3    0    0 -0.65572649090E+02  0.53688628918E+02 -0.22815444138E+03  0.24338588765E+03  0.00000000000E+00 0. -1.
        -12    1    3    3    0    0  0.21722276831E+02  0.14855237010E+02 -0.34701353673E+02  0.43551341243E+02  0.00000000000E+00 0.  1.
        -13    1    4    4    0    0 -0.58501864767E+01 -0.16845707687E+03 -0.19689388763E+03  0.25918953378E+03  0.00000000000E+00 0.  1.
         13    1    4    4    0    0  0.68250352026E+01 -0.41752981006E+02 -0.15930890718E+03  0.16483088435E+03  0.00000000000E+00 0. -1.
          2    1    1    2  501    0  0.42875523533E+02  0.14166619195E+03 -0.78679333127E+03  0.80059438332E+03  0.00000000000E+00 0. -1.
<scales pt_clust_5="13000.00000" pt_clust_6="13000.00000" pt_clust_7="13000.00000" pt_clust_8="13000.00000" pt_clust_9="188.10549"></scales>
<clustering>
<clus scale="   81.355">  5  6 -1 -1</clus>
<clus scale="   93.401">  7  8 -1 -1</clus>
<clus scale="  115.064">  2  5  1 -1</clus>
<clus scale="  188.105">  1  9  2 -1</clus>
<clus scale="  188.105">  1  5  2 -1</clus>
</clustering>
</event>
<event>
 9    1  0.3197504E-005  0.3491620E+03  0.7546771E-02  0.1112997E+00
          1   -1    0    0  502    0 -0.00000000000E+00  0.00000000000E+00  0.26491078670E+03  0.26491078670E+03  0.00000000000E+00 0. -1.
         21   -1    0    0  501  502  0.00000000000E+00 -0.00000000000E+00 -0.60467697393E+03  0.60467697393E+03  0.00000000000E+00 0.  1.
        -24    2    1    2    0    0  0.22140156566E+02  0.54300064739E+02  0.88200543855E+01  0.92904195907E+02  0.71517219565E+02 0.  0.
         23    2    1    2    0    0  0.32110968485E+03 -0.86442029245E+02 -0.21718300212E+03  0.40773862186E+03  0.92188248811E+02 0.  0.
         13    1    3    3    0    0  0.38328435410E+02  0.57327967235E+02  0.21372826967E+02  0.72196693282E+02  0.00000000000E+00 0. -1.
        -14    1    3    3    0    0 -0.16188278844E+02 -0.30279024961E+01 -0.12552772582E+02  0.20707502625E+02  0.00000000000E+00 0.  1.
        -11    1    4    4    0    0  0.19906727664E+03 -0.79836420875E+02 -0.17995380587E+03  0.27997322546E+03  0.00000000000E+00 0.  1.
         11    1    4    4    0    0  0.12204240821E+03 -0.66056083699E+01 -0.37229196253E+02  0.12776539640E+03  0.00000000000E+00 0. -1.
          2    1    1    2  501    0 -0.34324984142E+03  0.32141964507E+02 -0.13140323951E+03  0.36894494287E+03  0.00000000000E+00 0. -1.
<scales pt_clust_5="13000.00000" pt_clust_6="13000.00000" pt_clust_7="13000.00000" pt_clust_8="13000.00000" pt_clust_9="336.77228"></scales>
<clustering>
<clus scale="   71.517">  5  6 -1 -1</clus>
<clus scale="   92.188">  7  8 -1 -1</clus>
<clus scale="   92.485">  1  5  2 -1</clus>
<clus scale="  336.772">  2  9  1 -1</clus>
<clus scale="  336.772">  2  5  1 -1</clus>
</clustering>
</event>
<event>
 9    1  0.3197504E-005  0.2688785E+03  0.7546771E-02  0.1101923E+00
         21   -1    0    0  501  502  0.00000000000E+00  0.00000000000E+00  0.12466825211E+03  0.12466825211E+03  0.00000000000E+00 0. -1.
          1   -1    0    0  502    0 -0.00000000000E+00 -0.00000000000E+00 -0.43534575926E+03  0.43534575926E+03  0.00000000000E+00 0. -1.
        -24    2    1    2    0    0  0.84544772026E+02  0.13610372394E+02 -0.10072539273E+03  0.15478439869E+03  0.80495618659E+02 0.  0.
         23    2    1    2    0    0  0.10656289788E+03  0.23136907841E+02 -0.50947449764E+02  0.15392305192E+03  0.95946316063E+02 0.  0.
         11    1    3    3    0    0  0.30774645107E+02 -0.23277687964E+02 -0.75649148501E+02  0.84921865308E+02  0.00000000000E+00 0. -1.
        -12    1    3    3    0    0  0.53770126919E+02  0.36888060358E+02 -0.25076244230E+02  0.69862533382E+02  0.00000000000E+00 0.  1.
        -11    1    4    4    0    0  0.30638824324E+02  0.38780426851E+01 -0.67172319813E+02  0.73931707136E+02  0.00000000000E+00 0.  1.
         11    1    4    4    0    0  0.75924073553E+02  0.19258865156E+02  0.16224870049E+02  0.79991344782E+02  0.00000000000E+00 0. -1.
          2    1    1    2  501    0 -0.19110766990E+03 -0.36747280235E+02 -0.15900466466E+03  0.25130656076E+03  0.00000000000E+00 0. -1.
<scales pt_clust_5="13000.00000" pt_clust_6="13000.00000" pt_clust_7="13000.00000" pt_clust_8="13000.00000" pt_clust_9="194.60869"></scales>
<clustering>
<clus scale="   80.496">  5  6 -1 -1</clus>
<clus scale="   95.946">  7  8 -1 -1</clus>
<clus scale="  108.383">  5  7 -1 -1</clus>
<clus scale="  194.609">  1  9  2 -1</clus>
<clus scale="  194.609">  1  5  2 -1</clus>
</clustering>
</event>
<event>
 9    1  0.3197504E-005  0.9453576E+02  0.7546771E-02  0.1299955E+00
         -4   -1    0    0    0  501 -0.00000000000E+00  0.00000000000E+00  0.95880965737E+02  0.95880965737E+02  0.00000000000E+00 0.  1.
         21   -1    0    0  501  502  0.00000000000E+00 -0.00000000000E+00 -0.30217420948E+03  0.30217420948E+03  0.00000000000E+00 0.  1.
         23    2    1    2    0    0 -0.10165948228E+02 -0.20799580872E+02 -0.11724998356E+03  0.15102574228E+03  0.92332264778E+02 0.  0.
        -24    2    1    2    0    0 -0.22808990381E+02  0.18461020790E+02 -0.15311333620E+03  0.17493373209E+03  0.79354001593E+02 0.  0.
         11    1    4    4    0    0  0.18277299599E+02 -0.17234801600E+02 -0.23681535939E+02  0.34524096096E+02  0.00000000000E+00 0. -1.
        -12    1    4    4    0    0 -0.41086289980E+02  0.35695822389E+02 -0.12943180027E+03  0.14040963600E+03  0.00000000000E+00 0.  1.
        -11    1    3    3    0    0  0.11140757963E+02 -0.54139169269E+02 -0.74647562713E+02  0.92883931635E+02  0.00000000000E+00 0.  1.
         11    1    3    3    0    0 -0.21306706192E+02  0.33339588396E+02 -0.42602420846E+02  0.58141810645E+02  0.00000000000E+00 0. -1.
         -3    1    1    2    0  502  0.32974938610E+02  0.23385600827E+01  0.64070076019E+02  0.72095700847E+02  0.00000000000E+00 0.  1.
<scales pt_clust_5="13000.00000" pt_clust_6="13000.00000" pt_clust_7="13000.00000" pt_clust_8="13000.00000" pt_clust_9="33.05778"></scales>
<clustering>
<clus scale="   33.058">  2  9  1 -1</clus>
<clus scale="   79.354">  5  6 -1 -1</clus>
<clus scale="   81.907">  2  5  1 -1</clus>
<clus scale="   92.332">  7  8 -1 -1</clus>
<clus scale="   33.058">  2  5  1 -1</clus>
</clustering>
</event>
<event>
 9    1  0.3197504E-005  0.9750733E+02  0.7546771E-02  0.1285669E+00
         -2   -1    0    0    0  501 -0.00000000000E+00  0.00000000000E+00  0.14877092774E+03  0.14877092774E+03  0.00000000000E+00 0.  1.
         21   -1    0    0  501  502  0.00000000000E+00 -0.00000000000E+00 -0.13917658238E+03  0.13917658238E+03  0.00000000000E+00 0.  1.
        -24    2    1    2    0    0  0.45318178712E+02  0.17601966191E+02  0.86757000120E+02  0.13324014507E+03  0.88671261700E+02 0.  0.
         23    2    1    2    0    0 -0.20267791313E+02  0.13685813853E+02 -0.41217048386E+02  0.10086933291E+03  0.88756365279E+02 0.  0.
         13    1    3    3    0    0  0.92548955237E+01  0.22815561405E+02 -0.12423413318E+02  0.27577964607E+02  0.00000000000E+00 0. -1.
        -14    1    3    3    0    0  0.36063283189E+02 -0.52135952140E+01  0.99180413439E+02  0.10566218046E+03  0.00000000000E+00 0.  1.
        -11    1    4    4    0    0 -0.46856497703E+02  0.19172317007E+01  0.40477494611E+01  0.47070069365E+02  0.00000000000E+00 0. -1.
         11    1    4    4    0    0  0.26588706390E+02  0.11768582153E+02 -0.45264797847E+02  0.53799263540E+02  0.00000000000E+00 0.  1.
         -1    1    1    2    0  502 -0.25050387399E+02 -0.31287780044E+02 -0.35945606374E+02  0.53838032157E+02  0.00000000000E+00 0.  1.
<scales pt_clust_5="13000.00000" pt_clust_6="13000.00000" pt_clust_7="13000.00000" pt_clust_8="13000.00000" pt_clust_9="40.08051"></scales>
<clustering>
<clus scale="   40.081">  2  9  1 -1</clus>
<clus scale="   88.671">  5  6 -1 -1</clus>
<clus scale="   88.756">  7  8 -1 -1</clus>
<clus scale="   97.430">  1  5  2 -1</clus>
<clus scale="   40.081">  2  5  1 -1</clus>
</clustering>
</event>
<event>
 9    1  0.3197504E-005  0.1796435E+03  0.7546771E-02  0.1169164E+00
         21   -1    0    0  501  502  0.00000000000E+00  0.00000000000E+00  0.21711083335E+03  0.21711083335E+03  0.00000000000E+00 0. -1.
          1   -1    0    0  502    0 -0.00000000000E+00 -0.00000000000E+00 -0.20776836809E+03  0.20776836809E+03  0.00000000000E+00 0. -1.
         23    2    1    2    0    0 -0.14306978678E+03  0.23773109177E+02 -0.33002750964E+02  0.17269327227E+03  0.87747707134E+02 0.  0.
        -24    2    1    2    0    0  0.17726569424E+03 -0.31354239040E+02  0.68837749483E+02  0.20826909942E+03  0.78937743552E+02 0.  0.
         13    1    4    4    0    0  0.16007928208E+03 -0.44451772116E+02  0.79494602908E+02  0.18417580864E+03  0.00000000000E+00 0. -1.
        -14    1    4    4    0    0  0.17186412160E+02  0.13097533076E+02 -0.10656853424E+02  0.24093290778E+02  0.00000000000E+00 0.  1.
        -11    1    3    3    0    0 -0.62554821432E+02 -0.32942018474E+02 -0.85130399367E+01  0.71209227734E+02  0.00000000000E+00 0. -1.
         11    1    3    3    0    0 -0.80514965345E+02  0.56715127651E+02 -0.24489711027E+02  0.10148404453E+03  0.00000000000E+00 0.  1.
          2    1    1    2  501    0 -0.34195907466E+02  0.75811298631E+01 -0.26492533252E+02  0.43916829753E+02  0.00000000000E+00 0. -1.
<scales pt_clust_5="13000.00000" pt_clust_6="13000.00000" pt_clust_7="13000.00000" pt_clust_8="13000.00000" pt_clust_9="35.02620"></scales>
<clustering>
<clus scale="   35.026">  1  9  2 -1</clus>
<clus scale="   78.938">  5  6 -1 -1</clus>
<clus scale="   87.748">  7  8 -1 -1</clus>
<clus scale="  175.509">  1  5  2 -1</clus>
<clus scale="   35.026">  1  5  2 -1</clus>
</clustering>
</event>
<event>
 9    1  0.3197504E-005  0.9453948E+02  0.7546771E-02  0.1296768E+00
         -4   -1    0    0    0  501 -0.00000000000E+00  0.00000000000E+00  0.34441599805E+03  0.34441599805E+03  0.00000000000E+00 0.  1.
         21   -1    0    0  501  502  0.00000000000E+00 -0.00000000000E+00 -0.22319548700E+03  0.22319548700E+03  0.00000000000E+00 0.  1.
        -24    2    1    2    0    0 -0.15156483739E+02 -0.37532304545E+02  0.18450683993E+03  0.20510240179E+03  0.79911378130E+02 0.  0.
         23    2    1    2    0    0 -0.26054317908E+02  0.28699703993E+02  0.13161464048E+03  0.16310313335E+03  0.88191371621E+02 0.  0.
         13    1    3    3    0    0 -0.47902845042E+02 -0.25181226464E+02  0.12200142663E+03  0.13346581895E+03  0.00000000000E+00 0. -1.
        -14    1    3    3    0    0  0.32746361303E+02 -0.12351078081E+02  0.62505413300E+02  0.71636582834E+02  0.00000000000E+00 0.  1.
        -11    1    4    4    0    0 -0.40098543728E+02 -0.11836369017E+02  0.26318165515E+02  0.49402820534E+02  0.00000000000E+00 0.  1.
         11    1    4    4    0    0  0.14044225820E+02  0.40536073010E+02  0.10529647497E+03  0.11370031282E+03  0.00000000000E+00 0. -1.
         -3    1    1    2    0  502  0.41210801646E+02  0.88326005525E+01 -0.19490096936E+03  0.19940594991E+03  0.00000000000E+00 0.  1.
<scales pt_clust_5="13000.00000" pt_clust_6="13000.00000" pt_clust_7="13000.00000" pt_clust_8="13000.00000" pt_clust_9="42.14671"></scales>
<clustering>
<clus scale="   42.147">  2  9  1 -1</clus>
<clus scale="   79.911">  5  6 -1 -1</clus>
<clus scale="   86.867">  1  5  2 -1</clus>
<clus scale="   88.191">  7  8 -1 -1</clus>
<clus scale="   42.147">  2  5  1 -1</clus>
</clustering>
</event>
<event>
 9    1  0.3197504E-005  0.9487415E+02  0.7546771E-02  0.1297268E+00
         21   -1    0    0  501  502  0.00000000000E+00  0.00000000000E+00  0.10524388873E+03  0.10524388873E+03  0.00000000000E+00 0. -1.
          3   -1    0    0  502    0 -0.00000000000E+00 -0.00000000000E+00 -0.12273799387E+03  0.12273799387E+03  0.00000000000E+00 0. -1.
        -24    2    1    2    0    0  0.11479878577E+02  0.22679028600E+02 -0.26450180108E+02  0.88405367539E+02  0.80434886906E+02 0.  0.
         23    2    1    2    0    0 -0.36745885785E+02 -0.89786474722E+01 -0.18349292728E+02  0.99932415023E+02  0.90658230714E+02 0.  0.
         13    1    3    3    0    0  0.14973702053E+02  0.22277060166E+02 -0.54174150815E+02  0.60459224104E+02  0.00000000000E+00 0. -1.
        -14    1    3    3    0    0 -0.34938234763E+01  0.40196843467E+00  0.27723970707E+02  0.27946143434E+02  0.00000000000E+00 0.  1.
        -13    1    4    4    0    0  0.43269697253E+01 -0.38396713627E+02  0.12651289060E+02  0.40658152925E+02  0.00000000000E+00 0. -1.
         13    1    4    4    0    0 -0.41072855510E+02  0.29418066155E+02 -0.31000581788E+02  0.59274262098E+02  0.00000000000E+00 0.  1.
          4    1    1    2  501    0  0.25266007208E+02 -0.13700381128E+02  0.27305367695E+02  0.39644100044E+02  0.00000000000E+00 0. -1.
<scales pt_clust_5="13000.00000" pt_clust_6="13000.00000" pt_clust_7="13000.00000" pt_clust_8="13000.00000" pt_clust_9="28.74146"></scales>
<clustering>
<clus scale="   28.741">  1  9  2 -1</clus>
<clus scale="   80.435">  5  6 -1 -1</clus>
<clus scale="   85.158">  2  5  1 -1</clus>
<clus scale="   90.658">  7  8 -1 -1</clus>
<clus scale="   28.741">  1  5  2 -1</clus>
</clustering>
</event>
<event>
 9    1  0.3197504E-005  0.9173745E+02  0.7546771E-02  0.1305740E+00
         -2   -1    0    0    0  501 -0.00000000000E+00  0.00000000000E+00  0.72518425047E+02  0.72518425047E+02  0.00000000000E+00 0.  1.
         21   -1    0    0  501  502  0.00000000000E+00 -0.00000000000E+00 -0.26208075334E+03  0.26208075334E+03  0.00000000000E+00 0.  1.
         23    2    1    2    0    0 -0.30918860412E+02 -0.23214003264E+02 -0.34770538342E+02  0.10531671971E+03  0.91584688881E+02 0.  0.
        -24    2    1    2    0    0 -0.34708433236E+02 -0.19414636465E+02 -0.69220501866E+02  0.11332303499E+03  0.80430273741E+02 0.  0.
         13    1    4    4    0    0 -0.44293198558E+01 -0.42869660638E+02 -0.12485519515E+02  0.44869977437E+02  0.00000000000E+00 0. -1.
        -14    1    4    4    0    0 -0.30279113380E+02  0.23455024173E+02 -0.56734982351E+02  0.68453057553E+02  0.00000000000E+00 0.  1.
        -13    1    3    3    0    0  0.73747847526E+01 -0.22003516852E+02 -0.56634289547E+02  0.61204452097E+02  0.00000000000E+00 0. -1.
         13    1    3    3    0    0 -0.38293645165E+02 -0.12104864122E+01  0.21863751205E+02  0.44112267615E+02  0.00000000000E+00 0.  1.
         -1    1    1    2    0  502  0.65627293648E+02  0.42628639729E+02 -0.85571288086E+02  0.11595942368E+03  0.00000000000E+00 0.  1.
<scales pt_clust_5="13000.00000" pt_clust_6="13000.00000" pt_clust_7="13000.00000" pt_clust_8="13000.00000" pt_clust_9="78.25690"></scales>
<clustering>
<clus scale="   78.257">  2  9  1 -1</clus>
<clus scale="   80.430">  5  6 -1 -1</clus>
<clus scale="   80.604">  2  5  1 -1</clus>
<clus scale="   91.585">  7  8 -1 -1</clus>
<clus scale="   78.257">  2  5  1 -1</clus>
</clustering>
</event>
<event>
 9    1  0.3197504E-005  0.1048624E+03  0.7546771E-02  0.1271393E+00
         21   -1    0    0  501  502  0.00000000000E+00  0.00000000000E+00  0.90053334088E+02  0.90053334088E+02  0.00000000000E+00 0.  1.
         -2   -1    0    0    0  501 -0.00000000000E+00 -0.00000000000E+00 -0.33931899360E+03  0.33931899360E+03  0.00000000000E+00 0.  1.
        -24    2    1    2    0    0 -0.40955889235E+02 -0.26887213931E+02 -0.20708219569E+03  0.23064979789E+03  0.88971829009E+02 0.  0.
         23    2    1    2    0    0  0.82133687186E+02 -0.13788648252E+02  0.55567373980E+01  0.12369411104E+03  0.91286835771E+02 0.  0.
         11    1    3    3    0    0  0.21462240028E+01 -0.37939374893E+02 -0.31025003376E+02  0.49056633387E+02  0.00000000000E+00 0. -1.
        -12    1    3    3    0    0 -0.43102113238E+02  0.11052160962E+02 -0.17605719232E+03  0.18159316450E+03  0.00000000000E+00 0.  1.
        -11    1    4    4    0    0  0.29478584659E+02 -0.17157006689E+02 -0.40996663587E+02  0.53329881467E+02  0.00000000000E+00 0.  1.
         11    1    4    4    0    0  0.52655102527E+02  0.33683584362E+01  0.46553400985E+02  0.70364229577E+02  0.00000000000E+00 0. -1.
         -1    1    1    2    0  502 -0.41177797951E+02  0.40675862183E+02 -0.47740201216E+02  0.75028418753E+02  0.00000000000E+00 0.  1.
<scales pt_clust_5="13000.00000" pt_clust_6="13000.00000" pt_clust_7="13000.00000" pt_clust_8="13000.00000" pt_clust_9="57.88040"></scales>
<clustering>
<clus scale="   57.880">  1  9  2 -1</clus>
<clus scale="   88.972">  5  6 -1 -1</clus>
<clus scale="   91.287">  7  8 -1 -1</clus>
<clus scale="  102.853">  2  5  1 -1</clus>
<clus scale="   57.880">  1  5  2 -1</clus>
</clustering>
</event>
<event>
 9    1  0.3197504E-005  0.1008173E+03  0.7546771E-02  0.1287237E+00
         -2   -1    0    0    0  501 -0.00000000000E+00  0.00000000000E+00  0.13892233613E+03  0.13892233613E+03  0.00000000000E+00 0.  1.
         21   -1    0    0  501  502  0.00000000000E+00 -0.00000000000E+00 -0.16139732558E+03  0.16139732558E+03  0.00000000000E+00 0. -1.
         23    2    1    2    0    0 -0.16157696403E+02 -0.26130399993E+02  0.80368372807E+02  0.12926605067E+03  0.96471589350E+02 0.  0.
        -24    2    1    2    0    0  0.37356442946E+02  0.14260533585E+01 -0.34133488318E+02  0.95022443917E+02  0.80415373937E+02 0.  0.
         11    1    4    4    0    0  0.32908768677E+02  0.37886264757E+02 -0.28930682428E+02  0.57925301025E+02  0.00000000000E+00 0. -1.
        -12    1    4    4    0    0  0.44476742691E+01 -0.36460211398E+02 -0.52028058904E+01  0.37097142892E+02  0.00000000000E+00 0.  1.
        -11    1    3    3    0    0 -0.56019955825E+02 -0.21986591408E+02  0.39256016182E+02  0.71851795098E+02  0.00000000000E+00 0.  1.
         11    1    3    3    0    0  0.39862259422E+02 -0.41438085854E+01  0.41112356624E+02  0.57414255573E+02  0.00000000000E+00 0. -1.
         -1    1    1    2    0  502 -0.21198746543E+02  0.24704346634E+02 -0.68709873936E+02  0.76031167122E+02  0.00000000000E+00 0.  1.
<scales pt_clust_5="13000.00000" pt_clust_6="13000.00000" pt_clust_7="13000.00000" pt_clust_8="13000.00000" pt_clust_9="32.55290"></scales>
<clustering>
<clus scale="   32.553">  2  9  1 -1</clus>
<clus scale="   80.415">  5  6 -1 -1</clus>
<clus scale="   85.580">  2  5  1 -1</clus>
<clus scale="   96.472">  7  8 -1 -1</clus>
<clus scale="   32.553">  2  5  1 -1</clus>
</clustering>
</event>
<event>
 9    1  0.3197504E-005  0.1096718E+03  0.7546771E-02  0.1261635E+00
         21   -1    0    0  501  502  0.00000000000E+00  0.00000000000E+00  0.75908954804E+02  0.75908954804E+02  0.00000000000E+00 0.  1.
         -2   -1    0    0    0  501 -0.00000000000E+00 -0.00000000000E+00 -0.42012009616E+03  0.42012009616E+03  0.00000000000E+00 0.  1.
         23    2    1    2    0    0 -0.57131424474E+02  0.25776345919E+02 -0.31266873447E+03  0.33167590593E+03  0.91207178359E+02 0.  0.
        -24    2    1    2    0    0  0.64148423348E+02  0.20802787992E+02 -0.32996066871E+02  0.11722600725E+03  0.90030106851E+02 0.  0.
         11    1    4    4    0    0 -0.22782053832E+02  0.93585205774E+01 -0.99834670432E+01  0.26575806637E+02  0.00000000000E+00 0. -1.
        -12    1    4    4    0    0  0.86930477181E+02  0.11444267414E+02 -0.23012599828E+02  0.90650200608E+02  0.00000000000E+00 0.  1.
        -11    1    3    3    0    0 -0.63210203859E+02  0.51817149221E+02 -0.20398566756E+03  0.21975144913E+03  0.00000000000E+00 0.  1.
         11    1    3    3    0    0  0.60787793854E+01 -0.26040803302E+02 -0.10868306692E+03  0.11192445680E+03  0.00000000000E+00 0. -1.
         -1    1    1    2    0  502 -0.70169988744E+01 -0.46579133911E+02  0.14536599873E+01  0.47127137792E+02  0.00000000000E+00 0.  1.
<scales pt_clust_5="13000.00000" pt_clust_6="13000.00000" pt_clust_7="13000.00000" pt_clust_8="13000.00000" pt_clust_9="47.10471"></scales>
<clustering>
<clus scale="   47.105">  1  9  2 -1</clus>
<clus scale="   90.030">  5  6 -1 -1</clus>
<clus scale="   91.207">  7  8 -1 -1</clus>
<clus scale="  108.695">  1  5  2 -1</clus>
<clus scale="   47.105">  1  5  2 -1</clus>
</clustering>
</event>
<event>
 9    1  0.3197504E-005  0.2009297E+03  0.7546771E-02  0.1181472E+00
         21   -1    0    0  501  502  0.00000000000E+00  0.00000000000E+00  0.15946236566E+03  0.15946236566E+03  0.00000000000E+00 0.  1.
         -2   -1    0    0    0  501 -0.00000000000E+00 -0.00000000000E+00 -0.34140952398E+03  0.34140952398E+03  0.00000000000E+00 0.  1.
        -24    2    1    2    0    0 -0.21747256645E+02 -0.46073673226E+02 -0.68769366290E+02  0.11719717438E+03  0.80063883291E+02 0.  0.
         23    2    1    2    0    0  0.49523126802E+02  0.17990172763E+03 -0.31063449440E+02  0.22422499790E+03  0.12039410325E+03 0.  0.
         11    1    3    3    0    0 -0.33312680039E+02  0.59626518908E+01 -0.52057810023E+01  0.34240152231E+02  0.00000000000E+00 0. -1.
        -12    1    3    3    0    0  0.11565423394E+02 -0.52036325116E+02 -0.63563585287E+02  0.82957022153E+02  0.00000000000E+00 0.  1.
        -13    1    4    4    0    0  0.22453107036E+02  0.17197634162E+03 -0.60281658912E+02  0.18361340499E+03  0.00000000000E+00 0.  1.
         13    1    4    4    0    0  0.27070019766E+02  0.79253860140E+01  0.29218209472E+02  0.40611592905E+02  0.00000000000E+00 0. -1.
         -1    1    1    2    0  502 -0.27775870157E+02 -0.13382805440E+03 -0.82114342586E+02  0.15944971736E+03  0.00000000000E+00 0.  1.
<scales pt_clust_5="13000.00000" pt_clust_6="13000.00000" pt_clust_7="13000.00000" pt_clust_8="13000.00000" pt_clust_9="160.86654"></scales>
<clustering>
<clus scale="   80.064">  5  6 -1 -1</clus>
<clus scale="   94.900">  2  5  1 -1</clus>
<clus scale="  120.394">  7  8 -1 -1</clus>
<clus scale="  160.867">  1  9  2 -1</clus>
<clus scale="  160.867">  1  5  2 -1</clus>
</clustering>
</event>
<event>
 9    1  0.3197504E-005  0.1000405E+03  0.7546771E-02  0.1287770E+00
         21   -1    0    0  501  502  0.00000000000E+00  0.00000000000E+00  0.16742144314E+03  0.16742144314E+03  0.00000000000E+00 0.  1.
         -4   -1    0    0    0  501 -0.00000000000E+00 -0.00000000000E+00 -0.10199435629E+03  0.10199435629E+03  0.00000000000E+00 0.  1.
         23    2    1    2    0    0  0.40055280078E+02  0.45898302011E+01  0.37824444619E+02  0.10886431817E+03  0.93783043018E+02 0.  0.
        -24    2    1    2    0    0 -0.50810069802E+01 -0.48388616532E+02  0.42770020727E+02  0.10248614879E+03  0.79415748940E+02 0.  0.
         13    1    4    4    0    0  0.32556882315E+02 -0.11764958704E+02 -0.22030368890E+00  0.34618107590E+02  0.00000000000E+00 0. -1.
        -14    1    4    4    0    0 -0.37637889296E+02 -0.36623657828E+02  0.42990324416E+02  0.67868041203E+02  0.00000000000E+00 0.  1.
        -11    1    3    3    0    0 -0.89440235572E+01  0.39541178206E+02  0.66479906362E+01  0.41081578728E+02  0.00000000000E+00 0. -1.
         11    1    3    3    0    0  0.48999303635E+02 -0.34951348004E+02  0.31176453982E+02  0.67782739447E+02  0.00000000000E+00 0.  1.
         -3    1    1    2    0  502 -0.34974273097E+02  0.43798786331E+02 -0.15167378494E+02  0.58065332455E+02  0.00000000000E+00 0.  1.
<scales pt_clust_5="13000.00000" pt_clust_6="13000.00000" pt_clust_7="13000.00000" pt_clust_8="13000.00000" pt_clust_9="56.04941"></scales>
<clustering>
<clus scale="   56.049">  1  9  2 -1</clus>
<clus scale="   79.416">  5  6 -1 -1</clus>
<clus scale="   86.716">  1  5  2 -1</clus>
<clus scale="   93.783">  7  8 -1 -1</clus>
<clus scale="   56.049">  1  5  2 -1</clus>
</clustering>
</event>
<event>
 9    1  0.3197504E-005  0.3009465E+03  0.7546771E-02  0.1085006E+00
         -2   -1    0    0    0  501 -0.00000000000E+00  0.00000000000E+00  0.18706485989E+04  0.18706485989E+04  0.00000000000E+00 0.  1.
         21   -1    0    0  501  502  0.00000000000E+00 -0.00000000000E+00 -0.96304892675E+02  0.96304892675E+02  0.00000000000E+00 0.  1.
        -24    2    1    2    0    0  0.80898255240E+02 -0.31461206561E+03  0.13907372102E+04  0.14304714524E+04  0.81075943809E+02 0.  0.
         23    2    1    2    0    0 -0.11313244645E+03  0.18677550576E+03  0.29606550641E+03  0.37822701091E+03  0.87845590133E+02 0.  0.
         11    1    3    3    0    0 -0.10613884736E+02 -0.72448332970E+02  0.38850280859E+03  0.39534269663E+03  0.00000000000E+00 0. -1.
        -12    1    3    3    0    0  0.91512139976E+02 -0.24216373264E+03  0.10022344017E+04  0.10351287558E+04  0.00000000000E+00 0.  1.
        -11    1    4    4    0    0 -0.10613801026E+03  0.15756792082E+03  0.29136042603E+03  0.34782729156E+03  0.00000000000E+00 0.  1.
         11    1    4    4    0    0 -0.69944361899E+01  0.29207584931E+02  0.47050803736E+01  0.30399719348E+02  0.00000000000E+00 0. -1.
         -1    1    1    2    0  502  0.32234191210E+02  0.12783655986E+03  0.87540989606E+02  0.15825502829E+03  0.00000000000E+00 0.  1.
<scales pt_clust_5="13000.00000" pt_clust_6="13000.00000" pt_clust_7="13000.00000" pt_clust_8="13000.00000" pt_clust_9="131.83789"></scales>
<clustering>
<clus scale="   81.076">  5  6 -1 -1</clus>
<clus scale="   87.846">  7  8 -1 -1</clus>
<clus scale="  131.838">  2  9  1 -1</clus>
<clus scale="  299.041">  1  5  2 -1</clus>
<clus scale="  131.838">  2  5  1 -1</clus>
</clustering>
</event>
<event>
 9    1  0.3197504E-005  0.1833646E+03  0.7546771E-02  0.1165593E+00
          1   -1    0    0  502    0 -0.00000000000E+00  0.00000000000E+00  0.67892626984E+03  0.67892626984E+03  0.00000000000E+00 0. -1.
         21   -1    0    0  501  502  0.00000000000E+00 -0.00000000000E+00 -0.18433675336E+03  0.18433675336E+03  0.00000000000E+00 0. -1.
         23    2    1    2    0    0  0.15433093679E+03  0.65061345292E+02  0.53819272215E+03  0.57079591267E+03  0.90030833880E+02 0.  0.
        -24    2    1    2    0    0 -0.11808499401E+03 -0.67525773115E+02  0.70030031996E+02  0.17316767852E+03  0.81111304140E+02 0.  0.
         13    1    4    4    0    0 -0.92893423104E+02 -0.84550702159E+02  0.67650932167E+02  0.14266975122E+03  0.00000000000E+00 0. -1.
        -14    1    4    4    0    0 -0.25191570902E+02  0.17024929043E+02  0.23790998290E+01  0.30497927298E+02  0.00000000000E+00 0.  1.
        -13    1    3    3    0    0  0.45112159613E+02 -0.19829805911E+01  0.56397008725E+02  0.72247226591E+02  0.00000000000E+00 0.  1.
         13    1    3    3    0    0  0.10921877718E+03  0.67044325883E+02  0.48179571342E+03  0.49854868608E+03  0.00000000000E+00 0. -1.
          2    1    1    2  501    0 -0.36245942786E+02  0.24644278233E+01 -0.11363323767E+03  0.11929943200E+03  0.00000000000E+00 0. -1.
<scales pt_clust_5="13000.00000" pt_clust_6="13000.00000" pt_clust_7="13000.00000" pt_clust_8="13000.00000" pt_clust_9="36.32963"></scales>
<clustering>
<clus scale="   36.330">  2  9  1 -1</clus>
<clus scale="   81.111">  5  6 -1 -1</clus>
<clus scale="   90.031">  7  8 -1 -1</clus>
<clus scale="  179.154">  2  5  1 -1</clus>
<clus scale="   36.330">  2  5  1 -1</clus>
</clustering>
</event>
<event>
 9    1  0.4060055E-005  0.2840274E+03  0.7546771E-02  0.1120708E+00
          1   -1    0    0  502    0 -0.00000000000E+00  0.00000000000E+00  0.76228504098E+03  0.76228504098E+03  0.00000000000E+00 0. -1.
         21   -1    0    0  501  502  0.00000000000E+00 -0.00000000000E+00 -0.67201181211E+03  0.67201181211E+03  0.00000000000E+00 0. -1.
        -24    2    1    2    0    0 -0.11689217263E+03 -0.72763850147E+01 -0.14769115584E+03  0.20455150513E+03  0.79447560921E+02 0.  0.
         23    2    1    2    0    0  0.33217458690E+03  0.16120820906E+03  0.64254282056E+03  0.74629396974E+03  0.88121337687E+02 0.  0.
         13    1    3    3    0    0 -0.40067239568E+02 -0.38866993917E+02 -0.40618164637E+02  0.69035224351E+02  0.00000000000E+00 0. -1.
        -14    1    3    3    0    0 -0.76824933062E+02  0.31590608902E+02 -0.10707299120E+03  0.13551628078E+03  0.00000000000E+00 0.  1.
        -13    1    4    4    0    0  0.59827128189E+02  0.70532494165E+02  0.16243615413E+03  0.18692143315E+03  0.00000000000E+00 0.  1.
         13    1    4    4    0    0  0.27234745871E+03  0.90675714896E+02  0.48010666643E+03  0.55937253659E+03  0.00000000000E+00 0. -1.
          2    1    1    2  501    0 -0.21528241427E+03 -0.15393182405E+03 -0.40457843585E+03  0.48345137822E+03  0.00000000000E+00 0. -1.
<scales pt_clust_5="13000.00000" pt_clust_6="13000.00000" pt_clust_7="13000.00000" pt_clust_8="13000.00000" pt_clust_9="270.01143"></scales>
<clustering>
<clus scale="   79.448">  5  6 -1 -1</clus>
<clus scale="   88.121">  7  8 -1 -1</clus>
<clus scale="  141.523">  1  5  2 -1</clus>
<clus scale="  270.011">  2  9  1 -1</clus>
<clus scale="  270.011">  2  5  1 -1</clus>
</clustering>
</event>
<event>
 9    1  0.3197504E-005  0.8996128E+02  0.7546771E-02  0.1307603E+00
         21   -1    0    0  501  502  0.00000000000E+00  0.00000000000E+00  0.65011639201E+03  0.65011639201E+03  0.00000000000E+00 0.  1.
          1   -1    0    0  502    0 -0.00000000000E+00 -0.00000000000E+00 -0.25314592869E+02  0.25314592869E+02  0.00000000000E+00 0. -1.
        -24    2    1    2    0    0  0.71519685713E+01  0.13743563980E+01  0.98740406205E+02  0.12820926494E+03  0.81454946375E+02 0.  0.
         23    2    1    2    0    0 -0.41909992146E+02  0.21776508913E+00  0.47733630801E+03  0.48734861283E+03  0.88894457754E+02 0.  0.
         13    1    3    3    0    0  0.70774001598E+01  0.41238515680E+02  0.47833019910E+02  0.63550787267E+02  0.00000000000E+00 0. -1.
        -14    1    3    3    0    0  0.74568411557E-01 -0.39864159282E+02  0.50907386295E+02  0.64658477674E+02  0.00000000000E+00 0.  1.
        -11    1    4    4    0    0 -0.27682144124E+02 -0.43166668330E+02  0.29218180121E+03  0.29664771584E+03  0.00000000000E+00 0.  1.
         11    1    4    4    0    0 -0.14227848022E+02  0.43384433419E+02  0.18515450681E+03  0.19070089699E+03  0.00000000000E+00 0. -1.
          2    1    1    2  501    0  0.34758023575E+02 -0.15921214871E+01  0.48725084922E+02  0.59873107104E+02  0.00000000000E+00 0. -1.
<scales pt_clust_5="13000.00000" pt_clust_6="13000.00000" pt_clust_7="13000.00000" pt_clust_8="13000.00000" pt_clust_9="34.79449"></scales>
<clustering>
<clus scale="   34.794">  1  9  2 -1</clus>
<clus scale="   81.455">  5  6 -1 -1</clus>
<clus scale="   82.618">  2  5  1 -1</clus>
<clus scale="   88.894">  7  8 -1 -1</clus>
<clus scale="   34.794">  1  5  2 -1</clus>
</clustering>
</event>
<event>
 9    1  0.3197504E-005  0.1029639E+03  0.7546771E-02  0.1278564E+00
         21   -1    0    0  501  502  0.00000000000E+00  0.00000000000E+00  0.52107922959E+03  0.52107922959E+03  0.00000000000E+00 0. -1.
          1   -1    0    0  502    0 -0.00000000000E+00 -0.00000000000E+00 -0.45284458611E+02  0.45284458611E+02  0.00000000000E+00 0. -1.
         23    2    1    2    0    0  0.69918243256E+02  0.28682416370E+02  0.95155972898E+02  0.15207958275E+03  0.91445604387E+02 0.  0.
        -24    2    1    2    0    0  0.66838152433E+01 -0.23218190839E+02  0.17485873283E+03  0.19464083016E+03  0.82010478272E+02 0.  0.
         11    1    4    4    0    0  0.19253393947E+02 -0.51190720884E+02  0.10667493353E+03  0.11987795680E+03  0.00000000000E+00 0. -1.
        -12    1    4    4    0    0 -0.12569578704E+02  0.27972530045E+02  0.68183799296E+02  0.74762873355E+02  0.00000000000E+00 0.  1.
        -11    1    3    3    0    0  0.48602339620E+02  0.16805885741E+02  0.11144706332E+03  0.12273985960E+03  0.00000000000E+00 0.  1.
         11    1    3    3    0    0  0.21315903636E+02  0.11876530629E+02 -0.16291090417E+02  0.29339723151E+02  0.00000000000E+00 0. -1.
          2    1    1    2  501    0 -0.76602058500E+02 -0.54642255311E+01  0.20578006526E+03  0.21964327530E+03  0.00000000000E+00 0. -1.
<scales pt_clust_5="13000.00000" pt_clust_6="13000.00000" pt_clust_7="13000.00000" pt_clust_8="13000.00000" pt_clust_9="76.79670"></scales>
<clustering>
<clus scale="   76.797">  1  9  2 -1</clus>
<clus scale="   82.010">  5  6 -1 -1</clus>
<clus scale="   91.446">  7  8 -1 -1</clus>
<clus scale="   94.684">  1  5  2 -1</clus>
<clus scale="   76.797">  1  5  2 -1</clus>
</clustering>
</event>
<event>
 9    1  0.3197504E-005  0.1079896E+03  0.7546771E-02  0.1269482E+00
         -2   -1    0    0    0  501 -0.00000000000E+00  0.00000000000E+00  0.44735110022E+03  0.44735110022E+03  0.00000000000E+00 0.  1.
         21   -1    0    0  501  502  0.00000000000E+00 -0.00000000000E+00 -0.86914982773E+02  0.86914982773E+02  0.00000000000E+00 0. -1.
         23    2    1    2    0    0  0.64263852652E+02 -0.22887069747E+02  0.15084502562E+03  0.18939422521E+03  0.91990706428E+02 0.  0.
        -24    2    1    2    0    0 -0.90198587170E+01  0.24445394543E+02 -0.37382575878E+02  0.91790211311E+02  0.79680930891E+02 0.  0.
         11    1    4    4    0    0 -0.43293220289E+02  0.12222648396E+02 -0.31530219092E+02  0.54934968580E+02  0.00000000000E+00 0. -1.
        -12    1    4    4    0    0  0.34273361572E+02  0.12222746147E+02 -0.58523567854E+01  0.36855242731E+02  0.00000000000E+00 0.  1.
        -11    1    3    3    0    0 -0.58859193937E+01 -0.25299435885E+02  0.98409293487E+02  0.10177963720E+03  0.00000000000E+00 0.  1.
         11    1    3    3    0    0  0.70149772046E+02  0.24123661379E+01  0.52435732134E+02  0.87614588014E+02  0.00000000000E+00 0. -1.
         -1    1    1    2    0  502 -0.55243993935E+02 -0.15583247962E+01  0.24697366771E+03  0.25308164647E+03  0.00000000000E+00 0.  1.
<scales pt_clust_5="13000.00000" pt_clust_6="13000.00000" pt_clust_7="13000.00000" pt_clust_8="13000.00000" pt_clust_9="55.26600"></scales>
<clustering>
<clus scale="   55.266">  2  9  1 -1</clus>
<clus scale="   79.681">  5  6 -1 -1</clus>
<clus scale="   91.991">  7  8 -1 -1</clus>
<clus scale="   97.716">  2  5  1 -1</clus>
<clus scale="   55.266">  2  5  1 -1</clus>
</clustering>
</event>
<event>
 9    1  0.3197504E-005  0.2246774E+03  0.7546771E-02  0.1133544E+00
         21   -1    0    0  501  502  0.00000000000E+00  0.00000000000E+00  0.29310840389E+03  0.29310840389E+03  0.00000000000E+00 0.  1.
         -4   -1    0    0    0  501 -0.00000000000E+00 -0.00000000000E+00 -0.48635152459E+03  0.48635152459E+03  0.00000000000E+00 0.  1.
        -24    2    1    2    0    0 -0.94798427884E+02  0.16670160766E+03  0.90338026238E+02  0.22700874207E+03  0.81214789685E+02 0.  0.
         23    2    1    2    0    0  0.20756370195E+03  0.41441840688E+02 -0.18834563086E+03  0.29728554287E+03  0.90025001019E+02 0.  0.
         11    1    3    3    0    0  0.19787167225E+00  0.77209387170E+02  0.25751489152E+02  0.81390833722E+02  0.00000000000E+00 0. -1.
        -12    1    3    3    0    0 -0.94996299556E+02  0.89492220493E+02  0.64586537086E+02  0.14561790835E+03  0.00000000000E+00 0.  1.
        -11    1    4    4    0    0  0.87238128956E+02 -0.88883972084E+00 -0.26421873981E+02  0.91155891770E+02  0.00000000000E+00 0.  1.
         11    1    4    4    0    0  0.12032557299E+03  0.42330680409E+02 -0.16192375688E+03  0.20612965110E+03  0.00000000000E+00 0. -1.
         -3    1    1    2    0  502 -0.11276527406E+03 -0.20814344835E+03 -0.95235516074E+02  0.25516564355E+03  0.00000000000E+00 0.  1.
<scales pt_clust_5="13000.00000" pt_clust_6="13000.00000" pt_clust_7="13000.00000" pt_clust_8="13000.00000" pt_clust_9="205.85294"></scales>
<clustering>
<clus scale="   81.215">  5  6 -1 -1</clus>
<clus scale="   90.025">  7  8 -1 -1</clus>
<clus scale="  208.260">  2  5  1 -1</clus>
<clus scale="  205.853">  1  9  2 -1</clus>
<clus scale="  205.853">  1  5  2 -1</clus>
</clustering>
</event>
<event>
 9    1  0.3197504E-005  0.9153142E+02  0.7546771E-02  0.1307912E+00
          1   -1    0    0  502    0 -0.00000000000E+00  0.00000000000E+00  0.21956850237E+03  0.21956850237E+03  0.00000000000E+00 0. -1.
         21   -1    0    0  501  502  0.00000000000E+00 -0.00000000000E+00 -0.76776944410E+02  0.76776944410E+02  0.00000000000E+00 0. -1.
         23    2    1    2    0    0 -0.31065552558E+02  0.17984336446E+02  0.92842666270E+02  0.13510404233E+03  0.91350077511E+02 0.  0.
        -24    2    1    2    0    0 -0.26590267953E+02  0.16217529089E+02  0.42025307375E+02  0.93737742077E+02  0.77785520697E+02 0.  0.
         13    1    4    4    0    0 -0.22910172898E+02  0.46593483427E+02  0.34140172356E+02  0.62140003932E+02  0.00000000000E+00 0. -1.
        -14    1    4    4    0    0 -0.36800950557E+01 -0.30375954339E+02  0.78851350188E+01  0.31597738145E+02  0.00000000000E+00 0.  1.
        -11    1    3    3    0    0  0.17977365890E+02  0.25215293764E+02  0.12934084412E+01  0.30994670983E+02  0.00000000000E+00 0.  1.
         11    1    3    3    0    0 -0.49042918449E+02 -0.72309573185E+01  0.91549257828E+02  0.10410937135E+03  0.00000000000E+00 0. -1.
          2    1    1    2  501    0  0.57655820512E+02 -0.34201865534E+02  0.79235843132E+01  0.67503662369E+02  0.00000000000E+00 0. -1.
<scales pt_clust_5="13000.00000" pt_clust_6="13000.00000" pt_clust_7="13000.00000" pt_clust_8="13000.00000" pt_clust_9="67.03701"></scales>
<clustering>
<clus scale="   67.037">  2  9  1 -1</clus>
<clus scale="   77.786">  5  6 -1 -1</clus>
<clus scale="   77.998">  2  5  1 -1</clus>
<clus scale="   91.350">  7  8 -1 -1</clus>
<clus scale="   67.037">  2  5  1 -1</clus>
</clustering>
</event>
<event>
 9    1  0.3197504E-005  0.3096692E+03  0.7546771E-02  0.1080505E+00
         21   -1    0    0  501  502  0.00000000000E+00  0.00000000000E+00  0.18639254114E+03  0.18639254114E+03  0.00000000000E+00 0. -1.
          1   -1    0    0  502    0 -0.00000000000E+00 -0.00000000000E+00 -0.42262213307E+03  0.42262213307E+03  0.00000000000E+00 0. -1.
        -24    2    1    2    0    0 -0.54475402055E+02 -0.68416675453E+02 -0.68123158773E+02  0.13714433571E+03  0.80742759100E+02 0.  0.
         23    2    1    2    0    0 -0.12399363049E+03 -0.10807163701E+03 -0.47565062147E+02  0.19342906617E+03  0.89991496114E+02 0.  0.
         11    1    3    3    0    0 -0.12087625898E+02 -0.52670296053E+02 -0.73908930059E+02  0.91557636102E+02  0.00000000000E+00 0. -1.
        -12    1    3    3    0    0 -0.42387776157E+02 -0.15746379400E+02  0.57857712864E+01  0.45586699608E+02  0.00000000000E+00 0.  1.
        -13    1    4    4    0    0 -0.42589344601E+02 -0.43204125290E+02 -0.63848649693E+02  0.88074393459E+02  0.00000000000E+00 0.  1.
         13    1    4    4    0    0 -0.81404285889E+02 -0.64867511723E+02  0.16283587546E+02  0.10535467271E+03  0.00000000000E+00 0. -1.
          2    1    1    2  501    0  0.17846903255E+03  0.17648831247E+03 -0.12054137100E+03  0.27844127233E+03  0.00000000000E+00 0. -1.
<scales pt_clust_5="13000.00000" pt_clust_6="13000.00000" pt_clust_7="13000.00000" pt_clust_8="13000.00000" pt_clust_9="250.99678"></scales>
<clustering>
<clus scale="   80.743">  5  6 -1 -1</clus>
<clus scale="   89.991">  7  8 -1 -1</clus>
<clus scale="   96.830">  5  7 -1 -1</clus>
<clus scale="  250.997">  1  9  2 -1</clus>
<clus scale="  250.997">  1  5  2 -1</clus>
</clustering>
</event>
<event>
 9    1  0.3197504E-005  0.9629436E+02  0.7546771E-02  0.1290363E+00
         -2   -1    0    0    0  501 -0.00000000000E+00  0.00000000000E+00  0.14212595257E+03  0.14212595257E+03  0.00000000000E+00 0.  1.
         21   -1    0    0  501  502  0.00000000000E+00 -0.00000000000E+00 -0.22670711296E+03  0.22670711296E+03  0.00000000000E+00 0. -1.
        -24    2    1    2    0    0 -0.46852020310E+02  0.38693279030E+02 -0.29136856390E+02  0.10069546032E+03  0.74822040068E+02 0.  0.
         23    2    1    2    0    0 -0.76886409924E+01 -0.84063776244E+02 -0.12670534829E+03  0.16758263423E+03  0.70027568381E+02 0.  0.
         13    1    3    3    0    0 -0.17749855441E+02  0.58477078368E+02 -0.16431323787E+02  0.63282023230E+02  0.00000000000E+00 0. -1.
        -14    1    3    3    0    0 -0.29102164869E+02 -0.19783799338E+02 -0.12705532602E+02  0.37413437092E+02  0.00000000000E+00 0.  1.
        -11    1    4    4    0    0 -0.32344554364E+02 -0.18572963174E+02 -0.61543961245E+02  0.71963770912E+02  0.00000000000E+00 0.  1.
         11    1    4    4    0    0  0.24655913371E+02 -0.65490813069E+02 -0.65161387049E+02  0.95618863321E+02  0.00000000000E+00 0. -1.
         -1    1    1    2    0  502  0.54540661303E+02  0.45370497213E+02  0.71261044296E+02  0.10055497097E+03  0.00000000000E+00 0.  1.
<scales pt_clust_5="13000.00000" pt_clust_6="13000.00000" pt_clust_7="13000.00000" pt_clust_8="13000.00000" pt_clust_9="70.94484"></scales>
<clustering>
<clus scale="   70.028">  7  8 -1 -1</clus>
<clus scale="   70.945">  2  9  1 -1</clus>
<clus scale="   74.822">  5  6 -1 -1</clus>
<clus scale="   92.618">  2  7  1 -1</clus>
<clus scale="   70.945">  2  5  1 -1</clus>
</clustering>
</event>
<event>
 9    1  0.3197504E-005  0.1039846E+03  0.7546771E-02  0.1282349E+00
         21   -1    0    0  501  502  0.00000000000E+00  0.00000000000E+00  0.28495310425E+02  0.28495310425E+02  0.00000000000E+00 0.  1.
         -4   -1    0    0    0  501 -0.00000000000E+00 -0.00000000000E+00 -0.78100760110E+03  0.78100760110E+03  0.00000000000E+00 0.  1.
         23    2    1    2    0    0 -0.15599931853E+01 -0.34205868782E+02 -0.45351384495E+03  0.46620270846E+03  0.10245820014E+03 0.  0.
        -24    2    1    2    0    0 -0.19674999941E+02 -0.36891991528E+01 -0.28493473895E+03  0.29764115188E+03  0.83676364762E+02 0.  0.
         13    1    4    4    0    0 -0.29880800069E+02 -0.35039102416E+02 -0.22054762995E+03  0.22530392359E+03  0.00000000000E+00 0. -1.
        -14    1    4    4    0    0  0.10205800128E+02  0.31349903263E+02 -0.64387109008E+02  0.72337228294E+02  0.00000000000E+00 0.  1.
        -11    1    3    3    0    0  0.14643138945E+02 -0.65016796399E+02 -0.36601724902E+03  0.37203525627E+03  0.00000000000E+00 0.  1.
         11    1    3    3    0    0 -0.16203132130E+02  0.30810927618E+02 -0.87496595931E+02  0.94167452185E+02  0.00000000000E+00 0. -1.
         -3    1    1    2    0  502  0.21234993126E+02  0.37895067934E+02 -0.14063706775E+02  0.45659051185E+02  0.00000000000E+00 0.  1.
<scales pt_clust_5="13000.00000" pt_clust_6="13000.00000" pt_clust_7="13000.00000" pt_clust_8="13000.00000" pt_clust_9="43.43917"></scales>
<clustering>
<clus scale="   43.439">  1  9  2 -1</clus>
<clus scale="   83.676">  5  6 -1 -1</clus>
<clus scale="   85.539">  1  5  2 -1</clus>
<clus scale="  102.458">  7  8 -1 -1</clus>
<clus scale="   43.439">  1  5  2 -1</clus>
</clustering>
</event>
<event>
 9    1  0.3197504E-005  0.9447658E+02  0.7546771E-02  0.1297094E+00
         21   -1    0    0  501  502  0.00000000000E+00  0.00000000000E+00  0.51692904934E+02  0.51692904934E+02  0.00000000000E+00 0. -1.
         -4   -1    0    0    0  501 -0.00000000000E+00 -0.00000000000E+00 -0.30347849687E+03  0.30347849687E+03  0.00000000000E+00 0.  1.
         23    2    1    2    0    0 -0.34731504151E+02 -0.25213405446E+01 -0.10918424016E+03  0.14623598055E+03  0.90835726275E+02 0.  0.
        -24    2    1    2    0    0  0.52858858556E+01  0.24810909162E+02 -0.31576738947E+02  0.91929720716E+02  0.82525519117E+02 0.  0.
         11    1    4    4    0    0 -0.34943099945E+02  0.13490015041E+01  0.11858461984E+01  0.34989230773E+02  0.00000000000E+00 0. -1.
        -12    1    4    4    0    0  0.40228985801E+02  0.23461907657E+02 -0.32762585146E+02  0.56940489943E+02  0.00000000000E+00 0.  1.
        -13    1    3    3    0    0 -0.31578260860E+02  0.41810903207E+02 -0.52098032841E+02  0.73888721818E+02  0.00000000000E+00 0. -1.
         13    1    3    3    0    0 -0.31532432910E+01 -0.44332243752E+02 -0.57086207321E+02  0.72347258729E+02  0.00000000000E+00 0.  1.
         -3    1    1    2    0  502  0.29445618296E+02 -0.22289568617E+02 -0.11102461283E+03  0.11700570054E+03  0.00000000000E+00 0.  1.
<scales pt_clust_5="13000.00000" pt_clust_6="13000.00000" pt_clust_7="13000.00000" pt_clust_8="13000.00000" pt_clust_9="36.93062"></scales>
<clustering>
<clus scale="   36.931">  1  9  2 -1</clus>
<clus scale="   82.526">  5  6 -1 -1</clus>
<clus scale="   86.517">  1  5  2 -1</clus>
<clus scale="   90.836">  7  8 -1 -1</clus>
<clus scale="   36.931">  1  5  2 -1</clus>
</clustering>
</event>
<event>
 9    1  0.3197504E-005  0.9560678E+02  0.7546771E-02  0.1296225E+00
          1   -1    0    0  502    0 -0.00000000000E+00  0.00000000000E+00  0.16149886642E+03  0.16149886642E+03  0.00000000000E+00 0. -1.
         21   -1    0    0  501  502  0.00000000000E+00 -0.00000000000E+00 -0.88279712933E+02  0.88279712933E+02  0.00000000000E+00 0. -1.
        -24    2    1    2    0    0 -0.13686289921E+02  0.29059954178E+02  0.64008484341E+02  0.10760029841E+03  0.80305309170E+02 0.  0.
         23    2    1    2    0    0  0.35522160193E+02  0.64437612730E+01 -0.37305602205E+01  0.98534329945E+02  0.91606501811E+02 0.  0.
         11    1    3    3    0    0  0.21563800460E+00  0.44235002621E+02  0.42993915670E+01  0.44443972871E+02  0.00000000000E+00 0. -1.
        -12    1    3    3    0    0 -0.13901927926E+02 -0.15175048444E+02  0.59709092774E+02  0.63156325536E+02  0.00000000000E+00 0.  1.
        -13    1    4    4    0    0  0.32585902406E+02 -0.23003768935E+02 -0.36720270507E+02  0.54216166288E+02  0.00000000000E+00 0. -1.
         13    1    4    4    0    0  0.29362577862E+01  0.29447530208E+02  0.32989710286E+02  0.44318163657E+02  0.00000000000E+00 0.  1.
          2    1    1    2  501    0 -0.21835870271E+02 -0.35503715451E+02  0.12941229364E+02  0.43643950999E+02  0.00000000000E+00 0. -1.
<scales pt_clust_5="13000.00000" pt_clust_6="13000.00000" pt_clust_7="13000.00000" pt_clust_8="13000.00000" pt_clust_9="41.68118"></scales>
<clustering>
<clus scale="   41.681">  2  9  1 -1</clus>
<clus scale="   80.305">  5  6 -1 -1</clus>
<clus scale="   84.840">  1  5  2 -1</clus>
<clus scale="   91.607">  7  8 -1 -1</clus>
<clus scale="   41.681">  2  5  1 -1</clus>
</clustering>
</event>
<event>
 9    1  0.3197504E-005  0.1243692E+03  0.7546771E-02  0.1256290E+00
         21   -1    0    0  501  502  0.00000000000E+00  0.00000000000E+00  0.22764292153E+02  0.22764292153E+02  0.00000000000E+00 0.  1.
          1   -1    0    0  502    0 -0.00000000000E+00 -0.00000000000E+00 -0.96402691098E+03  0.96402691098E+03  0.00000000000E+00 0. -1.
        -24    2    1    2    0    0 -0.15791432667E+02  0.28853414108E+01 -0.21954353783E+03  0.23464051378E+03  0.81234913445E+02 0.  0.
         23    2    1    2    0    0 -0.49769154174E+02 -0.61255015379E+02 -0.36207619590E+03  0.38195045409E+03  0.92508551657E+02 0.  0.
         13    1    3    3    0    0 -0.11298431292E+02  0.39987241769E+02 -0.15049985938E+03  0.15613084809E+03  0.00000000000E+00 0. -1.
        -14    1    3    3    0    0 -0.44930013747E+01 -0.37101900358E+02 -0.69043678451E+02  0.78509665683E+02  0.00000000000E+00 0.  1.
        -13    1    4    4    0    0 -0.70594787045E+02 -0.46393647245E+02 -0.33144237798E+03  0.34203807447E+03  0.00000000000E+00 0. -1.
         13    1    4    4    0    0  0.20825632871E+02 -0.14861368135E+02 -0.30633817914E+02  0.39912379624E+02  0.00000000000E+00 0.  1.
          2    1    1    2  501    0  0.65560586841E+02  0.58369673969E+02 -0.35964288510E+03  0.37020023526E+03  0.00000000000E+00 0. -1.
<scales pt_clust_5="13000.00000" pt_clust_6="13000.00000" pt_clust_7="13000.00000" pt_clust_8="13000.00000" pt_clust_9="83.12562"></scales>
<clustering>
<clus scale="   81.235">  5  6 -1 -1</clus>
<clus scale="   82.806">  2  5  1 -1</clus>
<clus scale="   83.126">  1  9  2 -1</clus>
<clus scale="   92.509">  7  8 -1 -1</clus>
<clus scale="   83.126">  1  5  2 -1</clus>
</clustering>
</event>
<event>
 9    1  0.3197504E-005  0.9833737E+02  0.7546771E-02  0.1286965E+00
          3   -1    0    0  502    0 -0.00000000000E+00  0.00000000000E+00  0.25998069939E+03  0.25998069939E+03  0.00000000000E+00 0. -1.
         21   -1    0    0  501  502  0.00000000000E+00 -0.00000000000E+00 -0.11867782590E+03  0.11867782590E+03  0.00000000000E+00 0. -1.
        -24    2    1    2    0    0 -0.50156728074E+02 -0.11206758441E+02  0.14135017896E+03  0.17215286823E+03  0.83758272085E+02 0.  0.
         23    2    1    2    0    0  0.53273751452E+02 -0.91139379612E+01  0.80208188297E+02  0.12365886583E+03  0.77051964087E+02 0.  0.
         11    1    3    3    0    0 -0.71131301455E+02 -0.21980035176E+02  0.11230794777E+03  0.13474367936E+03  0.00000000000E+00 0. -1.
        -12    1    3    3    0    0  0.20974573381E+02  0.10773276736E+02  0.29042231181E+02  0.37409188872E+02  0.00000000000E+00 0.  1.
        -13    1    4    4    0    0  0.25632019337E+02 -0.40086931961E+02  0.22664151978E+02  0.52703190740E+02  0.00000000000E+00 0. -1.
         13    1    4    4    0    0  0.27641732115E+02  0.30972993999E+02  0.57544036319E+02  0.70955675090E+02  0.00000000000E+00 0.  1.
          4    1    1    2  501    0 -0.31170233782E+01  0.20320696402E+02 -0.80255493768E+02  0.82846791229E+02  0.00000000000E+00 0. -1.
<scales pt_clust_5="13000.00000" pt_clust_6="13000.00000" pt_clust_7="13000.00000" pt_clust_8="13000.00000" pt_clust_9="20.55837"></scales>
<clustering>
<clus scale="   20.558">  2  9  1 -1</clus>
<clus scale="   77.052">  7  8 -1 -1</clus>
<clus scale="   83.758">  5  6 -1 -1</clus>
<clus scale="   92.692">  2  7  1 -1</clus>
<clus scale="   20.558">  2  5  1 -1</clus>
</clustering>
</event>
<event>
 9    1  0.3197504E-005  0.9647165E+02  0.7546771E-02  0.1295302E+00
          1   -1    0    0  502    0 -0.00000000000E+00  0.00000000000E+00  0.63341235781E+03  0.63341235781E+03  0.00000000000E+00 0. -1.
         21   -1    0    0  501  502  0.00000000000E+00 -0.00000000000E+00 -0.41927427788E+02  0.41927427788E+02  0.00000000000E+00 0. -1.
        -24    2    1    2    0    0  0.27816913187E+02  0.37288479853E+02  0.23755928043E+03  0.25442805710E+03  0.78326324662E+02 0.  0.
         23    2    1    2    0    0 -0.16089639608E+02  0.47476458216E+02  0.73373485400E+02  0.12759936853E+03  0.91569863510E+02 0.  0.
         11    1    3    3    0    0  0.51275428487E+02  0.41972536368E+02  0.18935567028E+03  0.20061513712E+03  0.00000000000E+00 0. -1.
        -12    1    3    3    0    0 -0.23458515300E+02 -0.46840565156E+01  0.48203610148E+02  0.53812919981E+02  0.00000000000E+00 0.  1.
        -13    1    4    4    0    0 -0.52019919685E+02  0.39227765374E+02  0.33375492256E+02  0.73203914538E+02  0.00000000000E+00 0. -1.
         13    1    4    4    0    0  0.35930280077E+02  0.82486928419E+01  0.39997993144E+02  0.54395453997E+02  0.00000000000E+00 0.  1.
          2    1    1    2  501    0 -0.11727273579E+02 -0.84764938069E+02  0.28055216419E+03  0.29331235996E+03  0.00000000000E+00 0. -1.
<scales pt_clust_5="13000.00000" pt_clust_6="13000.00000" pt_clust_7="13000.00000" pt_clust_8="13000.00000" pt_clust_9="85.57237"></scales>
<clustering>
<clus scale="   78.326">  5  6 -1 -1</clus>
<clus scale="   85.572">  2  9  1 -1</clus>
<clus scale="   84.004">  1  5  2 -1</clus>
<clus scale="   91.570">  7  8 -1 -1</clus>
<clus scale="   85.572">  2  5  1 -1</clus>
</clustering>
</event>
<event>
 9    1  0.3197504E-005  0.9929573E+02  0.7546771E-02  0.1290148E+00
          1   -1    0    0  502    0 -0.00000000000E+00  0.00000000000E+00  0.27063570168E+03  0.27063570168E+03  0.00000000000E+00 0. -1.
         21   -1    0    0  501  502  0.00000000000E+00 -0.00000000000E+00 -0.75195151979E+02  0.75195151979E+02  0.00000000000E+00 0.  1.
         23    2    1    2    0    0  0.48630756210E+01 -0.25517332873E+02  0.12786113877E+03  0.16308239128E+03  0.97839724842E+02 0.  0.
        -24    2    1    2    0    0  0.30204424105E+02 -0.96617512067E+01 -0.11165489233E+02  0.89646062861E+02  0.83102898654E+02 0.  0.
         13    1    4    4    0    0 -0.23185424167E+02  0.15591551532E+02 -0.12409004108E+02  0.30571943934E+02  0.00000000000E+00 0. -1.
        -14    1    4    4    0    0  0.53389848272E+02 -0.25253302739E+02  0.12435148750E+01  0.59074118926E+02  0.00000000000E+00 0.  1.
        -11    1    3    3    0    0 -0.41731032335E+02  0.24037041963E+01  0.81806375378E+02  0.91866968526E+02  0.00000000000E+00 0. -1.
         11    1    3    3    0    0  0.46594107956E+02 -0.27921037069E+02  0.46054763392E+02  0.71215422756E+02  0.00000000000E+00 0.  1.
          2    1    1    2  501    0 -0.35067499726E+02  0.35179084080E+02  0.78744900162E+02  0.93102399514E+02  0.00000000000E+00 0. -1.
<scales pt_clust_5="13000.00000" pt_clust_6="13000.00000" pt_clust_7="13000.00000" pt_clust_8="13000.00000" pt_clust_9="49.67192"></scales>
<clustering>
<clus scale="   49.672">  2  9  1 -1</clus>
<clus scale="   83.103">  5  6 -1 -1</clus>
<clus scale="   84.812">  2  5  1 -1</clus>
<clus scale="   97.840">  7  8 -1 -1</clus>
<clus scale="   49.672">  2  5  1 -1</clus>
</clustering>
</event>
<event>
 9    1  0.3197504E-005  0.1907708E+03  0.7546771E-02  0.1158659E+00
          1   -1    0    0  502    0 -0.00000000000E+00  0.00000000000E+00  0.83671884089E+03  0.83671884089E+03  0.00000000000E+00 0. -1.
         21   -1    0    0  501  502  0.00000000000E+00 -0.00000000000E+00 -0.66066503275E+02  0.66066503275E+02  0.00000000000E+00 0.  1.
        -24    2    1    2    0    0 -0.10246252171E+03  0.10040172377E+03  0.30139776257E+03  0.34344488570E+03  0.80837514401E+02 0.  0.
         23    2    1    2    0    0  0.12972289446E+03 -0.16792238431E+03  0.33363856282E+03  0.40541232494E+03  0.89546111635E+02 0.  0.
         11    1    3    3    0    0 -0.52192838049E+02  0.10125207132E+02  0.56193514781E+02  0.77358407859E+02  0.00000000000E+00 0. -1.
        -12    1    3    3    0    0 -0.50269683664E+02  0.90276516640E+02  0.24520424779E+03  0.26608647784E+03  0.00000000000E+00 0.  1.
        -13    1    4    4    0    0  0.12289383555E+03 -0.13746631922E+03  0.32391443171E+03  0.37272032787E+03  0.00000000000E+00 0.  1.
         13    1    4    4    0    0  0.68290589169E+01 -0.30456065090E+02  0.97241311084E+01  0.32691997067E+02  0.00000000000E+00 0. -1.
          2    1    1    2  501    0 -0.27260372751E+02  0.67520660538E+02  0.13561601222E+03  0.15392813353E+03  0.00000000000E+00 0. -1.
<scales pt_clust_5="13000.00000" pt_clust_6="13000.00000" pt_clust_7="13000.00000" pt_clust_8="13000.00000" pt_clust_9="72.81602"></scales>
<clustering>
<clus scale="   72.816">  2  9  1 -1</clus>
<clus scale="   80.838">  5  6 -1 -1</clus>
<clus scale="   89.546">  7  8 -1 -1</clus>
<clus scale="  186.841">  1  5  2 -1</clus>
<clus scale="   72.816">  2  5  1 -1</clus>
</clustering>
</event>
<event>
 9    1  0.3197504E-005  0.1010037E+03  0.7546771E-02  0.1279464E+00
         -2   -1    0    0    0  501 -0.00000000000E+00  0.00000000000E+00  0.89895661144E+03  0.89895661144E+03  0.00000000000E+00 0.  1.
         21   -1    0    0  501  502  0.00000000000E+00 -0.00000000000E+00 -0.42825906479E+02  0.42825906479E+02  0.00000000000E+00 0. -1.
        -24    2    1    2    0    0 -0.28103848053E+02 -0.36837288068E+02  0.77350535664E+03  0.77966671659E+03  0.86155905965E+02 0.  0.
         23    2    1    2    0    0  0.54828105291E+02  0.37014451526E+02  0.76628391423E+02  0.13472637264E+03  0.88899349613E+02 0.  0.
         13    1    3    3    0    0 -0.15711742323E+02  0.20808056554E+02  0.92232461521E+02  0.95847071017E+02  0.00000000000E+00 0. -1.
        -14    1    3    3    0    0 -0.12392105730E+02 -0.57645344622E+02  0.68127289512E+03  0.68381964557E+03  0.00000000000E+00 0.  1.
        -13    1    4    4    0    0  0.43045774745E+01 -0.24103583886E+02  0.41085059371E+02  0.47827756030E+02  0.00000000000E+00 0.  1.
         13    1    4    4    0    0  0.50523527816E+02  0.61118035412E+02  0.35543332052E+02  0.86898616612E+02  0.00000000000E+00 0. -1.
         -1    1    1    2    0  502 -0.26724257238E+02 -0.17716345795E+00  0.59969568942E+01  0.27389428687E+02  0.00000000000E+00 0.  1.
<scales pt_clust_5="13000.00000" pt_clust_6="13000.00000" pt_clust_7="13000.00000" pt_clust_8="13000.00000" pt_clust_9="26.72484"></scales>
<clustering>
<clus scale="   26.725">  2  9  1 -1</clus>
<clus scale="   86.156">  5  6 -1 -1</clus>
<clus scale="   88.899">  7  8 -1 -1</clus>
<clus scale="   98.598">  1  5  2 -1</clus>
<clus scale="   26.725">  2  5  1 -1</clus>
</clustering>
</event>
<event>
 9    1  0.3197504E-005  0.1331863E+03  0.7546771E-02  0.1225330E+00
          1   -1    0    0  502    0 -0.00000000000E+00  0.00000000000E+00  0.30608061749E+03  0.30608061749E+03  0.00000000000E+00 0. -1.
         21   -1    0    0  501  502  0.00000000000E+00 -0.00000000000E+00 -0.16369289925E+03  0.16369289925E+03  0.00000000000E+00 0. -1.
         23    2    1    2    0    0  0.69982439461E+02 -0.55738949143E+02  0.13993668675E+03  0.18943286710E+03  0.91094250952E+02 0.  0.
        -24    2    1    2    0    0 -0.14581251822E+03  0.24558113882E+02 -0.58307143764E+02  0.17829163596E+03  0.80770000705E+02 0.  0.
         13    1    4    4    0    0 -0.14185669554E+03  0.23140340862E+01 -0.62970500268E+02  0.15522229456E+03  0.00000000000E+00 0. -1.
        -14    1    4    4    0    0 -0.39558226774E+01  0.22244079796E+02  0.46633565047E+01  0.23069341406E+02  0.00000000000E+00 0.  1.
        -11    1    3    3    0    0  0.19446685913E+02  0.23471421295E+02  0.17663900318E+02  0.35229172358E+02  0.00000000000E+00 0.  1.
         11    1    3    3    0    0  0.50535753548E+02 -0.79210370438E+02  0.12227278643E+03  0.15420369475E+03  0.00000000000E+00 0. -1.
          2    1    1    2  501    0  0.75830078758E+02  0.31180835261E+02  0.60758175256E+02  0.10204901368E+03  0.00000000000E+00 0. -1.
<scales pt_clust_5="13000.00000" pt_clust_6="13000.00000" pt_clust_7="13000.00000" pt_clust_8="13000.00000" pt_clust_9="81.99056"></scales>
<clustering>
<clus scale="   80.770">  5  6 -1 -1</clus>
<clus scale="   81.991">  2  9  1 -1</clus>
<clus scale="   91.094">  7  8 -1 -1</clus>
<clus scale="  126.350">  2  5  1 -1</clus>
<clus scale="   81.991">  2  5  1 -1</clus>
</clustering>
</event>
<event>
 9    1  0.3197504E-005  0.2120842E+03  0.7546771E-02  0.1140913E+00
          1   -1    0    0  502    0 -0.00000000000E+00  0.00000000000E+00  0.14381372134E+04  0.14381372134E+04  0.00000000000E+00 0. -1.
         21   -1    0    0  501  502  0.00000000000E+00 -0.00000000000E+00 -0.10741702134E+03  0.10741702134E+03  0.00000000000E+00 0. -1.
        -24    2    1    2    0    0 -0.91988269413E+02 -0.18118595232E+03  0.12756120747E+04  0.12940867406E+04  0.78639277932E+02 0.  0.
         23    2    1    2    0    0  0.21252726093E+02  0.11789428724E+03  0.32265063537E+02  0.15383984915E+03  0.90966606683E+02 0.  0.
         11    1    3    3    0    0 -0.74117241832E+02 -0.15731313145E+03  0.85997248272E+03  0.87737874256E+03  0.00000000000E+00 0. -1.
        -12    1    3    3    0    0 -0.17871027581E+02 -0.23872820874E+02  0.41563959202E+03  0.41670799807E+03  0.00000000000E+00 0.  1.
        -13    1    4    4    0    0  0.51428328668E+02  0.79310498719E+02  0.42757933874E+02  0.10374617634E+03  0.00000000000E+00 0.  1.
         13    1    4    4    0    0 -0.30175602575E+02  0.38583788521E+02 -0.10492870338E+02  0.50093672807E+02  0.00000000000E+00 0. -1.
          2    1    1    2  501    0  0.70735543320E+02  0.63291665079E+02  0.22843053806E+02  0.97627644981E+02  0.00000000000E+00 0. -1.
<scales pt_clust_5="13000.00000" pt_clust_6="13000.00000" pt_clust_7="13000.00000" pt_clust_8="13000.00000" pt_clust_9="94.91761"></scales>
<clustering>
<clus scale="   78.639">  5  6 -1 -1</clus>
<clus scale="   90.967">  7  8 -1 -1</clus>
<clus scale="   94.918">  2  9  1 -1</clus>
<clus scale="  207.096">  1  5  2 -1</clus>
<clus scale="   94.918">  2  5  1 -1</clus>
</clustering>
</event>
<event>
 9    1  0.3197504E-005  0.1009476E+03  0.7546771E-02  0.1282073E+00
         -4   -1    0    0    0  501 -0.00000000000E+00  0.00000000000E+00  0.44997083151E+03  0.44997083151E+03  0.00000000000E+00 0.  1.
         21   -1    0    0  501  502  0.00000000000E+00 -0.00000000000E+00 -0.10488772328E+03  0.10488772328E+03  0.00000000000E+00 0.  1.
        -24    2    1    2    0    0  0.33996593151E+02  0.16517921984E+02  0.26161405129E+03  0.27669583368E+03  0.81792801949E+02 0.  0.
         23    2    1    2    0    0 -0.76306454150E+02  0.11987100491E+02  0.15204242587E+03  0.19269361809E+03  0.89708225190E+02 0.  0.
         11    1    3    3    0    0  0.33528740116E+02 -0.20645884188E+02  0.60560005958E+02  0.72235332555E+02  0.00000000000E+00 0. -1.
        -12    1    3    3    0    0  0.46785303430E+00  0.37163806172E+02  0.20105404534E+03  0.20446050113E+03  0.00000000000E+00 0.  1.
        -13    1    4    4    0    0 -0.21086479272E+02 -0.37235620515E+02  0.71569927807E+02  0.83386963067E+02  0.00000000000E+00 0. -1.
         13    1    4    4    0    0 -0.55219974878E+02  0.49222721006E+02  0.80472498063E+02  0.10930665503E+03  0.00000000000E+00 0.  1.
         -3    1    1    2    0  502  0.42309861000E+02 -0.28505022474E+02 -0.68573368927E+02  0.85469103014E+02  0.00000000000E+00 0.  1.
<scales pt_clust_5="13000.00000" pt_clust_6="13000.00000" pt_clust_7="13000.00000" pt_clust_8="13000.00000" pt_clust_9="51.01628"></scales>
<clustering>
<clus scale="   51.016">  2  9  1 -1</clus>
<clus scale="   81.793">  5  6 -1 -1</clus>
<clus scale="   89.708">  7  8 -1 -1</clus>
<clus scale="   93.984">  1  5  2 -1</clus>
<clus scale="   51.016">  2  5  1 -1</clus>
</clustering>
</event>
<event>
 9    1  0.3197504E-005  0.1077742E+03  0.7546771E-02  0.1268233E+00
         21   -1    0    0  501  502  0.00000000000E+00  0.00000000000E+00  0.10810682436E+03  0.10810682436E+03  0.00000000000E+00 0.  1.
          1   -1    0    0  502    0 -0.00000000000E+00 -0.00000000000E+00 -0.20343090301E+03  0.20343090301E+03  0.00000000000E+00 0. -1.
        -24    2    1    2    0    0 -0.72359043460E+02  0.48937946545E+01 -0.81508103846E+02  0.13501425025E+03  0.79532989263E+02 0.  0.
         23    2    1    2    0    0  0.32116481631E+02  0.59537311423E+01  0.45065535084E+02  0.10438357966E+03  0.88306930323E+02 0.  0.
         11    1    3    3    0    0 -0.76681445709E+02  0.23385398101E+02 -0.83698762858E+02  0.11589824789E+03  0.00000000000E+00 0. -1.
        -12    1    3    3    0    0  0.43224022485E+01 -0.18491603447E+02  0.21906590117E+01  0.19116002358E+02  0.00000000000E+00 0.  1.
        -13    1    4    4    0    0  0.39323003235E+02  0.38322671081E+02  0.45359448139E+02  0.71220820255E+02  0.00000000000E+00 0.  1.
         13    1    4    4    0    0 -0.72065216039E+01 -0.32368939939E+02 -0.29391305576E+00  0.33162759404E+02  0.00000000000E+00 0. -1.
          2    1    1    2  501    0  0.40242561829E+02 -0.10847525797E+02 -0.58881509894E+02  0.72139897462E+02  0.00000000000E+00 0. -1.
<scales pt_clust_5="13000.00000" pt_clust_6="13000.00000" pt_clust_7="13000.00000" pt_clust_8="13000.00000" pt_clust_9="41.67894"></scales>
<clustering>
<clus scale="   41.679">  1  9  2 -1</clus>
<clus scale="   79.533">  5  6 -1 -1</clus>
<clus scale="   88.307">  7  8 -1 -1</clus>
<clus scale="  100.711">  2  5  1 -1</clus>
<clus scale="   41.679">  1  5  2 -1</clus>
</clustering>
</event>
<event>
 9    1  0.3197504E-005  0.1177786E+03  0.7546771E-02  0.1250881E+00
          1   -1    0    0  502    0 -0.00000000000E+00  0.00000000000E+00  0.47755393655E+02  0.47755393655E+02  0.00000000000E+00 0. -1.
         21   -1    0    0  501  502  0.00000000000E+00 -0.00000000000E+00 -0.83777456120E+03  0.83777456120E+03  0.00000000000E+00 0.  1.
        -24    2    1    2    0    0 -0.47422160873E+02 -0.82117487023E+02 -0.19583839579E+03  0.23144724885E+03  0.78886048958E+02 0.  0.
         23    2    1    2    0    0 -0.52739959428E+02  0.49632661809E+02 -0.49813679772E+03  0.51156197361E+03  0.91161829534E+02 0.  0.
         13    1    3    3    0    0 -0.55169168255E+02 -0.35650854956E+02 -0.65098729941E+02  0.92479539494E+02  0.00000000000E+00 0. -1.
        -14    1    3    3    0    0  0.77470073817E+01 -0.46466632067E+02 -0.13073966585E+03  0.13896770936E+03  0.00000000000E+00 0.  1.
        -11    1    4    4    0    0 -0.70407447496E+02  0.36511745539E+02 -0.46544005600E+03  0.47214908869E+03  0.00000000000E+00 0.  1.
         11    1    4    4    0    0  0.17667488068E+02  0.13120916270E+02 -0.32696741714E+02  0.39412884912E+02  0.00000000000E+00 0. -1.
          2    1    1    2  501    0  0.10016212030E+03  0.32484825214E+02 -0.96043974038E+02  0.14252073239E+03  0.00000000000E+00 0. -1.
<scales pt_clust_5="13000.00000" pt_clust_6="13000.00000" pt_clust_7="13000.00000" pt_clust_8="13000.00000" pt_clust_9="105.29827"></scales>
<clustering>
<clus scale="   78.886">  5  6 -1 -1</clus>
<clus scale="   91.162">  7  8 -1 -1</clus>
<clus scale="  105.298">  2  9  1 -1</clus>
<clus scale="  108.556">  1  5  2 -1</clus>
<clus scale="  105.298">  2  5  1 -1</clus>
</clustering>
</event>
<event>
 9    1  0.3197504E-005  0.1076367E+03  0.7546771E-02  0.1266942E+00
         21   -1    0    0  501  502  0.00000000000E+00  0.00000000000E+00  0.10892683404E+03  0.10892683404E+03  0.00000000000E+00 0.  1.
         -4   -1    0    0    0  501 -0.00000000000E+00 -0.00000000000E+00 -0.71441445167E+03  0.71441445167E+03  0.00000000000E+00 0.  1.
         23    2    1    2    0    0 -0.55714710843E+02 -0.23960794453E+02 -0.56882561129E+03  0.57841657632E+03  0.85585694031E+02 0.  0.
        -24    2    1    2    0    0  0.10006333916E+03  0.53609511795E+01 -0.10178272346E+03  0.16397124866E+03  0.80532204439E+02 0.  0.
         13    1    4    4    0    0  0.56395827291E+02  0.41809245967E+02 -0.43794199737E+02  0.82743182890E+02  0.00000000000E+00 0. -1.
        -14    1    4    4    0    0  0.43667511873E+02 -0.36448294788E+02 -0.57988523722E+02  0.81228065775E+02  0.00000000000E+00 0.  1.
        -13    1    3    3    0    0  0.11160198276E+02  0.21065810702E+02 -0.10894662936E+03  0.11152437606E+03  0.00000000000E+00 0. -1.
         13    1    3    3    0    0 -0.66874909119E+02 -0.45026605155E+02 -0.45987898193E+03  0.46689220026E+03  0.00000000000E+00 0.  1.
         -3    1    1    2    0  502 -0.44348628320E+02  0.18599843273E+02  0.65120717122E+02  0.80953460718E+02  0.00000000000E+00 0.  1.
<scales pt_clust_5="13000.00000" pt_clust_6="13000.00000" pt_clust_7="13000.00000" pt_clust_8="13000.00000" pt_clust_9="48.09111"></scales>
<clustering>
<clus scale="   48.091">  1  9  2 -1</clus>
<clus scale="   80.532">  5  6 -1 -1</clus>
<clus scale="   85.586">  7  8 -1 -1</clus>
<clus scale="  103.664">  1  5  2 -1</clus>
<clus scale="   48.091">  1  5  2 -1</clus>
</clustering>
</event>
<event>
 9    1  0.3197504E-005  0.1804146E+03  0.7546771E-02  0.1172628E+00
         21   -1    0    0  501  502  0.00000000000E+00  0.00000000000E+00  0.16499012503E+03  0.16499012503E+03  0.00000000000E+00 0. -1.
         -2   -1    0    0    0  501 -0.00000000000E+00 -0.00000000000E+00 -0.27404282938E+03  0.27404282938E+03  0.00000000000E+00 0.  1.
        -24    2    1    2    0    0 -0.73803433168E+02  0.99105447480E+02 -0.52560633152E+02  0.15550472139E+03  0.78423604549E+02 0.  0.
         23    2    1    2    0    0  0.59849679638E+02 -0.15025526422E+03 -0.93344099149E+02  0.21895979681E+03  0.11433128703E+03 0.  0.
         13    1    3    3    0    0 -0.49988786311E+02  0.45621989729E+02  0.11581162078E+02  0.68661255586E+02  0.00000000000E+00 0. -1.
        -14    1    3    3    0    0 -0.23814646858E+02  0.53483457751E+02 -0.64141795229E+02  0.86843465806E+02  0.00000000000E+00 0.  1.
        -11    1    4    4    0    0  0.25501969820E+02 -0.14804604044E+03 -0.10424926434E+03  0.18285483223E+03  0.00000000000E+00 0. -1.
         11    1    4    4    0    0  0.34347709818E+02 -0.22092237798E+01  0.10905165193E+02  0.36104964580E+02  0.00000000000E+00 0.  1.
         -1    1    1    2    0  502  0.13953753530E+02  0.51149816736E+02  0.36852027951E+02  0.64568436204E+02  0.00000000000E+00 0.  1.
<scales pt_clust_5="13000.00000" pt_clust_6="13000.00000" pt_clust_7="13000.00000" pt_clust_8="13000.00000" pt_clust_9="53.01897"></scales>
<clustering>
<clus scale="   53.019">  1  9  2 -1</clus>
<clus scale="   78.424">  5  6 -1 -1</clus>
<clus scale="  114.331">  7  8 -1 -1</clus>
<clus scale="  160.088">  2  5  1 -1</clus>
<clus scale="   53.019">  1  5  2 -1</clus>
</clustering>
</event>
<event>
 9    1  0.3197504E-005  0.1178046E+03  0.7546771E-02  0.1253066E+00
         21   -1    0    0  501  502  0.00000000000E+00  0.00000000000E+00  0.49387987644E+02  0.49387987644E+02  0.00000000000E+00 0.  1.
          3   -1    0    0  502    0 -0.00000000000E+00 -0.00000000000E+00 -0.41337645929E+03  0.41337645929E+03  0.00000000000E+00 0. -1.
        -24    2    1    2    0    0  0.46560304046E+02  0.41588666997E+02 -0.17084998612E+03  0.19831530188E+03  0.79004823075E+02 0.  0.
         23    2    1    2    0    0 -0.47868454482E+02 -0.65487279186E+02 -0.81284271999E+02  0.15006286962E+03  0.96601031545E+02 0.  0.
         11    1    3    3    0    0  0.58905075992E+02  0.16338874826E+02 -0.66853685600E+02  0.90587979812E+02  0.00000000000E+00 0. -1.
        -12    1    3    3    0    0 -0.12344771946E+02  0.25249792171E+02 -0.10399630052E+03  0.10772732207E+03  0.00000000000E+00 0.  1.
        -11    1    4    4    0    0 -0.14989505833E+02  0.21682059723E+02  0.98052714693E-01  0.26359184610E+02  0.00000000000E+00 0. -1.
         11    1    4    4    0    0 -0.32878948649E+02 -0.87169338910E+02 -0.81382324713E+02  0.12370368501E+03  0.00000000000E+00 0.  1.
          4    1    1    2  501    0  0.13081504361E+01  0.23898612189E+02 -0.11185421353E+03  0.11438627543E+03  0.00000000000E+00 0. -1.
<scales pt_clust_5="13000.00000" pt_clust_6="13000.00000" pt_clust_7="13000.00000" pt_clust_8="13000.00000" pt_clust_9="23.93440"></scales>
<clustering>
<clus scale="   23.934">  1  9  2 -1</clus>
<clus scale="   79.005">  5  6 -1 -1</clus>
<clus scale="   96.601">  7  8 -1 -1</clus>
<clus scale="  103.865">  2  5  1 -1</clus>
<clus scale="   23.934">  1  5  2 -1</clus>
</clustering>
</event>
<event>
 9    1  0.3197504E-005  0.1740917E+03  0.7546771E-02  0.1190831E+00
         21   -1    0    0  501  502  0.00000000000E+00  0.00000000000E+00  0.30698195199E+03  0.30698195199E+03  0.00000000000E+00 0.  1.
         -2   -1    0    0    0  501 -0.00000000000E+00 -0.00000000000E+00 -0.33887968105E+03  0.33887968105E+03  0.00000000000E+00 0.  1.
        -24    2    1    2    0    0  0.25039537725E+02 -0.82758409344E+02 -0.21526370470E+03  0.24571685561E+03  0.81008504508E+02 0.  0.
         23    2    1    2    0    0  0.28166500742E+02 -0.11400022999E+03  0.10387992085E+03  0.18136891590E+03  0.91182462651E+02 0.  0.
         13    1    3    3    0    0  0.27963551195E+02  0.32489803656E+01 -0.85458998734E+02  0.89976422097E+02  0.00000000000E+00 0. -1.
        -14    1    3    3    0    0 -0.29240134707E+01 -0.86007389710E+02 -0.12980470597E+03  0.15574043351E+03  0.00000000000E+00 0.  1.
        -11    1    4    4    0    0 -0.29686873885E+02 -0.23612943023E+02  0.11145515496E+02  0.39536111024E+02  0.00000000000E+00 0. -1.
         11    1    4    4    0    0  0.57853374627E+02 -0.90387286971E+02  0.92734405352E+02  0.14183280487E+03  0.00000000000E+00 0.  1.
         -1    1    1    2    0  502 -0.53206038467E+02  0.19675863934E+03  0.79486054799E+02  0.21877586154E+03  0.00000000000E+00 0.  1.
<scales pt_clust_5="13000.00000" pt_clust_6="13000.00000" pt_clust_7="13000.00000" pt_clust_8="13000.00000" pt_clust_9="148.30275"></scales>
<clustering>
<clus scale="   81.009">  5  6 -1 -1</clus>
<clus scale="   91.182">  7  8 -1 -1</clus>
<clus scale="  118.483">  2  5  1 -1</clus>
<clus scale="  148.303">  1  9  2 -1</clus>
<clus scale="  148.303">  1  5  2 -1</clus>
</clustering>
</event>
<event>
 9    1  0.4885518E-005  0.9561249E+02  0.7546771E-02  0.1293132E+00
         21   -1    0    0  501  502  0.00000000000E+00  0.00000000000E+00  0.95396326629E+02  0.95396326629E+02  0.00000000000E+00 0.  1.
          1   -1    0    0  502    0 -0.00000000000E+00 -0.00000000000E+00 -0.20795432796E+03  0.20795432796E+03  0.00000000000E+00 0. -1.
         23    2    1    2    0    0  0.18644536937E+02 -0.16149848346E+02 -0.15528213246E+03  0.18236295746E+03  0.92386531673E+02 0.  0.
        -24    2    1    2    0    0 -0.31158242888E+02 -0.97640341785E+00  0.36907269112E+02  0.98993670221E+02  0.86404923280E+02 0.  0.
         11    1    4    4    0    0  0.91273208281E+01  0.24737186151E+02 -0.13422885373E+02  0.29587332017E+02  0.00000000000E+00 0. -1.
        -12    1    4    4    0    0 -0.40285563716E+02 -0.25713589569E+02  0.50330154485E+02  0.69406338204E+02  0.00000000000E+00 0.  1.
        -13    1    3    3    0    0 -0.13033840052E+02 -0.40106375876E+02 -0.32279685048E+02  0.53107254111E+02  0.00000000000E+00 0.  1.
         13    1    3    3    0    0  0.31678376990E+02  0.23956527530E+02 -0.12300244741E+03  0.12925570335E+03  0.00000000000E+00 0. -1.
          2    1    1    2  501    0  0.12513705951E+02  0.17126251763E+02  0.58168620099E+01  0.21994026910E+02  0.00000000000E+00 0. -1.
<scales pt_clust_5="13000.00000" pt_clust_6="13000.00000" pt_clust_7="13000.00000" pt_clust_8="13000.00000" pt_clust_9="21.21088"></scales>
<clustering>
<clus scale="   21.211">  1  9  2 -1</clus>
<clus scale="   86.405">  5  6 -1 -1</clus>
<clus scale="   89.846">  1  5  2 -1</clus>
<clus scale="   92.387">  7  8 -1 -1</clus>
<clus scale="   21.211">  1  5  2 -1</clus>
</clustering>
</event>
<event>
 9    1  0.3197504E-005  0.1281686E+03  0.7546771E-02  0.1250021E+00
         -4   -1    0    0    0  501 -0.00000000000E+00  0.00000000000E+00  0.60181826173E+03  0.60181826173E+03  0.00000000000E+00 0.  1.
         21   -1    0    0  501  502  0.00000000000E+00 -0.00000000000E+00 -0.42080167165E+02  0.42080167165E+02  0.00000000000E+00 0. -1.
        -24    2    1    2    0    0 -0.27052518462E+02 -0.13958971380E+02  0.24109700492E+03  0.25587438930E+03  0.80107712969E+02 0.  0.
         23    2    1    2    0    0  0.70866090033E+01 -0.82471892233E+02  0.17296854657E+03  0.21218877919E+03  0.90852225491E+02 0.  0.
         13    1    3    3    0    0  0.24444048908E+02 -0.22254844935E+02  0.80659799153E+02  0.87171055113E+02  0.00000000000E+00 0. -1.
        -14    1    3    3    0    0 -0.51496567370E+02  0.82958735549E+01  0.16043720577E+03  0.16870333418E+03  0.00000000000E+00 0.  1.
        -13    1    4    4    0    0  0.26715533187E+02  0.22159016918E+01  0.82395900262E+02  0.86647067543E+02  0.00000000000E+00 0.  1.
         13    1    4    4    0    0 -0.19628924183E+02 -0.84687793924E+02  0.90572646304E+02  0.12554171165E+03  0.00000000000E+00 0. -1.
         -3    1    1    2    0  502  0.19965909459E+02  0.96430863613E+02  0.14567254307E+03  0.17583526041E+03  0.00000000000E+00 0.  1.
<scales pt_clust_5="13000.00000" pt_clust_6="13000.00000" pt_clust_7="13000.00000" pt_clust_8="13000.00000" pt_clust_9="90.40499"></scales>
<clustering>
<clus scale="   80.108">  5  6 -1 -1</clus>
<clus scale="   85.697">  1  5  2 -1</clus>
<clus scale="   90.405">  2  9  1 -1</clus>
<clus scale="   90.852">  7  8 -1 -1</clus>
<clus scale="   90.405">  2  5  1 -1</clus>
</clustering>
</event>
<event>
 9    1  0.3197504E-005  0.2190903E+03  0.7546771E-02  0.1164429E+00
          1   -1    0    0  502    0 -0.00000000000E+00  0.00000000000E+00  0.81495818687E+03  0.81495818687E+03  0.00000000000E+00 0. -1.
         21   -1    0    0  501  502  0.00000000000E+00 -0.00000000000E+00 -0.11875110984E+03  0.11875110984E+03  0.00000000000E+00 0.  1.
         23    2    1    2    0    0  0.37070324761E+02 -0.45649845494E+02 -0.80059152305E+01  0.10818394729E+03  0.90451945259E+02 0.  0.
        -24    2    1    2    0    0  0.17765106551E+03  0.80024013849E+02  0.30834169646E+03  0.37386071529E+03  0.82057838109E+02 0.  0.
         11    1    4    4    0    0  0.66420803558E+01  0.29825254263E+02  0.26768305497E+02  0.40622717812E+02  0.00000000000E+00 0. -1.
        -12    1    4    4    0    0  0.17100898515E+03  0.50198759587E+02  0.28157339096E+03  0.33323799748E+03  0.00000000000E+00 0.  1.
        -13    1    3    3    0    0  0.37742957654E+01 -0.23119652000E+02 -0.46787794232E+02  0.52324576504E+02  0.00000000000E+00 0.  1.
         13    1    3    3    0    0  0.33296028995E+02 -0.22530193494E+02  0.38781879002E+02  0.55859370786E+02  0.00000000000E+00 0. -1.
          2    1    1    2  501    0 -0.21472139027E+03 -0.34374168355E+02  0.39587129580E+03  0.45166463413E+03  0.00000000000E+00 0. -1.
<scales pt_clust_5="13000.00000" pt_clust_6="13000.00000" pt_clust_7="13000.00000" pt_clust_8="13000.00000" pt_clust_9="203.14304"></scales>
<clustering>
<clus scale="   82.058">  5  6 -1 -1</clus>
<clus scale="   90.452">  7  8 -1 -1</clus>
<clus scale="  107.887">  1  7  2 -1</clus>
<clus scale="  203.143">  2  9  1 -1</clus>
<clus scale="  203.143">  2  5  1 -1</clus>
</clustering>
</event>
<event>
 9    1  0.3197504E-005  0.2585120E+03  0.7546771E-02  0.1108041E+00
          3   -1    0    0  502    0 -0.00000000000E+00  0.00000000000E+00  0.26391579210E+02  0.26391579210E+02  0.00000000000E+00 0. -1.
         21   -1    0    0  501  502  0.00000000000E+00 -0.00000000000E+00 -0.18592104113E+04  0.18592104113E+04  0.00000000000E+00 0.  1.
        -24    2    1    2    0    0 -0.51176354186E+02 -0.23624318283E+02 -0.37243733806E+03  0.38510834941E+03  0.80135774544E+02 0.  0.
         23    2    1    2    0    0 -0.13003046110E+03 -0.53661220616E+01 -0.76117718495E+03  0.77760843488E+03  0.91364407876E+02 0.  0.
         11    1    3    3    0    0  0.21362961047E+02 -0.71628358540E+00 -0.99387264710E+02  0.10165981287E+03  0.00000000000E+00 0. -1.
        -12    1    3    3    0    0 -0.72539315234E+02 -0.22908034697E+02 -0.27305007335E+03  0.28344853654E+03  0.00000000000E+00 0.  1.
        -11    1    4    4    0    0 -0.97989928902E+02  0.31897207679E+02 -0.61002160622E+03  0.61866454406E+03  0.00000000000E+00 0. -1.
         11    1    4    4    0    0 -0.32040532197E+02 -0.37263329741E+02 -0.15115557873E+03  0.15894389082E+03  0.00000000000E+00 0.  1.
          4    1    1    2  501    0  0.18120681529E+03  0.28990440344E+02 -0.69920430904E+03  0.72288520618E+03  0.00000000000E+00 0. -1.
<scales pt_clust_5="13000.00000" pt_clust_6="13000.00000" pt_clust_7="13000.00000" pt_clust_8="13000.00000" pt_clust_9="183.51128"></scales>
<clustering>
<clus scale="   80.136">  5  6 -1 -1</clus>
<clus scale="   91.364">  7  8 -1 -1</clus>
<clus scale="   95.642">  5  7 -1 -1</clus>
<clus scale="  183.511">  2  9  1 -1</clus>
<clus scale="  183.511">  2  5  1 -1</clus>
</clustering>
</event>
<event>
 9    1  0.1060131E-004  0.1044104E+03  0.7546771E-02  0.1276118E+00
          1   -1    0    0  502    0 -0.00000000000E+00  0.00000000000E+00  0.44109753924E+03  0.44109753924E+03  0.00000000000E+00 0. -1.
         21   -1    0    0  501  502  0.00000000000E+00 -0.00000000000E+00 -0.13514348738E+03  0.13514348738E+03  0.00000000000E+00 0. -1.
         23    2    1    2    0    0 -0.15416081352E+02  0.55782298674E+02  0.37367051974E+03  0.38908604637E+03  0.91700456632E+02 0.  0.
        -24    2    1    2    0    0  0.26278472009E+02 -0.65953387353E+01  0.18419326872E+02  0.87371596378E+02  0.80996713928E+02 0.  0.
         13    1    4    4    0    0 -0.29593186289E+01  0.32965934585E+02 -0.39465487145E+01  0.33332951513E+02  0.00000000000E+00 0. -1.
        -14    1    4    4    0    0  0.29237790638E+02 -0.39561273320E+02  0.22365875587E+02  0.54038644865E+02  0.00000000000E+00 0.  1.
        -11    1    3    3    0    0 -0.36507512063E+02 -0.54039021055E+01  0.76330934817E+02  0.84784504511E+02  0.00000000000E+00 0.  1.
         11    1    3    3    0    0  0.21091430711E+02  0.61186200779E+02  0.29733958492E+03  0.30430154186E+03  0.00000000000E+00 0. -1.
          2    1    1    2  501    0 -0.10862390657E+02 -0.49186959938E+02 -0.86135794756E+02  0.99783383872E+02  0.00000000000E+00 0. -1.
<scales pt_clust_5="13000.00000" pt_clust_6="13000.00000" pt_clust_7="13000.00000" pt_clust_8="13000.00000" pt_clust_9="50.37210"></scales>
<clustering>
<clus scale="   50.372">  2  9  1 -1</clus>
<clus scale="   80.997">  5  6 -1 -1</clus>
<clus scale="   91.700">  7  8 -1 -1</clus>
<clus scale="   95.147">  2  5  1 -1</clus>
<clus scale="   50.372">  2  5  1 -1</clus>
</clustering>
</event>
<event>
 9    1  0.3197504E-005  0.9454235E+02  0.7546771E-02  0.1295433E+00
         21   -1    0    0  501  502  0.00000000000E+00  0.00000000000E+00  0.50120286228E+02  0.50120286228E+02  0.00000000000E+00 0. -1.
         -2   -1    0    0    0  501 -0.00000000000E+00 -0.00000000000E+00 -0.55986815019E+03  0.55986815019E+03  0.00000000000E+00 0.  1.
        -24    2    1    2    0    0  0.19423851909E+02 -0.14204435301E+02 -0.30115955083E+03  0.31355599098E+03  0.83912051708E+02 0.  0.
         23    2    1    2    0    0 -0.39864067124E+02  0.57358559837E+02 -0.38947615166E+02  0.12019951074E+03  0.89732142635E+02 0.  0.
         13    1    3    3    0    0 -0.29171997449E+02 -0.74900647644E+01 -0.56496468581E+02  0.64023101046E+02  0.00000000000E+00 0. -1.
        -14    1    3    3    0    0  0.48595849358E+02 -0.67143705369E+01 -0.24466308225E+03  0.24953288994E+03  0.00000000000E+00 0.  1.
        -13    1    4    4    0    0 -0.24109756219E+02  0.41650434303E+02 -0.68186454788E+02  0.83459161505E+02  0.00000000000E+00 0.  1.
         13    1    4    4    0    0 -0.15754310904E+02  0.15708125533E+02  0.29238839621E+02  0.36740349239E+02  0.00000000000E+00 0. -1.
         -1    1    1    2    0  502  0.20440215215E+02 -0.43154124535E+02 -0.16964069797E+03  0.17623293469E+03  0.00000000000E+00 0.  1.
<scales pt_clust_5="13000.00000" pt_clust_6="13000.00000" pt_clust_7="13000.00000" pt_clust_8="13000.00000" pt_clust_9="47.75022"></scales>
<clustering>
<clus scale="   47.750">  1  9  2 -1</clus>
<clus scale="   83.912">  5  6 -1 -1</clus>
<clus scale="   89.037">  2  5  1 -1</clus>
<clus scale="   89.732">  7  8 -1 -1</clus>
<clus scale="   47.750">  1  5  2 -1</clus>
</clustering>
</event>
<event>
 9    1  0.3197504E-005  0.1079338E+03  0.7546771E-02  0.1270030E+00
         21   -1    0    0  501  502  0.00000000000E+00  0.00000000000E+00  0.89594966615E+02  0.89594966615E+02  0.00000000000E+00 0.  1.
         -2   -1    0    0    0  501 -0.00000000000E+00 -0.00000000000E+00 -0.21563091940E+03  0.21563091940E+03  0.00000000000E+00 0.  1.
         23    2    1    2    0    0 -0.49279915427E+02  0.25513125103E+02 -0.11704434143E+03  0.15950700998E+03  0.93078884591E+02 0.  0.
        -24    2    1    2    0    0  0.55453332091E+02 -0.36517621727E+01  0.28880914366E+02  0.10155601304E+03  0.79944412963E+02 0.  0.
         13    1    4    4    0    0  0.30125081647E+01  0.31830054694E+02  0.21017542681E-01  0.31972300965E+02  0.00000000000E+00 0. -1.
        -14    1    4    4    0    0  0.52440823926E+02 -0.35481816866E+02  0.28859896824E+02  0.69583712080E+02  0.00000000000E+00 0.  1.
        -11    1    3    3    0    0 -0.12952385194E+02 -0.35052020464E+02 -0.34335716605E+02  0.50747904938E+02  0.00000000000E+00 0. -1.
         11    1    3    3    0    0 -0.36327530233E+02  0.60565145567E+02 -0.82708624822E+02  0.10875910505E+03  0.00000000000E+00 0.  1.
         -1    1    1    2    0  502 -0.61734166639E+01 -0.21861362931E+02 -0.37872525725E+02  0.44162862988E+02  0.00000000000E+00 0.  1.
<scales pt_clust_5="13000.00000" pt_clust_6="13000.00000" pt_clust_7="13000.00000" pt_clust_8="13000.00000" pt_clust_9="22.71631"></scales>
<clustering>
<clus scale="   22.716">  1  9  2 -1</clus>
<clus scale="   79.944">  5  6 -1 -1</clus>
<clus scale="   93.079">  7  8 -1 -1</clus>
<clus scale="   96.836">  1  5  2 -1</clus>
<clus scale="   22.716">  1  5  2 -1</clus>
</clustering>
</event>
<event>
 9    1  0.3197504E-005  0.9943649E+02  0.7546771E-02  0.1286484E+00
          3   -1    0    0  502    0 -0.00000000000E+00  0.00000000000E+00  0.11304919182E+03  0.11304919182E+03  0.00000000000E+00 0. -1.
         21   -1    0    0  501  502  0.00000000000E+00 -0.00000000000E+00 -0.23810157303E+03  0.23810157303E+03  0.00000000000E+00 0.  1.
         23    2    1    2    0    0 -0.24063882435E+02 -0.30602900104E+02  0.57783446296E+02  0.11697363566E+03  0.93959016819E+02 0.  0.
        -24    2    1    2    0    0  0.27005959976E+02 -0.69102991060E+01 -0.64027249424E+02  0.10955219524E+03  0.84410430068E+02 0.  0.
         11    1    4    4    0    0 -0.25485425208E+02  0.15104617995E+02 -0.10540998623E+02  0.31444698039E+02  0.00000000000E+00 0. -1.
        -12    1    4    4    0    0  0.52491385184E+02 -0.22014917101E+02 -0.53486250801E+02  0.78107497196E+02  0.00000000000E+00 0.  1.
        -13    1    3    3    0    0 -0.40551567370E+02  0.17785023518E+02  0.47295774696E+02  0.64789096165E+02  0.00000000000E+00 0. -1.
         13    1    3    3    0    0  0.16487684935E+02 -0.48387923622E+02  0.10487671600E+02  0.52184539498E+02  0.00000000000E+00 0.  1.
          4    1    1    2  501    0 -0.29420775402E+01  0.37513199210E+02 -0.11880857808E+03  0.12462493395E+03  0.00000000000E+00 0. -1.
<scales pt_clust_5="13000.00000" pt_clust_6="13000.00000" pt_clust_7="13000.00000" pt_clust_8="13000.00000" pt_clust_9="37.62839"></scales>
<clustering>
<clus scale="   37.628">  2  9  1 -1</clus>
<clus scale="   84.410">  5  6 -1 -1</clus>
<clus scale="   90.468">  2  5  1 -1</clus>
<clus scale="   93.959">  7  8 -1 -1</clus>
<clus scale="   37.628">  2  5  1 -1</clus>
</clustering>
</event>
<event>
 9    1  0.3197504E-005  0.4023176E+03  0.7546771E-02  0.1043169E+00
         -4   -1    0    0    0  501 -0.00000000000E+00  0.00000000000E+00  0.70389206270E+03  0.70389206270E+03  0.00000000000E+00 0.  1.
         21   -1    0    0  501  502  0.00000000000E+00 -0.00000000000E+00 -0.28842846329E+03  0.28842846329E+03  0.00000000000E+00 0. -1.
         23    2    1    2    0    0 -0.64913531847E+02 -0.39799385815E+03  0.38684492254E+03  0.56615690292E+03  0.90949254494E+02 0.  0.
        -24    2    1    2    0    0  0.40182462738E+02  0.36622647654E+03  0.68603892523E+00  0.37716337229E+03  0.80717261577E+02 0.  0.
         13    1    4    4    0    0 -0.18569154392E+01  0.19735728500E+03  0.33170793225E+02  0.20013407406E+03  0.00000000000E+00 0. -1.
        -14    1    4    4    0    0  0.42039378177E+02  0.16886919155E+03 -0.32484754300E+02  0.17702929823E+03  0.00000000000E+00 0.  1.
        -11    1    3    3    0    0 -0.63979244157E+02 -0.26066726732E+03  0.20221397657E+03  0.33605246652E+03  0.00000000000E+00 0. -1.
         11    1    3    3    0    0 -0.93428769055E+00 -0.13732659082E+03  0.18463094597E+03  0.23010443640E+03  0.00000000000E+00 0.  1.
         -3    1    1    2    0  502  0.24731069109E+02  0.31767381601E+02  0.27932637952E+02  0.49000250775E+02  0.00000000000E+00 0.  1.
<scales pt_clust_5="13000.00000" pt_clust_6="13000.00000" pt_clust_7="13000.00000" pt_clust_8="13000.00000" pt_clust_9="40.25909"></scales>
<clustering>
<clus scale="   40.259">  2  9  1 -1</clus>
<clus scale="   80.717">  5  6 -1 -1</clus>
<clus scale="   90.949">  7  8 -1 -1</clus>
<clus scale="  400.129">  2  5  1 -1</clus>
<clus scale="   40.259">  2  5  1 -1</clus>
</clustering>
</event>
<event>
 9    1  0.3197504E-005  0.2552245E+03  0.7546771E-02  0.1113299E+00
         -2   -1    0    0    0  501 -0.00000000000E+00  0.00000000000E+00  0.55792457942E+03  0.55792457942E+03  0.00000000000E+00 0.  1.
         21   -1    0    0  501  502  0.00000000000E+00 -0.00000000000E+00 -0.29871082112E+03  0.29871082112E+03  0.00000000000E+00 0.  1.
         23    2    1    2    0    0 -0.17843706901E+03 -0.13248190945E+03  0.25639350752E+03  0.36222338224E+03  0.12679473180E+03 0.  0.
        -24    2    1    2    0    0  0.19303464088E+03  0.10885588459E+03  0.19179399608E+03  0.30340847235E+03  0.78484316719E+02 0.  0.
         13    1    4    4    0    0  0.51537318250E+02  0.69283444171E+02  0.89597596713E+02  0.12443480279E+03  0.00000000000E+00 0. -1.
        -14    1    4    4    0    0  0.14149732263E+03  0.39572440423E+02  0.10219639937E+03  0.17897366956E+03  0.00000000000E+00 0.  1.
        -11    1    3    3    0    0 -0.14516107438E+03 -0.95624692222E+02  0.25964568161E+03  0.31246071634E+03  0.00000000000E+00 0.  1.
         11    1    3    3    0    0 -0.33275994639E+02 -0.36857217231E+02 -0.32521740898E+01  0.49762665900E+02  0.00000000000E+00 0. -1.
         -1    1    1    2    0  502 -0.14597571863E+02  0.23626024858E+02 -0.18897374530E+03  0.19100354596E+03  0.00000000000E+00 0.  1.
<scales pt_clust_5="13000.00000" pt_clust_6="13000.00000" pt_clust_7="13000.00000" pt_clust_8="13000.00000" pt_clust_9="27.77190"></scales>
<clustering>
<clus scale="   27.772">  2  9  1 -1</clus>
<clus scale="   78.484">  5  6 -1 -1</clus>
<clus scale="  126.795">  7  8 -1 -1</clus>
<clus scale="  234.995">  2  5  1 -1</clus>
<clus scale="   27.772">  2  5  1 -1</clus>
</clustering>
</event>
<event>
 9    1  0.3197504E-005  0.9577612E+02  0.7546771E-02  0.1295370E+00
         -2   -1    0    0    0  501 -0.00000000000E+00  0.00000000000E+00  0.80216026328E+02  0.80216026328E+02  0.00000000000E+00 0.  1.
         21   -1    0    0  501  502  0.00000000000E+00 -0.00000000000E+00 -0.21063037105E+03  0.21063037105E+03  0.00000000000E+00 0. -1.
         23    2    1    2    0    0 -0.25433310587E+02 -0.14639738739E+02  0.15036211854E+02  0.97439336474E+02  0.91690574149E+02 0.  0.
        -24    2    1    2    0    0  0.21256076595E+00  0.35666427421E+02 -0.12941926485E+03  0.15686653309E+03  0.81151856795E+02 0.  0.
         11    1    4    4    0    0  0.26427655074E+02  0.49511709061E+02 -0.10231668358E+03  0.11669847482E+03  0.00000000000E+00 0. -1.
        -12    1    4    4    0    0 -0.26215094308E+02 -0.13845281640E+02 -0.27102581271E+02  0.40168058266E+02  0.00000000000E+00 0.  1.
        -13    1    3    3    0    0 -0.52920894967E+02  0.91405474334E+01  0.25733226968E+02  0.59551403860E+02  0.00000000000E+00 0.  1.
         13    1    3    3    0    0  0.27487584379E+02 -0.23780286173E+02 -0.10697015114E+02  0.37887932615E+02  0.00000000000E+00 0. -1.
         -1    1    1    2    0  502  0.25220749822E+02 -0.21026688682E+02 -0.16031291720E+02  0.36540527811E+02  0.00000000000E+00 0.  1.
<scales pt_clust_5="13000.00000" pt_clust_6="13000.00000" pt_clust_7="13000.00000" pt_clust_8="13000.00000" pt_clust_9="32.83609"></scales>
<clustering>
<clus scale="   32.836">  2  9  1 -1</clus>
<clus scale="   81.152">  5  6 -1 -1</clus>
<clus scale="   85.741">  2  5  1 -1</clus>
<clus scale="   91.691">  7  8 -1 -1</clus>
<clus scale="   32.836">  2  5  1 -1</clus>
</clustering>
</event>
<event>
 9    1  0.3197504E-005  0.2172468E+03  0.7546771E-02  0.1171329E+00
         -4   -1    0    0    0  501 -0.00000000000E+00  0.00000000000E+00  0.65307823739E+03  0.65307823739E+03  0.00000000000E+00 0.  1.
         21   -1    0    0  501  502  0.00000000000E+00 -0.00000000000E+00 -0.10144242947E+03  0.10144242947E+03  0.00000000000E+00 0.  1.
        -24    2    1    2    0    0  0.17503117911E+02  0.44973035211E+02  0.89481044553E+02  0.13010197285E+03  0.81183329405E+02 0.  0.
         23    2    1    2    0    0  0.13253039458E+03  0.11626256935E+03  0.20957968753E+03  0.28930506554E+03  0.93233497211E+02 0.  0.
         13    1    3    3    0    0  0.24575821679E+02  0.53417813693E+02  0.99262187810E+02  0.11537077515E+03  0.00000000000E+00 0. -1.
        -14    1    3    3    0    0 -0.70727037685E+01 -0.84447784826E+01 -0.97811432567E+01  0.14731197698E+02  0.00000000000E+00 0.  1.
        -11    1    4    4    0    0  0.76899379461E+01  0.36903332445E+02  0.94955035348E+02  0.10216383817E+03  0.00000000000E+00 0. -1.
         11    1    4    4    0    0  0.12484045663E+03  0.79359236908E+02  0.11462465218E+03  0.18714122737E+03  0.00000000000E+00 0.  1.
         -3    1    1    2    0  502 -0.15003351249E+03 -0.16123560456E+03  0.25257507584E+03  0.33511362847E+03  0.00000000000E+00 0.  1.
<scales pt_clust_5="13000.00000" pt_clust_6="13000.00000" pt_clust_7="13000.00000" pt_clust_8="13000.00000" pt_clust_9="196.22370"></scales>
<clustering>
<clus scale="   81.183">  5  6 -1 -1</clus>
<clus scale="   93.233">  7  8 -1 -1</clus>
<clus scale="   94.444">  1  5  2 -1</clus>
<clus scale="  196.224">  2  9  1 -1</clus>
<clus scale="  196.224">  2  5  1 -1</clus>
</clustering>
</event>
<event>
 9    1  0.3197504E-005  0.1015343E+03  0.7546771E-02  0.1283547E+00
         21   -1    0    0  501  502  0.00000000000E+00  0.00000000000E+00  0.26074623445E+02  0.26074623445E+02  0.00000000000E+00 0.  1.
          1   -1    0    0  502    0 -0.00000000000E+00 -0.00000000000E+00 -0.65746665626E+03  0.65746665626E+03  0.00000000000E+00 0. -1.
         23    2    1    2    0    0  0.13007863616E+02 -0.35665344763E+02 -0.43842057930E+03  0.44929887013E+03  0.90640217420E+02 0.  0.
        -24    2    1    2    0    0 -0.19610475110E+02  0.62897271898E+02 -0.16992048121E+03  0.19795853356E+03  0.77291484200E+02 0.  0.
         11    1    4    4    0    0 -0.21667013612E+02  0.60686408306E+02 -0.17801515540E+03  0.18931903017E+03  0.00000000000E+00 0. -1.
        -12    1    4    4    0    0  0.20565385026E+01  0.22108635927E+01  0.80946741973E+01  0.86395033884E+01  0.00000000000E+00 0.  1.
        -13    1    3    3    0    0  0.25728601472E+02 -0.62508659645E+02 -0.27388221666E+03  0.28210062401E+03  0.00000000000E+00 0. -1.
         13    1    3    3    0    0 -0.12720737857E+02  0.26843314883E+02 -0.16453836264E+03  0.16719824612E+03  0.00000000000E+00 0.  1.
          2    1    1    2  501    0  0.66026114941E+01 -0.27231927136E+02 -0.23050972304E+02  0.36283876009E+02  0.00000000000E+00 0. -1.
<scales pt_clust_5="13000.00000" pt_clust_6="13000.00000" pt_clust_7="13000.00000" pt_clust_8="13000.00000" pt_clust_9="28.02093"></scales>
<clustering>
<clus scale="   28.021">  1  9  2 -1</clus>
<clus scale="   77.291">  5  6 -1 -1</clus>
<clus scale="   89.819">  1  5  2 -1</clus>
<clus scale="   90.640">  7  8 -1 -1</clus>
<clus scale="   28.021">  1  5  2 -1</clus>
</clustering>
</event>
<event>
 9    1  0.3197504E-005  0.9985832E+02  0.7546771E-02  0.1286565E+00
         21   -1    0    0  501  502  0.00000000000E+00  0.00000000000E+00  0.12622421580E+03  0.12622421580E+03  0.00000000000E+00 0.  1.
         -2   -1    0    0    0  501 -0.00000000000E+00 -0.00000000000E+00 -0.10565337519E+03  0.10565337519E+03  0.00000000000E+00 0.  1.
         23    2    1    2    0    0  0.31697060187E+02 -0.30123938998E+02 -0.22845557596E+02  0.10496183120E+03  0.92644002408E+02 0.  0.
        -24    2    1    2    0    0 -0.34212127597E+02  0.71068208477E+00  0.22670844770E+02  0.90834695034E+02  0.81030857552E+02 0.  0.
         13    1    4    4    0    0  0.70442768009E+01 -0.23449167827E+02 -0.16080152542E+02  0.29292603388E+02  0.00000000000E+00 0. -1.
        -14    1    4    4    0    0 -0.41256404398E+02  0.24159849912E+02  0.38750997312E+02  0.61542091647E+02  0.00000000000E+00 0.  1.
        -11    1    3    3    0    0 -0.16208883189E+02 -0.25141857286E+02 -0.43304886861E+02  0.52632253496E+02  0.00000000000E+00 0.  1.
         11    1    3    3    0    0  0.47905943376E+02 -0.49820817117E+01  0.20459329266E+02  0.52329577706E+02  0.00000000000E+00 0. -1.
         -1    1    1    2    0  502  0.25150674095E+01  0.29413256913E+02  0.20745553433E+02  0.36081064751E+02  0.00000000000E+00 0.  1.
<scales pt_clust_5="13000.00000" pt_clust_6="13000.00000" pt_clust_7="13000.00000" pt_clust_8="13000.00000" pt_clust_9="29.52059"></scales>
<clustering>
<clus scale="   29.521">  1  9  2 -1</clus>
<clus scale="   81.031">  5  6 -1 -1</clus>
<clus scale="   89.190">  1  5  2 -1</clus>
<clus scale="   92.644">  7  8 -1 -1</clus>
<clus scale="   29.521">  1  5  2 -1</clus>
</clustering>
</event>
<event>
 9    1  0.3197504E-005  0.1399254E+03  0.7546771E-02  0.1215595E+00
         -4   -1    0    0    0  501 -0.00000000000E+00  0.00000000000E+00  0.28571489816E+03  0.28571489816E+03  0.00000000000E+00 0.  1.
         21   -1    0    0  501  502  0.00000000000E+00 -0.00000000000E+00 -0.80607556041E+03  0.80607556041E+03  0.00000000000E+00 0.  1.
        -24    2    1    2    0    0 -0.12544652573E+03  0.20098361507E+02  0.19467031717E+03  0.24634534641E+03  0.81539698055E+02 0.  0.
         23    2    1    2    0    0  0.34236385888E+02 -0.78476817743E+02 -0.30984435678E+01  0.12532340761E+03  0.91463736534E+02 0.  0.
         11    1    3    3    0    0 -0.52022912337E+02 -0.47029898796E+01  0.21242577892E+02  0.56389259947E+02  0.00000000000E+00 0. -1.
        -12    1    3    3    0    0 -0.73423613392E+02  0.24801351386E+02  0.17342773927E+03  0.18995608646E+03  0.00000000000E+00 0.  1.
        -11    1    4    4    0    0 -0.19810018569E+02  0.50733370636E+01  0.13413087301E+02  0.24455806991E+02  0.00000000000E+00 0.  1.
         11    1    4    4    0    0  0.54046404457E+02 -0.83550154807E+02 -0.16511530868E+02  0.10086760062E+03  0.00000000000E+00 0. -1.
         -3    1    1    2    0  502  0.91210139841E+02  0.58378456236E+02 -0.71193253585E+03  0.72012170455E+03  0.00000000000E+00 0.  1.
<scales pt_clust_5="13000.00000" pt_clust_6="13000.00000" pt_clust_7="13000.00000" pt_clust_8="13000.00000" pt_clust_9="108.29281"></scales>
<clustering>
<clus scale="   81.540">  5  6 -1 -1</clus>
<clus scale="   91.464">  7  8 -1 -1</clus>
<clus scale="  108.293">  2  9  1 -1</clus>
<clus scale="  133.650">  1  5  2 -1</clus>
<clus scale="  108.293">  2  5  1 -1</clus>
</clustering>
</event>
<event>
 9    1  0.3197504E-005  0.3258727E+03  0.7546771E-02  0.1090602E+00
          1   -1    0    0  502    0 -0.00000000000E+00  0.00000000000E+00  0.39209636275E+03  0.39209636275E+03  0.00000000000E+00 0. -1.
         21   -1    0    0  501  502  0.00000000000E+00 -0.00000000000E+00 -0.74609673979E+03  0.74609673979E+03  0.00000000000E+00 0. -1.
        -24    2    1    2    0    0 -0.15562380581E+03 -0.99811281633E+02  0.18359591869E+03  0.27372602381E+03  0.83889295351E+02 0.  0.
         23    2    1    2    0    0 -0.21381394834E+03 -0.28214898007E+01 -0.37098407828E+02  0.23397847792E+03  0.87437240085E+02 0.  0.
         11    1    3    3    0    0 -0.13503260297E+03 -0.11154413765E+03  0.17726369432E+03  0.24919533670E+03  0.00000000000E+00 0. -1.
        -12    1    3    3    0    0 -0.20591202836E+02  0.11732856015E+02  0.63322243707E+01  0.24530687108E+02  0.00000000000E+00 0.  1.
        -11    1    4    4    0    0 -0.19665663618E+03 -0.29802199319E+02 -0.29101259669E+02  0.20101961833E+03  0.00000000000E+00 0. -1.
         11    1    4    4    0    0 -0.17157312163E+02  0.26980709518E+02 -0.79971481591E+01  0.32958859589E+02  0.00000000000E+00 0.  1.
          2    1    1    2  501    0  0.36943775415E+03  0.10263277143E+03 -0.50049788790E+03  0.63048860082E+03  0.00000000000E+00 0. -1.
<scales pt_clust_5="13000.00000" pt_clust_6="13000.00000" pt_clust_7="13000.00000" pt_clust_8="13000.00000" pt_clust_9="313.92314"></scales>
<clustering>
<clus scale="   83.889">  5  6 -1 -1</clus>
<clus scale="   87.437">  7  8 -1 -1</clus>
<clus scale="  203.023">  1  5  2 -1</clus>
<clus scale="  313.923">  2  9  1 -1</clus>
<clus scale="  313.923">  2  5  1 -1</clus>
</clustering>
</event>
<event>
 9    1  0.3197504E-005  0.1071805E+03  0.7546771E-02  0.1271577E+00
         21   -1    0    0  501  502  0.00000000000E+00  0.00000000000E+00  0.30032672602E+03  0.30032672602E+03  0.00000000000E+00 0. -1.
         -2   -1    0    0    0  501 -0.00000000000E+00 -0.00000000000E+00 -0.23624102486E+03  0.23624102486E+03  0.00000000000E+00 0.  1.
         23    2    1    2    0    0 -0.53504342966E+02  0.18956296124E+02 -0.14762423963E+03  0.18339023596E+03  0.92827833326E+02 0.  0.
        -24    2    1    2    0    0  0.30280185224E+02  0.67689363107E+02  0.23631170546E+03  0.26016096483E+03  0.79635205717E+02 0.  0.
         13    1    4    4    0    0  0.24581327501E+02  0.30624178237E+02  0.21168583909E+03  0.21529741389E+03  0.00000000000E+00 0. -1.
        -14    1    4    4    0    0  0.56988577235E+01  0.37065184871E+02  0.24625866364E+02  0.44863550941E+02  0.00000000000E+00 0.  1.
        -13    1    3    3    0    0 -0.24973548251E+02 -0.36797241898E+02 -0.77636086087E+02  0.89471095816E+02  0.00000000000E+00 0. -1.
         13    1    3    3    0    0 -0.28530794714E+02  0.55753538021E+02 -0.69988153540E+02  0.93919140141E+02  0.00000000000E+00 0.  1.
         -1    1    1    2    0  502  0.23224157741E+02 -0.86645659231E+02 -0.24601764666E+02  0.93016550092E+02  0.00000000000E+00 0.  1.
<scales pt_clust_5="13000.00000" pt_clust_6="13000.00000" pt_clust_7="13000.00000" pt_clust_8="13000.00000" pt_clust_9="89.70418"></scales>
<clustering>
<clus scale="   79.635">  5  6 -1 -1</clus>
<clus scale="   89.704">  1  9  2 -1</clus>
<clus scale="   92.828">  7  8 -1 -1</clus>
<clus scale="   95.981">  1  5  2 -1</clus>
<clus scale="   89.704">  1  5  2 -1</clus>
</clustering>
</event>
<event>
 9    1  0.3197504E-005  0.1030089E+03  0.7546771E-02  0.1279562E+00
         -2   -1    0    0    0  501 -0.00000000000E+00  0.00000000000E+00  0.16404180201E+03  0.16404180201E+03  0.00000000000E+00 0.  1.
         21   -1    0    0  501  502  0.00000000000E+00 -0.00000000000E+00 -0.25590641677E+03  0.25590641677E+03  0.00000000000E+00 0. -1.
        -24    2    1    2    0    0  0.23235980220E-02 -0.36604380638E+02  0.30176942485E+02  0.94418632551E+02  0.81635467952E+02 0.  0.
         23    2    1    2    0    0  0.23765063387E+02  0.92670743967E+02 -0.19132203935E+03  0.23329016417E+03  0.93099586103E+02 0.  0.
         11    1    3    3    0    0 -0.38183119448E+02 -0.29877715390E+02  0.27051498623E+02  0.55519474651E+02  0.00000000000E+00 0. -1.
        -12    1    3    3    0    0  0.38185443046E+02 -0.67266652479E+01  0.31254438619E+01  0.38899157900E+02  0.00000000000E+00 0.  1.
        -11    1    4    4    0    0  0.19108488499E+02 -0.15833730626E+02 -0.32673749483E+02  0.41029443861E+02  0.00000000000E+00 0.  1.
         11    1    4    4    0    0  0.46565748872E+01  0.10850447459E+03 -0.15864828986E+03  0.19226072031E+03  0.00000000000E+00 0. -1.
         -1    1    1    2    0  502 -0.23767386985E+02 -0.56066363329E+02  0.69280482109E+02  0.92239422062E+02  0.00000000000E+00 0.  1.
<scales pt_clust_5="13000.00000" pt_clust_6="13000.00000" pt_clust_7="13000.00000" pt_clust_8="13000.00000" pt_clust_9="60.89605"></scales>
<clustering>
<clus scale="   60.896">  2  9  1 -1</clus>
<clus scale="   81.635">  5  6 -1 -1</clus>
<clus scale="   92.777">  1  5  2 -1</clus>
<clus scale="   93.100">  7  8 -1 -1</clus>
<clus scale="   60.896">  2  5  1 -1</clus>
</clustering>
</event>
<event>
 9    1  0.3197504E-005  0.1562046E+03  0.7546771E-02  0.1195206E+00
         21   -1    0    0  501  502  0.00000000000E+00  0.00000000000E+00  0.17570030314E+03  0.17570030314E+03  0.00000000000E+00 0.  1.
          3   -1    0    0  502    0 -0.00000000000E+00 -0.00000000000E+00 -0.20518023488E+03  0.20518023488E+03  0.00000000000E+00 0. -1.
        -24    2    1    2    0    0 -0.43873631997E+02 -0.11513105573E+03 -0.86819214254E+02  0.16976645165E+03  0.78121805957E+02 0.  0.
         23    2    1    2    0    0  0.64570788704E+02  0.11918334119E+03  0.15267099989E+02  0.16405176752E+03  0.91136395103E+02 0.  0.
         11    1    3    3    0    0 -0.63997625292E+02 -0.10592589478E+03 -0.73637723017E+02  0.14400869932E+03  0.00000000000E+00 0. -1.
        -12    1    3    3    0    0  0.20123993295E+02 -0.92051609473E+01 -0.13181491237E+02  0.25757752337E+02  0.00000000000E+00 0.  1.
        -13    1    4    4    0    0  0.35386206759E+02  0.86710719742E+02  0.51887895753E+02  0.10706673747E+03  0.00000000000E+00 0.  1.
         13    1    4    4    0    0  0.29184581945E+02  0.32472621449E+02 -0.36620795764E+02  0.56985030047E+02  0.00000000000E+00 0. -1.
          4    1    1    2  501    0 -0.20697156707E+02 -0.40522854657E+01  0.42072182523E+02  0.47062318850E+02  0.00000000000E+00 0. -1.
<scales pt_clust_5="13000.00000" pt_clust_6="13000.00000" pt_clust_7="13000.00000" pt_clust_8="13000.00000" pt_clust_9="21.09012"></scales>
<clustering>
<clus scale="   21.090">  1  9  2 -1</clus>
<clus scale="   78.122">  5  6 -1 -1</clus>
<clus scale="   91.136">  7  8 -1 -1</clus>
<clus scale="  148.987">  2  5  1 -1</clus>
<clus scale="   21.090">  1  5  2 -1</clus>
</clustering>
</event>
<event>
 9    1  0.3197504E-005  0.1106245E+03  0.7546771E-02  0.1263839E+00
         21   -1    0    0  501  502  0.00000000000E+00  0.00000000000E+00  0.11175129652E+03  0.11175129652E+03  0.00000000000E+00 0. -1.
         -2   -1    0    0    0  501 -0.00000000000E+00 -0.00000000000E+00 -0.14098192229E+03  0.14098192229E+03  0.00000000000E+00 0.  1.
        -24    2    1    2    0    0  0.14282339284E+01 -0.62869875119E+02 -0.28990055411E+02  0.10725229130E+03  0.81902195494E+02 0.  0.
         23    2    1    2    0    0  0.24641317980E+02  0.53251353208E+02  0.19081145275E+02  0.11163619090E+03  0.93035734230E+02 0.  0.
         13    1    3    3    0    0  0.32838050205E+02 -0.10715599845E+02 -0.30891264579E+02  0.46340391114E+02  0.00000000000E+00 0. -1.
        -14    1    3    3    0    0 -0.31409816277E+02 -0.52154275274E+02  0.19012091683E+01  0.60911900186E+02  0.00000000000E+00 0.  1.
        -11    1    4    4    0    0  0.12193464315E+02  0.78825492728E+02  0.50547636014E+01  0.79923022408E+02  0.00000000000E+00 0.  1.
         11    1    4    4    0    0  0.12447853665E+02 -0.25574139520E+02  0.14026381674E+02  0.31713168493E+02  0.00000000000E+00 0. -1.
         -1    1    1    2    0  502 -0.26069551909E+02  0.96185219112E+01 -0.19321715634E+02  0.33844736600E+02  0.00000000000E+00 0.  1.
<scales pt_clust_5="13000.00000" pt_clust_6="13000.00000" pt_clust_7="13000.00000" pt_clust_8="13000.00000" pt_clust_9="27.78738"></scales>
<clustering>
<clus scale="   27.787">  1  9  2 -1</clus>
<clus scale="   81.902">  5  6 -1 -1</clus>
<clus scale="   93.036">  7  8 -1 -1</clus>
<clus scale="  101.440">  2  5  1 -1</clus>
<clus scale="   27.787">  1  5  2 -1</clus>
</clustering>
</event>
<event>
 9    1  0.3197504E-005  0.2570321E+03  0.7546771E-02  0.1139646E+00
         -2   -1    0    0    0  501 -0.00000000000E+00  0.00000000000E+00  0.10178298331E+04  0.10178298331E+04  0.00000000000E+00 0.  1.
         21   -1    0    0  501  502  0.00000000000E+00 -0.00000000000E+00 -0.13483028880E+03  0.13483028880E+03  0.00000000000E+00 0.  1.
        -24    2    1    2    0    0  0.16994452939E+02  0.85278760310E+02  0.50004574711E+03  0.51423189798E+03  0.82628187150E+02 0.  0.
         23    2    1    2    0    0 -0.17737421316E+03  0.12197340864E+03  0.25787174523E+03  0.34804804426E+03  0.91106971296E+02 0.  0.
         11    1    3    3    0    0  0.22356593507E+02  0.24280055506E+02  0.49189515842E+02  0.59236364148E+02  0.00000000000E+00 0. -1.
        -12    1    3    3    0    0 -0.53621405682E+01  0.60998704804E+02  0.45085623126E+03  0.45499553383E+03  0.00000000000E+00 0.  1.
        -13    1    4    4    0    0 -0.18360472038E+02 -0.10387105749E+02  0.52281773617E+02  0.56377147426E+02  0.00000000000E+00 0. -1.
         13    1    4    4    0    0 -0.15901374112E+03  0.13236051439E+03  0.20558997161E+03  0.29167089683E+03  0.00000000000E+00 0.  1.
         -1    1    1    2    0  502  0.16037976022E+03 -0.20725216895E+03  0.12508205198E+03  0.29038017968E+03  0.00000000000E+00 0.  1.
<scales pt_clust_5="13000.00000" pt_clust_6="13000.00000" pt_clust_7="13000.00000" pt_clust_8="13000.00000" pt_clust_9="240.34358"></scales>
<clustering>
<clus scale="   82.628">  5  6 -1 -1</clus>
<clus scale="   91.107">  7  8 -1 -1</clus>
<clus scale="  119.953">  1  5  2 -1</clus>
<clus scale="  240.344">  2  9  1 -1</clus>
<clus scale="  240.344">  2  5  1 -1</clus>
</clustering>
</event>
<event>
 9    1  0.3197504E-005  0.1285786E+03  0.7546771E-02  0.1232999E+00
         21   -1    0    0  501  502  0.00000000000E+00  0.00000000000E+00  0.12219283364E+03  0.12219283364E+03  0.00000000000E+00 0. -1.
          1   -1    0    0  502    0 -0.00000000000E+00 -0.00000000000E+00 -0.47825023377E+03  0.47825023377E+03  0.00000000000E+00 0. -1.
        -24    2    1    2    0    0 -0.48491571219E+02  0.72187878554E+02 -0.36239493597E+03  0.38119827488E+03  0.80121862591E+02 0.  0.
         23    2    1    2    0    0  0.24831409291E+02 -0.10269997288E+03 -0.51508067930E+02  0.14969693104E+03  0.92694157217E+02 0.  0.
         11    1    3    3    0    0 -0.70994087616E+02  0.51911306476E+02 -0.27133379789E+03  0.28523143952E+03  0.00000000000E+00 0. -1.
        -12    1    3    3    0    0  0.22502516397E+02  0.20276572078E+02 -0.91061138078E+02  0.95966835352E+02  0.00000000000E+00 0.  1.
        -13    1    4    4    0    0  0.40716395538E+02 -0.25388912251E+02 -0.52017810053E+02  0.70769162024E+02  0.00000000000E+00 0.  1.
         13    1    4    4    0    0 -0.15884986247E+02 -0.77311060633E+02  0.50974212349E+00  0.78927769012E+02  0.00000000000E+00 0. -1.
          2    1    1    2  501    0  0.23660161927E+02  0.30512094329E+02  0.57845603768E+02  0.69547861492E+02  0.00000000000E+00 0. -1.
<scales pt_clust_5="13000.00000" pt_clust_6="13000.00000" pt_clust_7="13000.00000" pt_clust_8="13000.00000" pt_clust_9="38.61076"></scales>
<clustering>
<clus scale="   38.611">  1  9  2 -1</clus>
<clus scale="   80.122">  5  6 -1 -1</clus>
<clus scale="   92.694">  7  8 -1 -1</clus>
<clus scale="  119.832">  2  5  1 -1</clus>
<clus scale="   38.611">  1  5  2 -1</clus>
</clustering>
</event>
<event>
 9    1  0.3197504E-005  0.1345990E+03  0.7546771E-02  0.1221752E+00
         21   -1    0    0  501  502  0.00000000000E+00  0.00000000000E+00  0.96694250145E+02  0.96694250145E+02  0.00000000000E+00 0. -1.
          3   -1    0    0  502    0 -0.00000000000E+00 -0.00000000000E+00 -0.28769312218E+03  0.28769312218E+03  0.00000000000E+00 0. -1.
         23    2    1    2    0    0 -0.11025492503E+03  0.37343654046E+02 -0.16566144588E+03  0.22159751383E+03  0.90061348497E+02 0.  0.
        -24    2    1    2    0    0  0.63239489193E+02 -0.38507582738E+02 -0.22480571292E+02  0.11567332682E+03  0.85981832555E+02 0.  0.
         11    1    4    4    0    0  0.72775498334E+02 -0.57135103174E+02 -0.17549366203E+02  0.94173634456E+02  0.00000000000E+00 0. -1.
        -12    1    4    4    0    0 -0.95360091412E+01  0.18627520437E+02 -0.49312050893E+01  0.21499692360E+02  0.00000000000E+00 0.  1.
        -13    1    3    3    0    0 -0.59869826711E+02  0.57630623436E+02 -0.59040163502E+02  0.10193834320E+03  0.00000000000E+00 0.  1.
         13    1    3    3    0    0 -0.50385098323E+02 -0.20286969390E+02 -0.10662128238E+03  0.11965917063E+03  0.00000000000E+00 0. -1.
          4    1    1    2  501    0  0.47015435841E+02  0.11639286917E+01 -0.28568548575E+01  0.47116531674E+02  0.00000000000E+00 0. -1.
<scales pt_clust_5="13000.00000" pt_clust_6="13000.00000" pt_clust_7="13000.00000" pt_clust_8="13000.00000" pt_clust_9="47.02984"></scales>
<clustering>
<clus scale="   47.030">  1  9  2 -1</clus>
<clus scale="   85.982">  5  6 -1 -1</clus>
<clus scale="   90.061">  7  8 -1 -1</clus>
<clus scale="  131.904">  1  5  2 -1</clus>
<clus scale="   47.030">  1  5  2 -1</clus>
</clustering>
</event>
<event>
 9    1  0.3197504E-005  0.9719444E+02  0.7546771E-02  0.1293088E+00
          1   -1    0    0  502    0 -0.00000000000E+00  0.00000000000E+00  0.37965079904E+03  0.37965079904E+03  0.00000000000E+00 0. -1.
         21   -1    0    0  501  502  0.00000000000E+00 -0.00000000000E+00 -0.39022954659E+02  0.39022954659E+02  0.00000000000E+00 0. -1.
        -24    2    1    2    0    0  0.20179623340E+02  0.35520815025E+02  0.22801686888E+03  0.24479993727E+03  0.79160414936E+02 0.  0.
         23    2    1    2    0    0 -0.63359189024E+01 -0.15328248204E+02  0.11647489208E+03  0.14908838203E+03  0.91574265543E+02 0.  0.
         11    1    3    3    0    0  0.39380038936E+02  0.97988536511E+01  0.19331920334E+03  0.19753257802E+03  0.00000000000E+00 0. -1.
        -12    1    3    3    0    0 -0.19200415596E+02  0.25721961374E+02  0.34697665540E+02  0.47267359244E+02  0.00000000000E+00 0.  1.
        -11    1    4    4    0    0 -0.23427454704E+02 -0.48464872957E+02  0.53439291780E+02  0.75851482850E+02  0.00000000000E+00 0.  1.
         11    1    4    4    0    0  0.17091535802E+02  0.33136624753E+02  0.63035600299E+02  0.73236899177E+02  0.00000000000E+00 0. -1.
          2    1    1    2  501    0 -0.13843704438E+02 -0.20192566820E+02 -0.38639165775E+01  0.24785434406E+02  0.00000000000E+00 0. -1.
<scales pt_clust_5="13000.00000" pt_clust_6="13000.00000" pt_clust_7="13000.00000" pt_clust_8="13000.00000" pt_clust_9="24.48240"></scales>
<clustering>
<clus scale="   24.482">  2  9  1 -1</clus>
<clus scale="   79.160">  5  6 -1 -1</clus>
<clus scale="   85.600">  1  5  2 -1</clus>
<clus scale="   91.574">  7  8 -1 -1</clus>
<clus scale="   24.482">  2  5  1 -1</clus>
</clustering>
</event>
<event>
 9    1  0.3197504E-005  0.1054878E+03  0.7546771E-02  0.1273298E+00
         21   -1    0    0  501  502  0.00000000000E+00  0.00000000000E+00  0.96667774510E+02  0.96667774510E+02  0.00000000000E+00 0. -1.
         -2   -1    0    0    0  501 -0.00000000000E+00 -0.00000000000E+00 -0.29852824744E+03  0.29852824744E+03  0.00000000000E+00 0.  1.
         23    2    1    2    0    0 -0.36402787004E+02 -0.46701895206E+02 -0.21376245439E+03  0.23944977330E+03  0.90197434046E+02 0.  0.
        -24    2    1    2    0    0  0.12779878348E+02  0.24413560966E+02  0.55299140225E+02  0.10154177425E+03  0.80581572075E+02 0.  0.
         13    1    4    4    0    0 -0.57193855657E+01  0.47835027788E+02  0.13227384231E+02  0.49958632370E+02  0.00000000000E+00 0. -1.
        -14    1    4    4    0    0  0.18499263913E+02 -0.23421466822E+02  0.42071755994E+02  0.51583141877E+02  0.00000000000E+00 0.  1.
        -11    1    3    3    0    0 -0.55296522574E+01 -0.53791496315E+02 -0.53432697862E+02  0.76020755920E+02  0.00000000000E+00 0. -1.
         11    1    3    3    0    0 -0.30873134746E+02  0.70896011087E+01 -0.16032975653E+03  0.16342901738E+03  0.00000000000E+00 0.  1.
         -1    1    1    2    0  502  0.23622908656E+02  0.22288334240E+02 -0.43397158768E+02  0.54204474407E+02  0.00000000000E+00 0.  1.
<scales pt_clust_5="13000.00000" pt_clust_6="13000.00000" pt_clust_7="13000.00000" pt_clust_8="13000.00000" pt_clust_9="32.47788"></scales>
<clustering>
<clus scale="   32.478">  1  9  2 -1</clus>
<clus scale="   80.582">  5  6 -1 -1</clus>
<clus scale="   90.197">  7  8 -1 -1</clus>
<clus scale="   97.394">  1  5  2 -1</clus>
<clus scale="   32.478">  1  5  2 -1</clus>
</clustering>
</event>
<event>
 9    1  0.3197504E-005  0.1553210E+03  0.7546771E-02  0.1197120E+00
          1   -1    0    0  502    0 -0.00000000000E+00  0.00000000000E+00  0.93808238254E+03  0.93808238254E+03  0.00000000000E+00 0. -1.
         21   -1    0    0  501  502  0.00000000000E+00 -0.00000000000E+00 -0.71386787809E+02  0.71386787809E+02  0.00000000000E+00 0. -1.
         23    2    1    2    0    0 -0.14214040989E+03 -0.13532584550E+02  0.43917863776E+03  0.47079677105E+03  0.91567989992E+02 0.  0.
        -24    2    1    2    0    0  0.39624114209E+02  0.13711509808E+03  0.25764235891E+03  0.30492123332E+03  0.78909776836E+02 0.  0.
         13    1    4    4    0    0  0.22139155833E+02  0.12495326310E+03  0.25311855571E+03  0.28314742349E+03  0.00000000000E+00 0. -1.
        -14    1    4    4    0    0  0.17484958376E+02  0.12161834974E+02  0.45238031910E+01  0.21773809833E+02  0.00000000000E+00 0.  1.
        -13    1    3    3    0    0 -0.26503377277E+02  0.35138526739E+02  0.10564527578E+03  0.11444679709E+03  0.00000000000E+00 0.  1.
         13    1    3    3    0    0 -0.11563703261E+03 -0.48671111289E+02  0.33353336198E+03  0.35634997396E+03  0.00000000000E+00 0. -1.
          2    1    1    2  501    0  0.10251629568E+03 -0.12358251353E+03  0.16987459806E+03  0.23375116598E+03  0.00000000000E+00 0. -1.
<scales pt_clust_5="13000.00000" pt_clust_6="13000.00000" pt_clust_7="13000.00000" pt_clust_8="13000.00000" pt_clust_9="160.56845"></scales>
<clustering>
<clus scale="   78.910">  5  6 -1 -1</clus>
<clus scale="   91.568">  7  8 -1 -1</clus>
<clus scale="  160.568">  2  9  1 -1</clus>
<clus scale="  160.568">  2  5  1 -1</clus>
<clus scale="  155.321">  2  5  1 -1</clus>
</clustering>
</event>
<event>
 9    1  0.3197504E-005  0.2219533E+03  0.7546771E-02  0.1150905E+00
          1   -1    0    0  502    0 -0.00000000000E+00  0.00000000000E+00  0.14940982383E+04  0.14940982383E+04  0.00000000000E+00 0. -1.
         21   -1    0    0  501  502  0.00000000000E+00 -0.00000000000E+00 -0.65118007055E+02  0.65118007055E+02  0.00000000000E+00 0.  1.
         23    2    1    2    0    0  0.74345433171E+02  0.71539153194E+02  0.32761082580E+03  0.35719906806E+03  0.98067462347E+02 0.  0.
        -24    2    1    2    0    0 -0.66947999806E+02  0.15453772318E+03  0.81973149883E+03  0.84078956692E+03  0.81261449158E+02 0.  0.
         13    1    4    4    0    0 -0.62126781274E+02  0.63867172617E+02  0.52099953574E+03  0.52856340105E+03  0.00000000000E+00 0. -1.
        -14    1    4    4    0    0 -0.48212185320E+01  0.90670550559E+02  0.29873196309E+03  0.31222616588E+03  0.00000000000E+00 0.  1.
        -11    1    3    3    0    0 -0.50758742215E+01  0.58871516037E+02  0.10470208115E+03  0.12022539539E+03  0.00000000000E+00 0.  1.
         11    1    3    3    0    0  0.79421307392E+02  0.12667637157E+02  0.22290874464E+03  0.23697367267E+03  0.00000000000E+00 0. -1.
          2    1    1    2  501    0 -0.73974333648E+01 -0.22607687637E+03  0.28163790664E+03  0.36122761039E+03  0.00000000000E+00 0. -1.
<scales pt_clust_5="13000.00000" pt_clust_6="13000.00000" pt_clust_7="13000.00000" pt_clust_8="13000.00000" pt_clust_9="206.54263"></scales>
<clustering>
<clus scale="   81.261">  5  6 -1 -1</clus>
<clus scale="   98.067">  7  8 -1 -1</clus>
<clus scale="  142.346">  1  7  2 -1</clus>
<clus scale="  206.543">  2  9  1 -1</clus>
<clus scale="  206.543">  2  5  1 -1</clus>
</clustering>
</event>
<event>
 9    1  0.3197504E-005  0.1100159E+03  0.7546771E-02  0.1266853E+00
         -2   -1    0    0    0  501 -0.00000000000E+00  0.00000000000E+00  0.53732207977E+03  0.53732207977E+03  0.00000000000E+00 0.  1.
         21   -1    0    0  501  502  0.00000000000E+00 -0.00000000000E+00 -0.39863574125E+02  0.39863574125E+02  0.00000000000E+00 0. -1.
        -24    2    1    2    0    0 -0.16877088263E+02  0.77102340859E+02  0.19769313628E+03  0.22757714614E+03  0.80493317970E+02 0.  0.
         23    2    1    2    0    0  0.12754669076E+02 -0.18183372152E+02  0.95167854726E+02  0.13665644224E+03  0.95523536499E+02 0.  0.
         13    1    3    3    0    0 -0.20075464811E+02  0.85748663028E+02  0.19959817915E+03  0.21816344932E+03  0.00000000000E+00 0. -1.
        -14    1    3    3    0    0  0.31983765479E+01 -0.86463221698E+01 -0.19050428633E+01  0.94136968252E+01  0.00000000000E+00 0.  1.
        -11    1    4    4    0    0 -0.20129101376E+02 -0.39665189460E+02  0.85232134278E+02  0.96140650563E+02  0.00000000000E+00 0.  1.
         11    1    4    4    0    0  0.32883770453E+02  0.21481817308E+02  0.99357204473E+01  0.40515791672E+02  0.00000000000E+00 0. -1.
         -1    1    1    2    0  502  0.41224191870E+01 -0.58918968707E+02  0.20459751463E+03  0.21295206552E+03  0.00000000000E+00 0.  1.
<scales pt_clust_5="13000.00000" pt_clust_6="13000.00000" pt_clust_7="13000.00000" pt_clust_8="13000.00000" pt_clust_9="59.06304"></scales>
<clustering>
<clus scale="   59.063">  2  9  1 -1</clus>
<clus scale="   80.493">  5  6 -1 -1</clus>
<clus scale="   95.524">  7  8 -1 -1</clus>
<clus scale="   97.252">  1  5  2 -1</clus>
<clus scale="   59.063">  2  5  1 -1</clus>
</clustering>
</event>
<event>
 9    1  0.3197504E-005  0.1289494E+03  0.7546771E-02  0.1232479E+00
          1   -1    0    0  502    0 -0.00000000000E+00  0.00000000000E+00  0.29714751265E+03  0.29714751265E+03  0.00000000000E+00 0. -1.
         21   -1    0    0  501  502  0.00000000000E+00 -0.00000000000E+00 -0.72846542101E+02  0.72846542101E+02  0.00000000000E+00 0. -1.
        -24    2    1    2    0    0  0.39012148605E+02 -0.88403718619E+02  0.17967440749E+03  0.21948577288E+03  0.80956448698E+02 0.  0.
         23    2    1    2    0    0 -0.32556386498E+02  0.64388723082E+02  0.42304720230E+02  0.12553253705E+03  0.93610376255E+02 0.  0.
         11    1    3    3    0    0  0.55635098855E+02 -0.36253339354E+02  0.12805789795E+03  0.14425114927E+03  0.00000000000E+00 0. -1.
        -12    1    3    3    0    0 -0.16622950250E+02 -0.52150379265E+02  0.51616509543E+02  0.75234623611E+02  0.00000000000E+00 0.  1.
        -11    1    4    4    0    0 -0.18014771229E+02  0.49523904509E+02  0.72033782779E+02  0.89252534763E+02  0.00000000000E+00 0.  1.
         11    1    4    4    0    0 -0.14541615269E+02  0.14864818573E+02 -0.29729062550E+02  0.36280002287E+02  0.00000000000E+00 0. -1.
          2    1    1    2  501    0 -0.64557621071E+01  0.24014995537E+02  0.23218428265E+01  0.24975744817E+02  0.00000000000E+00 0. -1.
<scales pt_clust_5="13000.00000" pt_clust_6="13000.00000" pt_clust_7="13000.00000" pt_clust_8="13000.00000" pt_clust_9="24.86759"></scales>
<clustering>
<clus scale="   24.868">  2  9  1 -1</clus>
<clus scale="   80.956">  5  6 -1 -1</clus>
<clus scale="   93.610">  7  8 -1 -1</clus>
<clus scale="  120.079">  1  5  2 -1</clus>
<clus scale="   24.868">  2  5  1 -1</clus>
</clustering>
</event>
<event>
 9    1  0.3197504E-005  0.1653930E+03  0.7546771E-02  0.1184631E+00
          1   -1    0    0  502    0 -0.00000000000E+00  0.00000000000E+00  0.93781150845E+03  0.93781150845E+03  0.00000000000E+00 0. -1.
         21   -1    0    0  501  502  0.00000000000E+00 -0.00000000000E+00 -0.35666086223E+02  0.35666086223E+02  0.00000000000E+00 0. -1.
         23    2    1    2    0    0  0.14733194788E+03  0.36536191588E+01  0.55844758070E+03  0.58481264466E+03  0.91771875702E+02 0.  0.
        -24    2    1    2    0    0 -0.12418320805E+03  0.19323204447E+02  0.29255118254E+03  0.32800376552E+03  0.78774490773E+02 0.  0.
         11    1    4    4    0    0 -0.10170078142E+03  0.77895893850E+01  0.28328812992E+03  0.30109116759E+03  0.00000000000E+00 0. -1.
        -12    1    4    4    0    0 -0.22482426630E+02  0.11533615062E+02  0.92630526180E+01  0.26912597931E+02  0.00000000000E+00 0.  1.
        -13    1    3    3    0    0  0.69073023568E+02 -0.43837682790E+02  0.27967423320E+03  0.29139406606E+03  0.00000000000E+00 0. -1.
         13    1    3    3    0    0  0.78258924309E+02  0.47491301949E+02  0.27877334749E+03  0.29341857860E+03  0.00000000000E+00 0.  1.
          2    1    1    2  501    0 -0.23148739828E+02 -0.22976823606E+02  0.51146658992E+02  0.60661184498E+02  0.00000000000E+00 0. -1.
<scales pt_clust_5="13000.00000" pt_clust_6="13000.00000" pt_clust_7="13000.00000" pt_clust_8="13000.00000" pt_clust_9="32.61593"></scales>
<clustering>
<clus scale="   32.616">  2  9  1 -1</clus>
<clus scale="   78.774">  5  6 -1 -1</clus>
<clus scale="   91.772">  7  8 -1 -1</clus>
<clus scale="  158.550">  2  5  1 -1</clus>
<clus scale="   32.616">  2  5  1 -1</clus>
</clustering>
</event>
<event>
 9    1  0.3197504E-005  0.9748790E+02  0.7546771E-02  0.1293206E+00
         21   -1    0    0  501  502  0.00000000000E+00  0.00000000000E+00  0.89912054114E+02  0.89912054114E+02  0.00000000000E+00 0.  1.
         -4   -1    0    0    0  501 -0.00000000000E+00 -0.00000000000E+00 -0.13886203928E+03  0.13886203928E+03  0.00000000000E+00 0.  1.
        -24    2    1    2    0    0 -0.16586440191E+02  0.30496787864E+02 -0.65772003602E+02  0.10869299700E+03  0.79265673978E+02 0.  0.
         23    2    1    2    0    0  0.17495064312E+02 -0.78583441104E+01  0.20813074392E+02  0.97075591376E+02  0.92858255034E+02 0.  0.
         11    1    3    3    0    0  0.21038113100E+02  0.80791240333E+01  0.71383638703E+01  0.23639599969E+02  0.00000000000E+00 0. -1.
        -12    1    3    3    0    0 -0.37624553291E+02  0.22417663831E+02 -0.72910367472E+02  0.85053397033E+02  0.00000000000E+00 0.  1.
        -11    1    4    4    0    0 -0.19918879371E+02  0.21351191681E+02  0.36811295678E+02  0.46986238741E+02  0.00000000000E+00 0.  1.
         11    1    4    4    0    0  0.37413943682E+02 -0.29209535791E+02 -0.15998221286E+02  0.50089352634E+02  0.00000000000E+00 0. -1.
         -3    1    1    2    0  502 -0.90862412062E+00 -0.22638443754E+02 -0.39910559543E+01  0.23005505015E+02  0.00000000000E+00 0.  1.
<scales pt_clust_5="13000.00000" pt_clust_6="13000.00000" pt_clust_7="13000.00000" pt_clust_8="13000.00000" pt_clust_9="22.65667"></scales>
<clustering>
<clus scale="   22.657">  1  9  2 -1</clus>
<clus scale="   79.266">  5  6 -1 -1</clus>
<clus scale="   84.642">  2  5  1 -1</clus>
<clus scale="   92.858">  7  8 -1 -1</clus>
<clus scale="   22.657">  1  5  2 -1</clus>
</clustering>
</event>
<event>
 9    1  0.3197504E-005  0.1215915E+03  0.7546771E-02  0.1252106E+00
         21   -1    0    0  501  502  0.00000000000E+00  0.00000000000E+00  0.31224374949E+02  0.31224374949E+02  0.00000000000E+00 0.  1.
          1   -1    0    0  502    0 -0.00000000000E+00 -0.00000000000E+00 -0.11852846928E+04  0.11852846928E+04  0.00000000000E+00 0. -1.
         23    2    1    2    0    0 -0.30040011090E+02 -0.21036927202E+01 -0.96585930895E+02  0.13637749994E+03  0.91450274218E+02 0.  0.
        -24    2    1    2    0    0 -0.71405034213E+02 -0.30108915906E+02 -0.48042919465E+03  0.49335230494E+03  0.81111404785E+02 0.  0.
         13    1    4    4    0    0 -0.50966451501E+02 -0.47804043977E+02 -0.20464257056E+03  0.21624381491E+03  0.00000000000E+00 0. -1.
        -14    1    4    4    0    0 -0.20438582711E+02  0.17695128071E+02 -0.27578662409E+03  0.27710849003E+03  0.00000000000E+00 0.  1.
        -13    1    3    3    0    0  0.22592400191E+02 -0.27407632959E+02 -0.22514959775E+02  0.42053754939E+02  0.00000000000E+00 0. -1.
         13    1    3    3    0    0 -0.52632411281E+02  0.25303940239E+02 -0.74070971120E+02  0.94323745004E+02  0.00000000000E+00 0.  1.
          2    1    1    2  501    0  0.10144504530E+03  0.32212608626E+02 -0.57704519232E+03  0.58677926288E+03  0.00000000000E+00 0. -1.
<scales pt_clust_5="13000.00000" pt_clust_6="13000.00000" pt_clust_7="13000.00000" pt_clust_8="13000.00000" pt_clust_9="90.58387"></scales>
<clustering>
<clus scale="   81.111">  5  6 -1 -1</clus>
<clus scale="   91.450">  7  8 -1 -1</clus>
<clus scale="   96.281">  2  7  1 -1</clus>
<clus scale="   90.584">  1  9  2 -1</clus>
<clus scale="   90.584">  1  5  2 -1</clus>
</clustering>
</event>
<event>
 9    1  0.3197504E-005  0.1088962E+03  0.7546771E-02  0.1270495E+00
         -2   -1    0    0    0  501 -0.00000000000E+00  0.00000000000E+00  0.92201399038E+03  0.92201399038E+03  0.00000000000E+00 0.  1.
         21   -1    0    0  501  502  0.00000000000E+00 -0.00000000000E+00 -0.36256925549E+02  0.36256925549E+02  0.00000000000E+00 0.  1.
        -24    2    1    2    0    0  0.56483733011E+02 -0.38510374730E+00  0.47669837799E+03  0.48632858579E+03  0.77997367804E+02 0.  0.
         23    2    1    2    0    0 -0.37465816940E+02 -0.40739349966E+02  0.41190621126E+03  0.42654397973E+03  0.95966961454E+02 0.  0.
         11    1    3    3    0    0  0.29849844827E+02  0.21497016358E+02  0.79057612067E+02  0.87196565152E+02  0.00000000000E+00 0. -1.
        -12    1    3    3    0    0  0.26633888184E+02 -0.21882120105E+02  0.39764076592E+03  0.39913202064E+03  0.00000000000E+00 0.  1.
        -11    1    4    4    0    0 -0.57367503790E+02 -0.60053459504E+02  0.30884979275E+03  0.31982126723E+03  0.00000000000E+00 0.  1.
         11    1    4    4    0    0  0.19901686850E+02  0.19314109537E+02  0.10305641851E+03  0.10672271250E+03  0.00000000000E+00 0. -1.
         -1    1    1    2    0  502 -0.19017916070E+02  0.41124453714E+02 -0.28475244141E+01  0.45398350413E+02  0.00000000000E+00 0.  1.
<scales pt_clust_5="13000.00000" pt_clust_6="13000.00000" pt_clust_7="13000.00000" pt_clust_8="13000.00000" pt_clust_9="45.30896"></scales>
<clustering>
<clus scale="   45.309">  2  9  1 -1</clus>
<clus scale="   77.997">  5  6 -1 -1</clus>
<clus scale="   93.447">  1  5  2 -1</clus>
<clus scale="   95.967">  7  8 -1 -1</clus>
<clus scale="   45.309">  2  5  1 -1</clus>
</clustering>
</event>
<event>
 9    1  0.3197504E-005  0.9288120E+02  0.7546771E-02  0.1304752E+00
         21   -1    0    0  501  502  0.00000000000E+00  0.00000000000E+00  0.28526890226E+03  0.28526890226E+03  0.00000000000E+00 0. -1.
         -2   -1    0    0    0  501 -0.00000000000E+00 -0.00000000000E+00 -0.63183275256E+02  0.63183275256E+02  0.00000000000E+00 0.  1.
        -24    2    1    2    0    0 -0.67364750209E+01 -0.16442639322E+02  0.18385630165E+02  0.83083151630E+02  0.79050858343E+02 0.  0.
         23    2    1    2    0    0 -0.10753529514E+02 -0.45668623349E+02  0.10811050501E+03  0.15003880366E+03  0.92857416268E+02 0.  0.
         11    1    3    3    0    0 -0.19660136969E+02  0.24342440770E+02  0.24662968783E+02  0.39841403558E+02  0.00000000000E+00 0. -1.
        -12    1    3    3    0    0  0.12923661948E+02 -0.40785080092E+02 -0.62773386177E+01  0.43241748073E+02  0.00000000000E+00 0.  1.
        -11    1    4    4    0    0 -0.78920008676E+01  0.19609474660E+02 -0.27893996340E+01  0.21321255227E+02  0.00000000000E+00 0.  1.
         11    1    4    4    0    0 -0.28615286467E+01 -0.65278098009E+02  0.11089990464E+03  0.12871754844E+03  0.00000000000E+00 0. -1.
         -1    1    1    2    0  502  0.17490004535E+02  0.62111262671E+02  0.95589491830E+02  0.11533022222E+03  0.00000000000E+00 0.  1.
<scales pt_clust_5="13000.00000" pt_clust_6="13000.00000" pt_clust_7="13000.00000" pt_clust_8="13000.00000" pt_clust_9="64.52681"></scales>
<clustering>
<clus scale="   64.527">  1  9  2 -1</clus>
<clus scale="   79.051">  5  6 -1 -1</clus>
<clus scale="   79.079">  2  5  1 -1</clus>
<clus scale="   92.857">  7  8 -1 -1</clus>
<clus scale="   64.527">  1  5  2 -1</clus>
</clustering>
</event>
<event>
 9    1  0.3197504E-005  0.1087193E+03  0.7546771E-02  0.1267306E+00
         21   -1    0    0  501  502  0.00000000000E+00  0.00000000000E+00  0.22111332490E+03  0.22111332490E+03  0.00000000000E+00 0. -1.
          1   -1    0    0  502    0 -0.00000000000E+00 -0.00000000000E+00 -0.19191489775E+03  0.19191489775E+03  0.00000000000E+00 0. -1.
         23    2    1    2    0    0 -0.36152911158E+02 -0.18672237888E+02 -0.82881619434E+02  0.13144383025E+03  0.93554434520E+02 0.  0.
        -24    2    1    2    0    0  0.13488927859E+03  0.17426948059E+02  0.74162966959E+02  0.17581045455E+03  0.83128540619E+02 0.  0.
         13    1    4    4    0    0  0.58409271745E+02  0.20193959952E+02 -0.93842606101E+01  0.62510026328E+02  0.00000000000E+00 0. -1.
        -14    1    4    4    0    0  0.76480006843E+02 -0.27670118935E+01  0.83547227569E+02  0.11330042823E+03  0.00000000000E+00 0.  1.
        -11    1    3    3    0    0 -0.29567716651E+02 -0.50650018682E+02 -0.79253498957E+02  0.98594073642E+02  0.00000000000E+00 0. -1.
         11    1    3    3    0    0 -0.65851945070E+01  0.31977780793E+02 -0.36281204778E+01  0.32849756610E+02  0.00000000000E+00 0.  1.
          2    1    1    2  501    0 -0.98736367430E+02  0.12452898295E+01  0.37917079617E+02  0.10577393784E+03  0.00000000000E+00 0. -1.
<scales pt_clust_5="13000.00000" pt_clust_6="13000.00000" pt_clust_7="13000.00000" pt_clust_8="13000.00000" pt_clust_9="98.74422"></scales>
<clustering>
<clus scale="   83.129">  5  6 -1 -1</clus>
<clus scale="   93.554">  7  8 -1 -1</clus>
<clus scale="   98.744">  1  9  2 -1</clus>
<clus scale="   99.889">  1  5  2 -1</clus>
<clus scale="   98.744">  1  5  2 -1</clus>
</clustering>
</event>
<event>
 9    1  0.3197504E-005  0.9470370E+02  0.7546771E-02  0.1297944E+00
          3   -1    0    0  502    0 -0.00000000000E+00  0.00000000000E+00  0.29871705650E+03  0.29871705650E+03  0.00000000000E+00 0. -1.
         21   -1    0    0  501  502  0.00000000000E+00 -0.00000000000E+00 -0.47819431851E+02  0.47819431851E+02  0.00000000000E+00 0. -1.
         23    2    1    2    0    0  0.19785434401E+02  0.39285732752E+01  0.17886580759E+03  0.20203563406E+03  0.91752510596E+02 0.  0.
        -24    2    1    2    0    0 -0.27939077991E+02  0.24423047550E+02  0.72442555899E+02  0.11499721022E+03  0.81236427319E+02 0.  0.
         13    1    4    4    0    0 -0.19502831381E+02  0.53726907387E+02  0.36303772904E+02  0.67711926101E+02  0.00000000000E+00 0. -1.
        -14    1    4    4    0    0 -0.84362466102E+01 -0.29303859837E+02  0.36138782995E+02  0.47285284123E+02  0.00000000000E+00 0.  1.
        -13    1    3    3    0    0 -0.25691626347E+02 -0.14667521419E+02  0.19909449611E+02  0.35659248909E+02  0.00000000000E+00 0.  1.
         13    1    3    3    0    0  0.45477060749E+02  0.18596094694E+02  0.15895635798E+03  0.16637638515E+03  0.00000000000E+00 0. -1.
          4    1    1    2  501    0  0.81536435900E+01 -0.28351620825E+02 -0.41073883887E+00  0.29503644073E+02  0.00000000000E+00 0. -1.
<scales pt_clust_5="13000.00000" pt_clust_6="13000.00000" pt_clust_7="13000.00000" pt_clust_8="13000.00000" pt_clust_9="29.50078"></scales>
<clustering>
<clus scale="   29.501">  2  9  1 -1</clus>
<clus scale="   81.236">  5  6 -1 -1</clus>
<clus scale="   84.555">  2  5  1 -1</clus>
<clus scale="   91.753">  7  8 -1 -1</clus>
<clus scale="   29.501">  2  5  1 -1</clus>
</clustering>
</event>
<event>
 9    1  0.3197504E-005  0.9618976E+02  0.7546771E-02  0.1292419E+00
         21   -1    0    0  501  502  0.00000000000E+00  0.00000000000E+00  0.57181824540E+03  0.57181824540E+03  0.00000000000E+00 0. -1.
          3   -1    0    0  502    0 -0.00000000000E+00 -0.00000000000E+00 -0.23728862877E+02  0.23728862877E+02  0.00000000000E+00 0. -1.
         23    2    1    2    0    0  0.82766935325E+01  0.27544287411E+02  0.15295143616E+03  0.18158367517E+03  0.93548371666E+02 0.  0.
        -24    2    1    2    0    0  0.11540877701E+02 -0.15378115853E+02  0.21863568182E+03  0.23593590364E+03  0.86570843553E+02 0.  0.
         13    1    4    4    0    0  0.46202480105E+02 -0.11141068291E+01  0.80683701529E+02  0.92982633294E+02  0.00000000000E+00 0. -1.
        -14    1    4    4    0    0 -0.34661602404E+02 -0.14264009024E+02  0.13795198029E+03  0.14295327034E+03  0.00000000000E+00 0.  1.
        -13    1    3    3    0    0  0.32018749660E+02  0.75376172872E+00  0.90285892664E+01  0.33275875806E+02  0.00000000000E+00 0. -1.
         13    1    3    3    0    0 -0.23742056127E+02  0.26790525682E+02  0.14392284689E+03  0.14830779937E+03  0.00000000000E+00 0.  1.
          4    1    1    2  501    0 -0.19817571234E+02 -0.12166171557E+02  0.17650226455E+03  0.17802752947E+03  0.00000000000E+00 0. -1.
<scales pt_clust_5="13000.00000" pt_clust_6="13000.00000" pt_clust_7="13000.00000" pt_clust_8="13000.00000" pt_clust_9="23.25407"></scales>
<clustering>
<clus scale="   23.254">  1  9  2 -1</clus>
<clus scale="   86.571">  5  6 -1 -1</clus>
<clus scale="   89.419">  1  5  2 -1</clus>
<clus scale="   93.548">  7  8 -1 -1</clus>
<clus scale="   23.254">  1  5  2 -1</clus>
</clustering>
</event>
<event>
 9    1  0.3197504E-005  0.1084467E+03  0.7546771E-02  0.1269834E+00
          3   -1    0    0  502    0 -0.00000000000E+00  0.00000000000E+00  0.14143176231E+03  0.14143176231E+03  0.00000000000E+00 0. -1.
         21   -1    0    0  501  502  0.00000000000E+00 -0.00000000000E+00 -0.15647652706E+03  0.15647652706E+03  0.00000000000E+00 0. -1.
        -24    2    1    2    0    0 -0.20076123453E+02 -0.57290604937E+02 -0.19712503410E+01  0.98894339020E+02  0.78044476521E+02 0.  0.
         23    2    1    2    0    0 -0.32597567269E+02  0.52396037575E+02 -0.61316475348E+02  0.12741885441E+03  0.93101601296E+02 0.  0.
         13    1    3    3    0    0 -0.15483365209E+02 -0.76920407298E+02  0.12812801507E+01  0.78473723857E+02  0.00000000000E+00 0. -1.
        -14    1    3    3    0    0 -0.45927582442E+01  0.19629802362E+02 -0.32525304917E+01  0.20420615163E+02  0.00000000000E+00 0.  1.
        -13    1    4    4    0    0  0.31921131610E+02  0.28763260166E+02 -0.22538174577E+02  0.48520646038E+02  0.00000000000E+00 0. -1.
         13    1    4    4    0    0 -0.64518698880E+02  0.23632777410E+02 -0.38778300771E+02  0.78898208369E+02  0.00000000000E+00 0.  1.
          4    1    1    2  501    0  0.52673690723E+02  0.48945673614E+01  0.48242960936E+02  0.71595095949E+02  0.00000000000E+00 0. -1.
<scales pt_clust_5="13000.00000" pt_clust_6="13000.00000" pt_clust_7="13000.00000" pt_clust_8="13000.00000" pt_clust_9="52.90064"></scales>
<clustering>
<clus scale="   52.901">  2  9  1 -1</clus>
<clus scale="   78.044">  5  6 -1 -1</clus>
<clus scale="   93.102">  7  8 -1 -1</clus>
<clus scale="   95.832">  1  5  2 -1</clus>
<clus scale="   52.901">  2  5  1 -1</clus>
</clustering>
</event>
<event>
 9    1  0.3197504E-005  0.1028125E+03  0.7546771E-02  0.1280212E+00
          1   -1    0    0  502    0 -0.00000000000E+00  0.00000000000E+00  0.82787485708E+03  0.82787485708E+03  0.00000000000E+00 0. -1.
         21   -1    0    0  501  502  0.00000000000E+00 -0.00000000000E+00 -0.19603131943E+02  0.19603131943E+02  0.00000000000E+00 0. -1.
         23    2    1    2    0    0  0.27284781641E+02 -0.29234959552E+02  0.44357953172E+03  0.45489517060E+03  0.92561725923E+02 0.  0.
        -24    2    1    2    0    0 -0.51049102960E+02  0.27150350333E+02  0.17296724680E+03  0.19937944444E+03  0.80568864722E+02 0.  0.
         13    1    4    4    0    0 -0.73104635652E+02  0.19881575580E+02  0.12702915309E+03  0.14790527555E+03  0.00000000000E+00 0. -1.
        -14    1    4    4    0    0  0.22055532693E+02  0.72687747533E+01  0.45938093711E+02  0.51474168887E+02  0.00000000000E+00 0.  1.
        -11    1    3    3    0    0  0.16968617685E+01  0.32975104264E+02  0.12465143063E+03  0.12895044009E+03  0.00000000000E+00 0. -1.
         11    1    3    3    0    0  0.25587919873E+02 -0.62210063817E+02  0.31892810109E+03  0.32594473051E+03  0.00000000000E+00 0.  1.
          2    1    1    2  501    0  0.23764321318E+02  0.20846092189E+01  0.19172494662E+03  0.19320337399E+03  0.00000000000E+00 0. -1.
<scales pt_clust_5="13000.00000" pt_clust_6="13000.00000" pt_clust_7="13000.00000" pt_clust_8="13000.00000" pt_clust_9="23.85559"></scales>
<clustering>
<clus scale="   23.856">  2  9  1 -1</clus>
<clus scale="   80.569">  5  6 -1 -1</clus>
<clus scale="   92.163">  2  5  1 -1</clus>
<clus scale="   92.562">  7  8 -1 -1</clus>
<clus scale="   23.856">  2  5  1 -1</clus>
</clustering>
</event>
<event>
 9    1  0.3197504E-005  0.9570449E+02  0.7546771E-02  0.1290092E+00
         21   -1    0    0  501  502  0.00000000000E+00  0.00000000000E+00  0.15878736527E+03  0.15878736527E+03  0.00000000000E+00 0. -1.
          1   -1    0    0  502    0 -0.00000000000E+00 -0.00000000000E+00 -0.32651217381E+03  0.32651217381E+03  0.00000000000E+00 0. -1.
         23    2    1    2    0    0 -0.41671568347E+02 -0.70908290300E+01 -0.25017834577E+03  0.26950885416E+03  0.90879141236E+02 0.  0.
        -24    2    1    2    0    0 -0.50932510125E+02  0.27480247914E+02  0.14921861802E+02  0.99378611065E+02  0.79398751655E+02 0.  0.
         11    1    4    4    0    0 -0.14211953420E+00 -0.23150316619E+02 -0.73413377654E+01  0.24286881185E+02  0.00000000000E+00 0. -1.
        -12    1    4    4    0    0 -0.50790390591E+02  0.50630564533E+02  0.22263199568E+02  0.75091729880E+02  0.00000000000E+00 0.  1.
        -11    1    3    3    0    0 -0.12113555091E+02  0.38547147422E+02 -0.65204094955E+02  0.76708505332E+02  0.00000000000E+00 0.  1.
         11    1    3    3    0    0 -0.29558013256E+02 -0.45637976452E+02 -0.18497425082E+03  0.19280034883E+03  0.00000000000E+00 0. -1.
          2    1    1    2  501    0  0.92604078472E+02 -0.20389418884E+02  0.67531675436E+02  0.11641207386E+03  0.00000000000E+00 0. -1.
<scales pt_clust_5="13000.00000" pt_clust_6="13000.00000" pt_clust_7="13000.00000" pt_clust_8="13000.00000" pt_clust_9="94.82217"></scales>
<clustering>
<clus scale="   79.399">  5  6 -1 -1</clus>
<clus scale="   90.879">  7  8 -1 -1</clus>
<clus scale="   94.822">  1  9  2 -1</clus>
<clus scale="   94.822">  1  5  2 -1</clus>
<clus scale="   94.822">  1  5  2 -1</clus>
</clustering>
</event>
<event>
 9    1  0.3197504E-005  0.9730928E+02  0.7546771E-02  0.1294109E+00
         -4   -1    0    0    0  501 -0.00000000000E+00  0.00000000000E+00  0.12573961945E+03  0.12573961945E+03  0.00000000000E+00 0.  1.
         21   -1    0    0  501  502  0.00000000000E+00 -0.00000000000E+00 -0.13755595440E+03  0.13755595440E+03  0.00000000000E+00 0.  1.
         23    2    1    2    0    0 -0.42828171200E+02 -0.17531952495E+02 -0.60608462315E+01  0.10203401587E+03  0.90733593181E+02 0.  0.
        -24    2    1    2    0    0  0.16290385996E+02  0.93846881361E+01 -0.61150642458E+02  0.99299835783E+02  0.75944764574E+02 0.  0.
         11    1    4    4    0    0 -0.44678505811E+01 -0.25198296196E+02 -0.51976352188E+02  0.57934937704E+02  0.00000000000E+00 0. -1.
        -12    1    4    4    0    0  0.20758236577E+02  0.34582984332E+02 -0.91742902699E+01  0.41364898079E+02  0.00000000000E+00 0.  1.
        -11    1    3    3    0    0 -0.25591277865E+02  0.16712183233E+02 -0.40336287459E+02  0.50608563081E+02  0.00000000000E+00 0.  1.
         11    1    3    3    0    0 -0.17236893336E+02 -0.34244135728E+02  0.34275441227E+02  0.51425452793E+02  0.00000000000E+00 0. -1.
         -3    1    1    2    0  502  0.26537785204E+02  0.81472643587E+01  0.55395153740E+02  0.61961722200E+02  0.00000000000E+00 0.  1.
<scales pt_clust_5="13000.00000" pt_clust_6="13000.00000" pt_clust_7="13000.00000" pt_clust_8="13000.00000" pt_clust_9="27.76027"></scales>
<clustering>
<clus scale="   27.760">  2  9  1 -1</clus>
<clus scale="   75.945">  5  6 -1 -1</clus>
<clus scale="   83.691">  2  5  1 -1</clus>
<clus scale="   90.734">  7  8 -1 -1</clus>
<clus scale="   27.760">  2  5  1 -1</clus>
</clustering>
</event>
<event>
 9    1  0.3197504E-005  0.1065266E+03  0.7546771E-02  0.1271748E+00
         21   -1    0    0  501  502  0.00000000000E+00  0.00000000000E+00  0.54438935842E+03  0.54438935842E+03  0.00000000000E+00 0. -1.
          3   -1    0    0  502    0 -0.00000000000E+00 -0.00000000000E+00 -0.62782233768E+02  0.62782233768E+02  0.00000000000E+00 0. -1.
        -24    2    1    2    0    0  0.46200202172E+02 -0.35053540765E+02 -0.93556751346E+01  0.99217018783E+02  0.79957981203E+02 0.  0.
         23    2    1    2    0    0 -0.41102611172E+02  0.83434897276E+01  0.33414627832E+03  0.34879794091E+03  0.90814259921E+02 0.  0.
         13    1    3    3    0    0 -0.86296529089E+01 -0.19064135275E+02 -0.31619707958E+02  0.37917253256E+02  0.00000000000E+00 0. -1.
        -14    1    3    3    0    0  0.54829855081E+02 -0.15989405490E+02  0.22264032824E+02  0.61299765527E+02  0.00000000000E+00 0.  1.
        -13    1    4    4    0    0  0.27752415565E+02 -0.85309827987E+01  0.89988386464E+02  0.94556247470E+02  0.00000000000E+00 0. -1.
         13    1    4    4    0    0 -0.68855026737E+02  0.16874472526E+02  0.24415789185E+03  0.25424169344E+03  0.00000000000E+00 0.  1.
          4    1    1    2  501    0 -0.50975909997E+01  0.26710051038E+02  0.15681652147E+03  0.15915663249E+03  0.00000000000E+00 0. -1.
<scales pt_clust_5="13000.00000" pt_clust_6="13000.00000" pt_clust_7="13000.00000" pt_clust_8="13000.00000" pt_clust_9="27.19214"></scales>
<clustering>
<clus scale="   27.192">  1  9  2 -1</clus>
<clus scale="   79.958">  5  6 -1 -1</clus>
<clus scale="   90.814">  7  8 -1 -1</clus>
<clus scale="   97.437">  2  5  1 -1</clus>
<clus scale="   27.192">  1  5  2 -1</clus>
</clustering>
</event>
<event>
 9    1  0.3197504E-005  0.1551676E+03  0.7546771E-02  0.1196253E+00
          3   -1    0    0  502    0 -0.00000000000E+00  0.00000000000E+00  0.20031978674E+03  0.20031978674E+03  0.00000000000E+00 0. -1.
         21   -1    0    0  501  502  0.00000000000E+00 -0.00000000000E+00 -0.18097782280E+03  0.18097782280E+03  0.00000000000E+00 0. -1.
         23    2    1    2    0    0  0.10560308503E+03 -0.89493456716E+02  0.65617250834E+02  0.17976186752E+03  0.94061761867E+02 0.  0.
        -24    2    1    2    0    0 -0.87167376040E+02  0.62337681541E+02  0.10699508864E+02  0.13578288015E+03  0.82694456086E+02 0.  0.
         11    1    4    4    0    0 -0.25329260342E+02  0.29540289320E+02 -0.34877171633E+02  0.52255308091E+02  0.00000000000E+00 0. -1.
        -12    1    4    4    0    0 -0.61838115697E+02  0.32797392221E+02  0.45576680497E+02  0.83527572062E+02  0.00000000000E+00 0.  1.
        -13    1    3    3    0    0  0.18921114448E+02 -0.16323163763E+02 -0.24417554720E+02  0.34938105640E+02  0.00000000000E+00 0.  1.
         13    1    3    3    0    0  0.86681970581E+02 -0.73170292953E+02  0.90034805554E+02  0.14482376188E+03  0.00000000000E+00 0. -1.
          4    1    1    2  501    0 -0.18435708989E+02  0.27155775175E+02 -0.56974795761E+02  0.65752861864E+02  0.00000000000E+00 0. -1.
<scales pt_clust_5="13000.00000" pt_clust_6="13000.00000" pt_clust_7="13000.00000" pt_clust_8="13000.00000" pt_clust_9="32.82242"></scales>
<clustering>
<clus scale="   32.822">  2  9  1 -1</clus>
<clus scale="   82.694">  5  6 -1 -1</clus>
<clus scale="   94.062">  7  8 -1 -1</clus>
<clus scale="  148.552">  2  5  1 -1</clus>
<clus scale="   32.822">  2  5  1 -1</clus>
</clustering>
</event>
<event>
 9    1  0.3197504E-005  0.1169340E+03  0.7546771E-02  0.1262921E+00
         21   -1    0    0  501  502  0.00000000000E+00  0.00000000000E+00  0.11560427810E+03  0.11560427810E+03  0.00000000000E+00 0.  1.
         -4   -1    0    0    0  501 -0.00000000000E+00 -0.00000000000E+00 -0.13182695274E+03  0.13182695274E+03  0.00000000000E+00 0.  1.
        -24    2    1    2    0    0 -0.33901324363E+02 -0.24706053466E+02 -0.41547920835E+02  0.99560967059E+02  0.80165251603E+02 0.  0.
         23    2    1    2    0    0  0.26452303926E+01  0.24795659895E+02  0.21922235084E+02  0.11642933624E+03  0.11159473085E+03 0.  0.
         11    1    3    3    0    0 -0.26886449830E+02 -0.16965956902E+02 -0.65842379928E+02  0.73115961819E+02  0.00000000000E+00 0. -1.
        -12    1    3    3    0    0 -0.70148745336E+01 -0.77400965638E+01  0.24294459093E+02  0.26445005240E+02  0.00000000000E+00 0.  1.
        -11    1    4    4    0    0  0.10069507838E+02 -0.41334916134E+02 -0.82937069317E+01  0.43344617366E+02  0.00000000000E+00 0.  1.
         11    1    4    4    0    0 -0.74242774456E+01  0.66130576029E+02  0.30215942016E+02  0.73084718877E+02  0.00000000000E+00 0. -1.
         -3    1    1    2    0  502  0.31256093971E+02 -0.89606428631E-01  0.34030111071E+01  0.31440927534E+02  0.00000000000E+00 0.  1.
<scales pt_clust_5="13000.00000" pt_clust_6="13000.00000" pt_clust_7="13000.00000" pt_clust_8="13000.00000" pt_clust_9="31.25622"></scales>
<clustering>
<clus scale="   31.256">  1  9  2 -1</clus>
<clus scale="   80.165">  5  6 -1 -1</clus>
<clus scale="   87.445">  2  5  1 -1</clus>
<clus scale="  111.595">  7  8 -1 -1</clus>
<clus scale="   31.256">  1  5  2 -1</clus>
</clustering>
</event>
<event>
 9    1  0.3484450E-005  0.9760185E+02  0.7546771E-02  0.1288136E+00
          1   -1    0    0  502    0 -0.00000000000E+00  0.00000000000E+00  0.77899722690E+02  0.77899722690E+02  0.00000000000E+00 0. -1.
         21   -1    0    0  501  502  0.00000000000E+00 -0.00000000000E+00 -0.33284359930E+03  0.33284359930E+03  0.00000000000E+00 0.  1.
         23    2    1    2    0    0  0.37771481906E+01 -0.32339160433E+02  0.30827857769E+02  0.10262415856E+03  0.92310741300E+02 0.  0.
        -24    2    1    2    0    0 -0.22642541477E+02  0.23020428181E+02 -0.21365118103E+03  0.23299183119E+03  0.87153550969E+02 0.  0.
         11    1    4    4    0    0 -0.42663022045E+02  0.69330383942E+01 -0.44997172305E+02  0.62393477118E+02  0.00000000000E+00 0. -1.
        -12    1    4    4    0    0  0.20020480568E+02  0.16087389787E+02 -0.16865400873E+03  0.17059835407E+03  0.00000000000E+00 0.  1.
        -13    1    3    3    0    0 -0.12911205827E+02 -0.56202947927E+02  0.42098991017E+02  0.71398848984E+02  0.00000000000E+00 0. -1.
         13    1    3    3    0    0  0.16688354017E+02  0.23863787494E+02 -0.11271133248E+02  0.31225309575E+02  0.00000000000E+00 0.  1.
          2    1    1    2  501    0  0.18865393286E+02  0.93187322521E+01 -0.72120553353E+02  0.75127332247E+02  0.00000000000E+00 0. -1.
<scales pt_clust_5="13000.00000" pt_clust_6="13000.00000" pt_clust_7="13000.00000" pt_clust_8="13000.00000" pt_clust_9="21.04143"></scales>
<clustering>
<clus scale="   21.041">  2  9  1 -1</clus>
<clus scale="   87.154">  5  6 -1 -1</clus>
<clus scale="   92.311">  7  8 -1 -1</clus>
<clus scale="   92.739">  2  5  1 -1</clus>
<clus scale="   21.041">  2  5  1 -1</clus>
</clustering>
</event>
<event>
 9    1  0.3197504E-005  0.9682311E+02  0.7546771E-02  0.1291590E+00
         21   -1    0    0  501  502  0.00000000000E+00  0.00000000000E+00  0.36421916434E+03  0.36421916434E+03  0.00000000000E+00 0. -1.
          1   -1    0    0  502    0 -0.00000000000E+00 -0.00000000000E+00 -0.31280767038E+03  0.31280767038E+03  0.00000000000E+00 0. -1.
        -24    2    1    2    0    0  0.14007339422E+02 -0.31598757808E+02 -0.26632649019E+03  0.28108708202E+03  0.82978679476E+02 0.  0.
         23    2    1    2    0    0 -0.57514625949E+02 -0.25414883665E+02  0.55282017505E+02  0.12386150343E+03  0.91278267198E+02 0.  0.
         13    1    3    3    0    0  0.37778283599E+02 -0.66795753188E+01 -0.22023003929E+03  0.22354660732E+03  0.00000000000E+00 0. -1.
        -14    1    3    3    0    0 -0.23770944178E+02 -0.24919182489E+02 -0.46096450903E+02  0.57540474701E+02  0.00000000000E+00 0.  1.
        -11    1    4    4    0    0 -0.45787187150E+02  0.33396209200E+01  0.74378354443E+02  0.87405715972E+02  0.00000000000E+00 0.  1.
         11    1    4    4    0    0 -0.11727438800E+02 -0.28754504585E+02 -0.19096336938E+02  0.36455787458E+02  0.00000000000E+00 0. -1.
          2    1    1    2  501    0  0.43507286527E+02  0.57013641473E+02  0.26245596665E+03  0.27207824927E+03  0.00000000000E+00 0. -1.
<scales pt_clust_5="13000.00000" pt_clust_6="13000.00000" pt_clust_7="13000.00000" pt_clust_8="13000.00000" pt_clust_9="71.71778"></scales>
<clustering>
<clus scale="   71.718">  1  9  2 -1</clus>
<clus scale="   82.979">  5  6 -1 -1</clus>
<clus scale="   89.042">  2  5  1 -1</clus>
<clus scale="   91.278">  7  8 -1 -1</clus>
<clus scale="   71.718">  1  5  2 -1</clus>
</clustering>
</event>
<event>
 9    1  0.3197504E-005  0.1583613E+03  0.7546771E-02  0.1221580E+00
          1   -1    0    0  502    0 -0.00000000000E+00  0.00000000000E+00  0.69140096818E+03  0.69140096818E+03  0.00000000000E+00 0. -1.
         21   -1    0    0  501  502  0.00000000000E+00 -0.00000000000E+00 -0.61158459637E+02  0.61158459637E+02  0.00000000000E+00 0. -1.
        -24    2    1    2    0    0 -0.74922631805E+01  0.12893182693E+02  0.41007909313E+02  0.91042500610E+02  0.79904443703E+02 0.  0.
         23    2    1    2    0    0  0.12609105530E+03 -0.17830932047E+02  0.21333048565E+03  0.26731652454E+03  0.98647512991E+02 0.  0.
         13    1    3    3    0    0  0.67360696160E+01 -0.28868121692E+02  0.36009756077E+02  0.46641672533E+02  0.00000000000E+00 0. -1.
        -14    1    3    3    0    0 -0.14228332797E+02  0.41761304386E+02  0.49981532363E+01  0.44400828077E+02  0.00000000000E+00 0.  1.
        -11    1    4    4    0    0  0.40290804893E+02 -0.31019397588E+02  0.18652792178E+02  0.54161597480E+02  0.00000000000E+00 0.  1.
         11    1    4    4    0    0  0.85800250402E+02  0.13188465541E+02  0.19467769347E+03  0.21315492705E+03  0.00000000000E+00 0. -1.
          2    1    1    2  501    0 -0.11859879211E+03  0.49377493534E+01  0.37590411358E+03  0.39420040267E+03  0.00000000000E+00 0. -1.
<scales pt_clust_5="13000.00000" pt_clust_6="13000.00000" pt_clust_7="13000.00000" pt_clust_8="13000.00000" pt_clust_9="123.88293"></scales>
<clustering>
<clus scale="   79.904">  5  6 -1 -1</clus>
<clus scale="   81.284">  1  5  2 -1</clus>
<clus scale="   98.648">  7  8 -1 -1</clus>
<clus scale="  123.883">  2  9  1 -1</clus>
<clus scale="  123.883">  2  5  1 -1</clus>
</clustering>
</event>
<event>
 9    1  0.3197504E-005  0.1121175E+03  0.7546771E-02  0.1263094E+00
         21   -1    0    0  501  502  0.00000000000E+00  0.00000000000E+00  0.17710245616E+02  0.17710245616E+02  0.00000000000E+00 0.  1.
         -2   -1    0    0    0  501 -0.00000000000E+00 -0.00000000000E+00 -0.12074116598E+04  0.12074116598E+04  0.00000000000E+00 0.  1.
         23    2    1    2    0    0  0.27192068749E+02  0.12294577667E+02 -0.29772621696E+03  0.31418916997E+03  0.95829896271E+02 0.  0.
        -24    2    1    2    0    0 -0.60808615186E+02 -0.60217674022E+02 -0.44536371450E+03  0.46050126246E+03  0.79929460047E+02 0.  0.
         13    1    4    4    0    0 -0.59843999374E+02 -0.35579891195E+01 -0.24978257224E+03  0.25687603419E+03  0.00000000000E+00 0. -1.
        -14    1    4    4    0    0 -0.96461581154E+00 -0.56659684902E+02 -0.19558114226E+03  0.20362522826E+03  0.00000000000E+00 0.  1.
        -13    1    3    3    0    0 -0.33633707122E+02 -0.81484347736E+01 -0.79071774712E+02  0.86313201772E+02  0.00000000000E+00 0.  1.
         13    1    3    3    0    0  0.60825775872E+02  0.20443012440E+02 -0.21865444225E+03  0.22787596820E+03  0.00000000000E+00 0. -1.
         -1    1    1    2    0  502  0.33616546437E+02  0.47923096355E+02 -0.44661148271E+03  0.45043147298E+03  0.00000000000E+00 0.  1.
<scales pt_clust_5="13000.00000" pt_clust_6="13000.00000" pt_clust_7="13000.00000" pt_clust_8="13000.00000" pt_clust_9="58.53801"></scales>
<clustering>
<clus scale="   58.538">  1  9  2 -1</clus>
<clus scale="   79.929">  5  6 -1 -1</clus>
<clus scale="   95.830">  7  8 -1 -1</clus>
<clus scale="   98.872">  1  5  2 -1</clus>
<clus scale="   58.538">  1  5  2 -1</clus>
</clustering>
</event>
<event>
 9    1  0.3197504E-005  0.1494267E+03  0.7546771E-02  0.1203313E+00
         -2   -1    0    0    0  501 -0.00000000000E+00  0.00000000000E+00  0.14808360709E+04  0.14808360709E+04  0.00000000000E+00 0.  1.
         21   -1    0    0  501  502  0.00000000000E+00 -0.00000000000E+00 -0.13223273229E+03  0.13223273229E+03  0.00000000000E+00 0.  1.
        -24    2    1    2    0    0 -0.82077120319E+02  0.75930764418E+02  0.10855202223E+04  0.10942001253E+04  0.80110089503E+02 0.  0.
         23    2    1    2    0    0  0.74046536270E+02 -0.13628720144E+03  0.36107061189E+03  0.40350430259E+03  0.91578625381E+02 0.  0.
         13    1    3    3    0    0  0.15591926134E+01  0.26680672278E+02  0.87998533769E+02  0.91967555694E+02  0.00000000000E+00 0. -1.
        -14    1    3    3    0    0 -0.83636312933E+02  0.49250092140E+02  0.99752168857E+03  0.10022325696E+04  0.00000000000E+00 0.  1.
        -13    1    4    4    0    0  0.92573765845E+02 -0.85798755010E+02  0.24630567331E+03  0.27676309940E+03  0.00000000000E+00 0. -1.
         13    1    4    4    0    0 -0.18527229575E+02 -0.50488446432E+02  0.11476493858E+03  0.12674120319E+03  0.00000000000E+00 0.  1.
         -1    1    1    2    0  502  0.80305840497E+01  0.60356437023E+02 -0.97987495666E+02  0.11536437525E+03  0.00000000000E+00 0.  1.
<scales pt_clust_5="13000.00000" pt_clust_6="13000.00000" pt_clust_7="13000.00000" pt_clust_8="13000.00000" pt_clust_9="60.88834"></scales>
<clustering>
<clus scale="   60.888">  2  9  1 -1</clus>
<clus scale="   80.110">  5  6 -1 -1</clus>
<clus scale="   91.579">  7  8 -1 -1</clus>
<clus scale="  142.686">  1  5  2 -1</clus>
<clus scale="   60.888">  2  5  1 -1</clus>
</clustering>
</event>
<event>
 9    1  0.3197504E-005  0.2706660E+03  0.7546771E-02  0.1132594E+00
         21   -1    0    0  501  502  0.00000000000E+00  0.00000000000E+00  0.53563575255E+03  0.53563575255E+03  0.00000000000E+00 0. -1.
          1   -1    0    0  502    0 -0.00000000000E+00 -0.00000000000E+00 -0.43690124784E+03  0.43690124784E+03  0.00000000000E+00 0. -1.
        -24    2    1    2    0    0 -0.49142175719E+02 -0.77018867713E+02 -0.28118468377E+03  0.30647649565E+03  0.80722714152E+02 0.  0.
         23    2    1    2    0    0 -0.10518958209E+03 -0.16720780380E+03  0.42226201448E+02  0.22164908270E+03  0.91224809908E+02 0.  0.
         11    1    3    3    0    0  0.11441506942E+02 -0.28562549403E+02 -0.15748608703E+03  0.16046368722E+03  0.00000000000E+00 0. -1.
        -12    1    3    3    0    0 -0.60583682661E+02 -0.48456318310E+02 -0.12369859675E+03  0.14601280843E+03  0.00000000000E+00 0.  1.
        -11    1    4    4    0    0 -0.41177580722E+02 -0.11364458358E+03  0.62036165693E+02  0.13586452953E+03  0.00000000000E+00 0.  1.
         11    1    4    4    0    0 -0.64012001366E+02 -0.53563220218E+02 -0.19809964245E+02  0.85784553169E+02  0.00000000000E+00 0. -1.
          2    1    1    2  501    0  0.15433175781E+03  0.24422667151E+03  0.33769298704E+03  0.44441142204E+03  0.00000000000E+00 0. -1.
<scales pt_clust_5="13000.00000" pt_clust_6="13000.00000" pt_clust_7="13000.00000" pt_clust_8="13000.00000" pt_clust_9="254.82961"></scales>
<clustering>
<clus scale="   80.723">  5  6 -1 -1</clus>
<clus scale="   91.225">  7  8 -1 -1</clus>
<clus scale="  121.914">  2  5  1 -1</clus>
<clus scale="  254.830">  1  9  2 -1</clus>
<clus scale="  254.830">  1  5  2 -1</clus>
</clustering>
</event>
<event>
 9    1  0.3197504E-005  0.1140205E+03  0.7546771E-02  0.1257161E+00
         -4   -1    0    0    0  501 -0.00000000000E+00  0.00000000000E+00  0.29824455301E+03  0.29824455301E+03  0.00000000000E+00 0.  1.
         21   -1    0    0  501  502  0.00000000000E+00 -0.00000000000E+00 -0.65170070333E+02  0.65170070333E+02  0.00000000000E+00 0. -1.
        -24    2    1    2    0    0  0.42673157130E+02  0.55839499022E+02  0.17515692028E+03  0.20548906041E+03  0.81281973615E+02 0.  0.
         23    2    1    2    0    0 -0.15362396401E+02 -0.61147920195E+02  0.23941249960E+02  0.11401147871E+03  0.91925853055E+02 0.  0.
         11    1    3    3    0    0  0.25228204971E+02 -0.13740533672E+02  0.21400273313E+02  0.35822287609E+02  0.00000000000E+00 0. -1.
        -12    1    3    3    0    0  0.17444952159E+02  0.69580032694E+02  0.15375664696E+03  0.16966677280E+03  0.00000000000E+00 0.  1.
        -11    1    4    4    0    0  0.33872513939E+02 -0.49644638660E+02  0.61564690812E+01  0.60413901213E+02  0.00000000000E+00 0. -1.
         11    1    4    4    0    0 -0.49234910340E+02 -0.11503281535E+02  0.17784780879E+02  0.53597577494E+02  0.00000000000E+00 0.  1.
         -3    1    1    2    0  502 -0.27310760729E+02  0.53084211734E+01  0.33976312444E+02  0.43914084235E+02  0.00000000000E+00 0.  1.
<scales pt_clust_5="13000.00000" pt_clust_6="13000.00000" pt_clust_7="13000.00000" pt_clust_8="13000.00000" pt_clust_9="27.82189"></scales>
<clustering>
<clus scale="   27.822">  2  9  1 -1</clus>
<clus scale="   81.282">  5  6 -1 -1</clus>
<clus scale="   91.926">  7  8 -1 -1</clus>
<clus scale="  105.627">  1  5  2 -1</clus>
<clus scale="   27.822">  2  5  1 -1</clus>
</clustering>
</event>
<event>
 9    1  0.3197504E-005  0.1010693E+03  0.7546771E-02  0.1285375E+00
          3   -1    0    0  502    0 -0.00000000000E+00  0.00000000000E+00  0.13922431134E+03  0.13922431134E+03  0.00000000000E+00 0. -1.
         21   -1    0    0  501  502  0.00000000000E+00 -0.00000000000E+00 -0.24463898975E+03  0.24463898975E+03  0.00000000000E+00 0.  1.
        -24    2    1    2    0    0  0.32637050376E+02  0.84394416435E+01  0.95663787069E+02  0.12944812805E+03  0.80429201573E+02 0.  0.
         23    2    1    2    0    0 -0.59076294041E+02  0.22802006214E+02 -0.13374622263E+03  0.17561991559E+03  0.94574640786E+02 0.  0.
         11    1    3    3    0    0  0.26369410604E+02  0.10687506327E+02  0.11001106854E+03  0.11363099845E+03  0.00000000000E+00 0. -1.
        -12    1    3    3    0    0  0.62676397716E+01 -0.22480646834E+01 -0.14347281471E+02  0.15817129598E+02  0.00000000000E+00 0.  1.
        -13    1    4    4    0    0 -0.60238776401E+02 -0.20154209277E+02 -0.10865118152E+03  0.12585698860E+03  0.00000000000E+00 0.  1.
         13    1    4    4    0    0  0.11624823601E+01  0.42956215491E+02 -0.25095041113E+02  0.49762926994E+02  0.00000000000E+00 0. -1.
          4    1    1    2  501    0  0.26439243666E+02 -0.31241447858E+02 -0.67332242855E+02  0.78795257457E+02  0.00000000000E+00 0. -1.
<scales pt_clust_5="13000.00000" pt_clust_6="13000.00000" pt_clust_7="13000.00000" pt_clust_8="13000.00000" pt_clust_9="40.92752"></scales>
<clustering>
<clus scale="   40.928">  2  9  1 -1</clus>
<clus scale="   80.429">  5  6 -1 -1</clus>
<clus scale="   87.974">  1  5  2 -1</clus>
<clus scale="   94.575">  7  8 -1 -1</clus>
<clus scale="   40.928">  2  5  1 -1</clus>
</clustering>
</event>
<event>
 9    1  0.3197504E-005  0.2075540E+03  0.7546771E-02  0.1144236E+00
          1   -1    0    0  502    0 -0.00000000000E+00  0.00000000000E+00  0.11031044298E+04  0.11031044298E+04  0.00000000000E+00 0. -1.
         21   -1    0    0  501  502  0.00000000000E+00 -0.00000000000E+00 -0.84079987524E+02  0.84079987524E+02  0.00000000000E+00 0.  1.
        -24    2    1    2    0    0 -0.60658876462E+01 -0.14170879064E+03  0.30500695378E+03  0.34661790598E+03  0.83645409632E+02 0.  0.
         23    2    1    2    0    0  0.96789031940E+02  0.22849000485E+03  0.64528145128E+03  0.69743611325E+03  0.91941185958E+02 0.  0.
         13    1    3    3    0    0 -0.27906888410E+01 -0.92809340859E+02  0.27230503031E+03  0.28770017593E+03  0.00000000000E+00 0. -1.
        -14    1    3    3    0    0 -0.32751988052E+01 -0.48899449778E+02  0.32701923470E+02  0.58917730052E+02  0.00000000000E+00 0.  1.
        -11    1    4    4    0    0  0.65398927764E+02  0.22307226268E+03  0.55585073875E+03  0.60250169950E+03  0.00000000000E+00 0. -1.
         11    1    4    4    0    0  0.31390104176E+02  0.54177421744E+01  0.89430712533E+02  0.94934413753E+02  0.00000000000E+00 0.  1.
          2    1    1    2  501    0 -0.90723144293E+02 -0.86781214218E+02  0.68736037238E+02  0.14313039812E+03  0.00000000000E+00 0. -1.
<scales pt_clust_5="13000.00000" pt_clust_6="13000.00000" pt_clust_7="13000.00000" pt_clust_8="13000.00000" pt_clust_9="125.54548"></scales>
<clustering>
<clus scale="   83.645">  5  6 -1 -1</clus>
<clus scale="   91.941">  7  8 -1 -1</clus>
<clus scale="  125.545">  2  9  1 -1</clus>
<clus scale="  204.015">  1  5  2 -1</clus>
<clus scale="  125.545">  2  5  1 -1</clus>
</clustering>
</event>
<event>
 9    1  0.3197504E-005  0.1233474E+03  0.7546771E-02  0.1239606E+00
          1   -1    0    0  502    0 -0.00000000000E+00  0.00000000000E+00  0.23722460091E+03  0.23722460091E+03  0.00000000000E+00 0. -1.
         21   -1    0    0  501  502  0.00000000000E+00 -0.00000000000E+00 -0.21004169536E+03  0.21004169536E+03  0.00000000000E+00 0.  1.
        -24    2    1    2    0    0  0.30644547967E+02 -0.75209725771E+02  0.18133712059E+03  0.21569538766E+03  0.83939012305E+02 0.  0.
         23    2    1    2    0    0 -0.57801469519E+02  0.90716083420E+02 -0.11623788065E+03  0.18242221657E+03  0.90532880940E+02 0.  0.
         11    1    3    3    0    0  0.45267678918E+02 -0.48139107194E+02  0.17085951270E+03  0.18319254754E+03  0.00000000000E+00 0. -1.
        -12    1    3    3    0    0 -0.14623130951E+02 -0.27070618577E+02  0.10477607889E+02  0.32502840123E+02  0.00000000000E+00 0.  1.
        -13    1    4    4    0    0 -0.43043122071E+02  0.10842890748E+03 -0.88975574272E+02  0.14671806689E+03  0.00000000000E+00 0.  1.
         13    1    4    4    0    0 -0.14758347448E+02 -0.17712824059E+02 -0.27262306376E+02  0.35704149681E+02  0.00000000000E+00 0. -1.
          2    1    1    2  501    0  0.27156921552E+02 -0.15506357649E+02 -0.37916334382E+02  0.49148692034E+02  0.00000000000E+00 0. -1.
<scales pt_clust_5="13000.00000" pt_clust_6="13000.00000" pt_clust_7="13000.00000" pt_clust_8="13000.00000" pt_clust_9="31.27212"></scales>
<clustering>
<clus scale="   31.272">  2  9  1 -1</clus>
<clus scale="   83.939">  5  6 -1 -1</clus>
<clus scale="   90.533">  7  8 -1 -1</clus>
<clus scale="  118.592">  1  5  2 -1</clus>
<clus scale="   31.272">  2  5  1 -1</clus>
</clustering>
</event>
<event>
 9    1  0.3197504E-005  0.1005053E+03  0.7546771E-02  0.1284351E+00
         21   -1    0    0  501  502  0.00000000000E+00  0.00000000000E+00  0.46442649442E+02  0.46442649442E+02  0.00000000000E+00 0.  1.
          3   -1    0    0  502    0 -0.00000000000E+00 -0.00000000000E+00 -0.30848829268E+03  0.30848829268E+03  0.00000000000E+00 0. -1.
         23    2    1    2    0    0  0.26427316026E+02 -0.43260432923E+02 -0.18978772085E+03  0.21682602399E+03  0.91783863535E+02 0.  0.
        -24    2    1    2    0    0 -0.19213888588E+02  0.19302864701E+02 -0.73468124863E+02  0.11305570257E+03  0.81500014796E+02 0.  0.
         13    1    4    4    0    0  0.14046457504E+02 -0.18783479150E+02 -0.53997561178E+02  0.58871543809E+02  0.00000000000E+00 0. -1.
        -14    1    4    4    0    0 -0.33260346092E+02  0.38086343851E+02 -0.19470563686E+02  0.54184158758E+02  0.00000000000E+00 0.  1.
        -13    1    3    3    0    0 -0.84936965308E+00 -0.67547322687E+02 -0.13536126971E+03  0.15128131269E+03  0.00000000000E+00 0. -1.
         13    1    3    3    0    0  0.27276685680E+02  0.24286889765E+02 -0.54426451134E+02  0.65544711298E+02  0.00000000000E+00 0.  1.
          4    1    1    2  501    0 -0.72134274388E+01  0.23957568222E+02  0.12102024709E+01  0.25049215567E+02  0.00000000000E+00 0. -1.
<scales pt_clust_5="13000.00000" pt_clust_6="13000.00000" pt_clust_7="13000.00000" pt_clust_8="13000.00000" pt_clust_9="25.01996"></scales>
<clustering>
<clus scale="   25.020">  1  9  2 -1</clus>
<clus scale="   81.500">  5  6 -1 -1</clus>
<clus scale="   91.210">  1  5  2 -1</clus>
<clus scale="   91.784">  7  8 -1 -1</clus>
<clus scale="   25.020">  1  5  2 -1</clus>
</clustering>
</event>
<event>
 9    1  0.3197504E-005  0.1356425E+03  0.7546771E-02  0.1221746E+00
         21   -1    0    0  501  502  0.00000000000E+00  0.00000000000E+00  0.15179766626E+03  0.15179766626E+03  0.00000000000E+00 0. -1.
         -2   -1    0    0    0  501 -0.00000000000E+00 -0.00000000000E+00 -0.56357249728E+03  0.56357249728E+03  0.00000000000E+00 0.  1.
        -24    2    1    2    0    0 -0.53567129960E+02 -0.80161086529E+02 -0.45344991760E+03  0.47064991598E+03  0.81235942977E+02 0.  0.
         23    2    1    2    0    0  0.11734732484E+03  0.93669169487E+02  0.27447497038E+02  0.17799089968E+03  0.91559201147E+02 0.  0.
         11    1    3    3    0    0 -0.16652490565E+02  0.15005033265E+02 -0.11408176918E+03  0.11626309184E+03  0.00000000000E+00 0. -1.
        -12    1    3    3    0    0 -0.36914639396E+02 -0.95166119794E+02 -0.33936814842E+03  0.35438682414E+03  0.00000000000E+00 0.  1.
        -13    1    4    4    0    0  0.85189700293E+02  0.35498438111E+02 -0.22326850959E+02  0.94952158575E+02  0.00000000000E+00 0.  1.
         13    1    4    4    0    0  0.32157624550E+02  0.58170731377E+02  0.49774347997E+02  0.83038741104E+02  0.00000000000E+00 0. -1.
         -1    1    1    2    0  502 -0.63780194882E+02 -0.13508082958E+02  0.14227589543E+02  0.66729347881E+02  0.00000000000E+00 0.  1.
<scales pt_clust_5="13000.00000" pt_clust_6="13000.00000" pt_clust_7="13000.00000" pt_clust_8="13000.00000" pt_clust_9="65.19495"></scales>
<clustering>
<clus scale="   65.195">  1  9  2 -1</clus>
<clus scale="   81.236">  5  6 -1 -1</clus>
<clus scale="   91.559">  7  8 -1 -1</clus>
<clus scale="  128.899">  2  5  1 -1</clus>
<clus scale="   65.195">  1  5  2 -1</clus>
</clustering>
</event>
<event>
 9    1  0.3206019E-005  0.1011829E+03  0.7546771E-02  0.1286288E+00
          1   -1    0    0  502    0 -0.00000000000E+00  0.00000000000E+00  0.87073894648E+03  0.87073894648E+03  0.00000000000E+00 0. -1.
         21   -1    0    0  501  502  0.00000000000E+00 -0.00000000000E+00 -0.48950305878E+02  0.48950305878E+02  0.00000000000E+00 0. -1.
        -24    2    1    2    0    0 -0.32070960202E+01  0.31144175787E+02  0.37564700822E+03  0.38569837117E+03  0.81684231001E+02 0.  0.
         23    2    1    2    0    0 -0.44079452297E+02  0.36572699203E+01  0.26402367850E+02  0.11016519948E+03  0.97380246515E+02 0.  0.
         11    1    3    3    0    0  0.22597303664E+02  0.47649340676E+02  0.28958340967E+03  0.29434613800E+03  0.00000000000E+00 0. -1.
        -12    1    3    3    0    0 -0.25804399685E+02 -0.16505164889E+02  0.86063598550E+02  0.91352233177E+02  0.00000000000E+00 0.  1.
        -11    1    4    4    0    0 -0.19377702780E+02  0.15990327573E+02 -0.34859397096E+02  0.42969332166E+02  0.00000000000E+00 0. -1.
         11    1    4    4    0    0 -0.24701749517E+02 -0.12333057652E+02  0.61261764947E+02  0.67195867318E+02  0.00000000000E+00 0.  1.
          2    1    1    2  501    0  0.47286548317E+02 -0.34801445707E+02  0.41973926454E+03  0.42382568170E+03  0.00000000000E+00 0. -1.
<scales pt_clust_5="13000.00000" pt_clust_6="13000.00000" pt_clust_7="13000.00000" pt_clust_8="13000.00000" pt_clust_9="58.71253"></scales>
<clustering>
<clus scale="   58.713">  2  9  1 -1</clus>
<clus scale="   81.684">  5  6 -1 -1</clus>
<clus scale="   86.182">  1  5  2 -1</clus>
<clus scale="   97.380">  7  8 -1 -1</clus>
<clus scale="   58.713">  2  5  1 -1</clus>
</clustering>
</event>
<event>
 9    1  0.3197504E-005  0.8733402E+02  0.7546771E-02  0.1312622E+00
         -2   -1    0    0    0  501 -0.00000000000E+00  0.00000000000E+00  0.44856765575E+02  0.44856765575E+02  0.00000000000E+00 0.  1.
         21   -1    0    0  501  502  0.00000000000E+00 -0.00000000000E+00 -0.23500808308E+03  0.23500808308E+03  0.00000000000E+00 0. -1.
        -24    2    1    2    0    0  0.19898772456E+01  0.19033779897E+02 -0.64496848824E+02  0.10572123437E+03  0.81552998110E+02 0.  0.
         23    2    1    2    0    0  0.16888960769E+02  0.18117142971E+01 -0.11297068861E+03  0.14329197851E+03  0.86496793670E+02 0.  0.
         13    1    3    3    0    0 -0.39610439002E+02  0.54096988120E+01 -0.31811596409E+02  0.51090404043E+02  0.00000000000E+00 0. -1.
        -14    1    3    3    0    0  0.41600316247E+02  0.13624081085E+02 -0.32685252415E+02  0.54630830331E+02  0.00000000000E+00 0.  1.
        -11    1    4    4    0    0  0.42812023918E+02  0.27381000356E+02 -0.75797004716E+02  0.91256640834E+02  0.00000000000E+00 0. -1.
         11    1    4    4    0    0 -0.25923063148E+02 -0.25569286059E+02 -0.37173683896E+02  0.52035337675E+02  0.00000000000E+00 0.  1.
         -1    1    1    2    0  502 -0.18878838015E+02 -0.20845494194E+02 -0.12683780071E+02  0.30851635773E+02  0.00000000000E+00 0.  1.
<scales pt_clust_5="13000.00000" pt_clust_6="13000.00000" pt_clust_7="13000.00000" pt_clust_8="13000.00000" pt_clust_9="28.12376"></scales>
<clustering>
<clus scale="   28.124">  2  9  1 -1</clus>
<clus scale="   81.553">  5  6 -1 -1</clus>
<clus scale="   82.440">  1  5  2 -1</clus>
<clus scale="   86.497">  7  8 -1 -1</clus>
<clus scale="   28.124">  2  5  1 -1</clus>
</clustering>
</event>
<event>
 9    1  0.3197504E-005  0.1449850E+03  0.7546771E-02  0.1215188E+00
         21   -1    0    0  501  502  0.00000000000E+00  0.00000000000E+00  0.10459001460E+04  0.10459001460E+04  0.00000000000E+00 0.  1.
         -4   -1    0    0    0  501 -0.00000000000E+00 -0.00000000000E+00 -0.64190075502E+02  0.64190075502E+02  0.00000000000E+00 0.  1.
         23    2    1    2    0    0 -0.25843823180E+01 -0.82852045661E+02  0.88348266785E+02  0.14996493353E+03  0.88390749186E+02 0.  0.
        -24    2    1    2    0    0  0.77472573219E+02 -0.76979674933E+02  0.62246483424E+03  0.63679946452E+03  0.78250994829E+02 0.  0.
         13    1    4    4    0    0  0.19428289918E+02 -0.47643374673E+02  0.12611629330E+03  0.13620818270E+03  0.00000000000E+00 0. -1.
        -14    1    4    4    0    0  0.58044283301E+02 -0.29336300260E+02  0.49634854095E+03  0.50059128182E+03  0.00000000000E+00 0.  1.
        -13    1    3    3    0    0  0.34123962815E+02 -0.59077155506E+02  0.24327996514E+02  0.72432082362E+02  0.00000000000E+00 0. -1.
         13    1    3    3    0    0 -0.36708345133E+02 -0.23774890155E+02  0.64020270270E+02  0.77532851165E+02  0.00000000000E+00 0.  1.
         -3    1    1    2    0  502 -0.74888190901E+02  0.15983172059E+03  0.27089696947E+03  0.32332582346E+03  0.00000000000E+00 0.  1.
<scales pt_clust_5="13000.00000" pt_clust_6="13000.00000" pt_clust_7="13000.00000" pt_clust_8="13000.00000" pt_clust_9="122.05507"></scales>
<clustering>
<clus scale="   78.251">  5  6 -1 -1</clus>
<clus scale="   88.391">  7  8 -1 -1</clus>
<clus scale="  121.178">  2  7  1 -1</clus>
<clus scale="  122.055">  1  9  2 -1</clus>
<clus scale="  122.055">  1  5  2 -1</clus>
</clustering>
</event>
<event>
 9    1  0.3197504E-005  0.1030376E+03  0.7546771E-02  0.1279601E+00
         -2   -1    0    0    0  501 -0.00000000000E+00  0.00000000000E+00  0.23081235325E+02  0.23081235325E+02  0.00000000000E+00 0.  1.
         21   -1    0    0  501  502  0.00000000000E+00 -0.00000000000E+00 -0.65805057502E+03  0.65805057502E+03  0.00000000000E+00 0. -1.
        -24    2    1    2    0    0 -0.10823727831E+02 -0.56138369647E+02 -0.16874943821E+03  0.19510052205E+03  0.79493214659E+02 0.  0.
         23    2    1    2    0    0  0.28940015177E+02  0.23718691711E+02 -0.30521745250E+03  0.32080107325E+03  0.91408612685E+02 0.  0.
         11    1    3    3    0    0  0.22704247757E+02  0.80616968976E+01 -0.57597650278E+02  0.62433669928E+02  0.00000000000E+00 0. -1.
        -12    1    3    3    0    0 -0.33527975588E+02 -0.64200066545E+02 -0.11115178793E+03  0.13266685212E+03  0.00000000000E+00 0.  1.
        -13    1    4    4    0    0  0.35605059404E+01  0.55422332656E+02 -0.13875803940E+03  0.14945937796E+03  0.00000000000E+00 0.  1.
         13    1    4    4    0    0  0.25379509237E+02 -0.31703640945E+02 -0.16645941309E+03  0.17134169529E+03  0.00000000000E+00 0. -1.
         -1    1    1    2    0  502 -0.18116287346E+02  0.32419677936E+02 -0.16100244899E+03  0.16523021505E+03  0.00000000000E+00 0.  1.
<scales pt_clust_5="13000.00000" pt_clust_6="13000.00000" pt_clust_7="13000.00000" pt_clust_8="13000.00000" pt_clust_9="37.13806"></scales>
<clustering>
<clus scale="   37.138">  2  9  1 -1</clus>
<clus scale="   79.493">  5  6 -1 -1</clus>
<clus scale="   91.409">  7  8 -1 -1</clus>
<clus scale="   92.630">  1  5  2 -1</clus>
<clus scale="   37.138">  2  5  1 -1</clus>
</clustering>
</event>
<event>
 9    1  0.3197504E-005  0.1019875E+03  0.7546771E-02  0.1300049E+00
          1   -1    0    0  502    0 -0.00000000000E+00  0.00000000000E+00  0.79482370542E+02  0.79482370542E+02  0.00000000000E+00 0. -1.
         21   -1    0    0  501  502  0.00000000000E+00 -0.00000000000E+00 -0.25588026104E+03  0.25588026104E+03  0.00000000000E+00 0.  1.
         23    2    1    2    0    0  0.30214717943E+02  0.19249245704E+02  0.20856154927E+02  0.10248986430E+03  0.93732227356E+02 0.  0.
        -24    2    1    2    0    0 -0.26244826723E+02 -0.45255025645E+02 -0.64637086117E+02  0.97671737248E+02  0.51234822919E+02 0.  0.
         11    1    4    4    0    0 -0.39846619590E+02 -0.42916001297E+02 -0.45933497719E+02  0.74427296557E+02  0.00000000000E+00 0. -1.
        -12    1    4    4    0    0  0.13601792867E+02 -0.23390243484E+01 -0.18703588398E+02  0.23244440692E+02  0.00000000000E+00 0.  1.
        -13    1    3    3    0    0 -0.33002368522E+02  0.16385258043E+02  0.44346871111E+01  0.37111985382E+02  0.00000000000E+00 0. -1.
         13    1    3    3    0    0  0.63217086465E+02  0.28639876605E+01  0.16421467815E+02  0.65377878917E+02  0.00000000000E+00 0.  1.
          2    1    1    2  501    0 -0.39698912195E+01  0.26005779942E+02 -0.13261695930E+03  0.13520103003E+03  0.00000000000E+00 0. -1.
<scales pt_clust_5="13000.00000" pt_clust_6="13000.00000" pt_clust_7="13000.00000" pt_clust_8="13000.00000" pt_clust_9="26.30705"></scales>
<clustering>
<clus scale="   26.307">  2  9  1 -1</clus>
<clus scale="   51.235">  5  6 -1 -1</clus>
<clus scale="   65.121">  2  5  1 -1</clus>
<clus scale="   93.732">  7  8 -1 -1</clus>
<clus scale="   26.307">  2  5  1 -1</clus>
</clustering>
</event>
<event>
 9    1  0.3197504E-005  0.3652320E+03  0.7546771E-02  0.1107310E+00
         21   -1    0    0  501  502  0.00000000000E+00  0.00000000000E+00  0.31327300463E+03  0.31327300463E+03  0.00000000000E+00 0.  1.
         -2   -1    0    0    0  501 -0.00000000000E+00 -0.00000000000E+00 -0.12123778989E+04  0.12123778989E+04  0.00000000000E+00 0.  1.
        -24    2    1    2    0    0 -0.26116023290E+02 -0.38687625865E+02 -0.12439029143E+03  0.15555036339E+03  0.80896179649E+02 0.  0.
         23    2    1    2    0    0 -0.33824826973E+03  0.97841865316E+02  0.13541680056E+03  0.38796015632E+03  0.90501107329E+02 0.  0.
         13    1    3    3    0    0 -0.39138207912E+02 -0.43115882677E+02 -0.12859739774E+03  0.14116681396E+03  0.00000000000E+00 0. -1.
        -14    1    3    3    0    0  0.13022184622E+02  0.44282568123E+01  0.42071063131E+01  0.14383549432E+02  0.00000000000E+00 0.  1.
        -13    1    4    4    0    0 -0.18970668836E+03  0.93062918123E+02  0.52306438899E+02  0.21768164344E+03  0.00000000000E+00 0.  1.
         13    1    4    4    0    0 -0.14854158137E+03  0.47789471929E+01  0.83110361663E+02  0.17027851288E+03  0.00000000000E+00 0. -1.
         -1    1    1    2    0  502  0.36436429302E+03 -0.59154239452E+02 -0.91013140342E+03  0.98214038384E+03  0.00000000000E+00 0.  1.
<scales pt_clust_5="13000.00000" pt_clust_6="13000.00000" pt_clust_7="13000.00000" pt_clust_8="13000.00000" pt_clust_9="353.84194"></scales>
<clustering>
<clus scale="   80.896">  5  6 -1 -1</clus>
<clus scale="   90.501">  7  8 -1 -1</clus>
<clus scale="   93.397">  2  5  1 -1</clus>
<clus scale="  353.842">  1  9  2 -1</clus>
<clus scale="  353.842">  1  5  2 -1</clus>
</clustering>
</event>
<event>
 9    1  0.3197504E-005  0.1135680E+03  0.7546771E-02  0.1258504E+00
         21   -1    0    0  501  502  0.00000000000E+00  0.00000000000E+00  0.44927253020E+03  0.44927253020E+03  0.00000000000E+00 0.  1.
         -2   -1    0    0    0  501 -0.00000000000E+00 -0.00000000000E+00 -0.24544967281E+03  0.24544967281E+03  0.00000000000E+00 0.  1.
        -24    2    1    2    0    0 -0.19211159246E+02 -0.77551518395E+02 -0.15205750683E+03  0.18909409901E+03  0.79068237948E+02 0.  0.
         23    2    1    2    0    0  0.48575431851E+02  0.27072951358E+02 -0.33473949712E+02  0.11191865781E+03  0.91174357039E+02 0.  0.
         13    1    3    3    0    0  0.27963259940E+02 -0.43071505080E+02 -0.51093363483E+02  0.72440529046E+02  0.00000000000E+00 0. -1.
        -14    1    3    3    0    0 -0.47174419187E+02 -0.34480013315E+02 -0.10096414335E+03  0.11665356996E+03  0.00000000000E+00 0.  1.
        -13    1    4    4    0    0 -0.50166983847E+01 -0.22706857860E+02 -0.30973206887E+02  0.38731230311E+02  0.00000000000E+00 0.  1.
         13    1    4    4    0    0  0.53592130236E+02  0.49779809218E+02 -0.25007428255E+01  0.73187427497E+02  0.00000000000E+00 0. -1.
         -1    1    1    2    0  502 -0.29364272605E+02  0.50478567038E+02  0.38935431394E+03  0.39370944619E+03  0.00000000000E+00 0.  1.
<scales pt_clust_5="13000.00000" pt_clust_6="13000.00000" pt_clust_7="13000.00000" pt_clust_8="13000.00000" pt_clust_9="58.39817"></scales>
<clustering>
<clus scale="   58.398">  1  9  2 -1</clus>
<clus scale="   79.068">  5  6 -1 -1</clus>
<clus scale="   91.174">  7  8 -1 -1</clus>
<clus scale="  104.100">  2  5  1 -1</clus>
<clus scale="   58.398">  1  5  2 -1</clus>
</clustering>
</event>
<event>
 9    1  0.3197504E-005  0.1007295E+03  0.7546771E-02  0.1283682E+00
         21   -1    0    0  501  502  0.00000000000E+00  0.00000000000E+00  0.10073817984E+03  0.10073817984E+03  0.00000000000E+00 0.  1.
         -4   -1    0    0    0  501 -0.00000000000E+00 -0.00000000000E+00 -0.17841230448E+03  0.17841230448E+03  0.00000000000E+00 0.  1.
        -24    2    1    2    0    0  0.50667206604E+02 -0.23372608723E+02 -0.36531876421E+02  0.10496122231E+03  0.81048353037E+02 0.  0.
         23    2    1    2    0    0 -0.28906394847E+02 -0.21476212969E+02  0.15026217105E+02  0.99090352344E+02  0.91084045478E+02 0.  0.
         11    1    3    3    0    0 -0.18362381886E+02 -0.16929209906E+02  0.29965194430E+01  0.25154608829E+02  0.00000000000E+00 0. -1.
        -12    1    3    3    0    0  0.69029588490E+02 -0.64433988163E+01 -0.39528395864E+02  0.79806613479E+02  0.00000000000E+00 0.  1.
        -13    1    4    4    0    0  0.17859474982E+02 -0.29950377752E+02  0.33256093040E+02  0.48186654775E+02  0.00000000000E+00 0.  1.
         13    1    4    4    0    0 -0.46765869829E+02  0.84741647833E+01 -0.18229875934E+02  0.50903697569E+02  0.00000000000E+00 0. -1.
         -3    1    1    2    0  502 -0.21760811757E+02  0.44848821692E+02 -0.56168465332E+02  0.75098909667E+02  0.00000000000E+00 0.  1.
<scales pt_clust_5="13000.00000" pt_clust_6="13000.00000" pt_clust_7="13000.00000" pt_clust_8="13000.00000" pt_clust_9="49.84930"></scales>
<clustering>
<clus scale="   49.849">  1  9  2 -1</clus>
<clus scale="   81.048">  5  6 -1 -1</clus>
<clus scale="   91.084">  7  8 -1 -1</clus>
<clus scale="   91.755">  2  5  1 -1</clus>
<clus scale="   49.849">  1  5  2 -1</clus>
</clustering>
</event>
<event>
 9    1  0.3197504E-005  0.2274197E+03  0.7546771E-02  0.1147605E+00
          1   -1    0    0  502    0 -0.00000000000E+00  0.00000000000E+00  0.11150235910E+04  0.11150235910E+04  0.00000000000E+00 0. -1.
         21   -1    0    0  501  502  0.00000000000E+00 -0.00000000000E+00 -0.13293716605E+03  0.13293716605E+03  0.00000000000E+00 0. -1.
        -24    2    1    2    0    0 -0.36709989805E+02 -0.11293879582E+03  0.20404866170E+03  0.24922765030E+03  0.79848421250E+02 0.  0.
         23    2    1    2    0    0 -0.11685131941E+03  0.18655995663E+03  0.40147027030E+02  0.24144591578E+03  0.90694532373E+02 0.  0.
         13    1    3    3    0    0 -0.61601413900E+02 -0.80568804961E+02  0.15724390729E+03  0.18711417078E+03  0.00000000000E+00 0. -1.
        -14    1    3    3    0    0  0.24891424095E+02 -0.32369990859E+02  0.46804754411E+02  0.62113479513E+02  0.00000000000E+00 0.  1.
        -11    1    4    4    0    0 -0.31349809328E+02  0.19455067381E+02 -0.22908510386E+02  0.43429368402E+02  0.00000000000E+00 0.  1.
         11    1    4    4    0    0 -0.85501510087E+02  0.16710488925E+03  0.63055537416E+02  0.19801654738E+03  0.00000000000E+00 0. -1.
          2    1    1    2  501    0  0.15356130922E+03 -0.73621160810E+02  0.73789073619E+03  0.75728719094E+03  0.00000000000E+00 0. -1.
<scales pt_clust_5="13000.00000" pt_clust_6="13000.00000" pt_clust_7="13000.00000" pt_clust_8="13000.00000" pt_clust_9="208.55278"></scales>
<clustering>
<clus scale="   79.848">  5  6 -1 -1</clus>
<clus scale="   90.695">  7  8 -1 -1</clus>
<clus scale="  143.103">  1  5  2 -1</clus>
<clus scale="  208.553">  2  9  1 -1</clus>
<clus scale="  208.553">  2  5  1 -1</clus>
</clustering>
</event>
<event>
 9    1  0.3197504E-005  0.1262640E+03  0.7546771E-02  0.1247265E+00
         21   -1    0    0  501  502  0.00000000000E+00  0.00000000000E+00  0.86483605302E+03  0.86483605302E+03  0.00000000000E+00 0. -1.
          1   -1    0    0  502    0 -0.00000000000E+00 -0.00000000000E+00 -0.51912539667E+02  0.51912539667E+02  0.00000000000E+00 0. -1.
        -24    2    1    2    0    0  0.47551321948E+02 -0.76313991024E+01  0.23117164665E+02  0.97499905157E+02  0.81562624603E+02 0.  0.
         23    2    1    2    0    0  0.55608480648E+02  0.87315381341E+01  0.30982449327E+03  0.32830496703E+03  0.92867603943E+02 0.  0.
         13    1    3    3    0    0  0.54273174395E+02  0.12208695656E+02 -0.11719157440E+02  0.56850403337E+02  0.00000000000E+00 0. -1.
        -14    1    3    3    0    0 -0.67218524469E+01 -0.19840094759E+02  0.34836322105E+02  0.40649501820E+02  0.00000000000E+00 0.  1.
        -13    1    4    4    0    0  0.58490186915E+02 -0.24075110154E+02  0.26639379630E+03  0.27379986779E+03  0.00000000000E+00 0. -1.
         13    1    4    4    0    0 -0.28817062671E+01  0.32806648288E+02  0.43430696972E+02  0.54505099233E+02  0.00000000000E+00 0.  1.
          2    1    1    2  501    0 -0.10315980260E+03 -0.11001390317E+01  0.47998185541E+03  0.49094372050E+03  0.00000000000E+00 0. -1.
<scales pt_clust_5="13000.00000" pt_clust_6="13000.00000" pt_clust_7="13000.00000" pt_clust_8="13000.00000" pt_clust_9="85.54651"></scales>
<clustering>
<clus scale="   81.563">  5  6 -1 -1</clus>
<clus scale="   92.868">  7  8 -1 -1</clus>
<clus scale="   94.720">  2  5  1 -1</clus>
<clus scale="   85.547">  1  9  2 -1</clus>
<clus scale="   85.547">  1  5  2 -1</clus>
</clustering>
</event>
<event>
 9    1  0.3197504E-005  0.9711494E+02  0.7546771E-02  0.1288376E+00
          3   -1    0    0  502    0 -0.00000000000E+00  0.00000000000E+00  0.83114527912E+02  0.83114527912E+02  0.00000000000E+00 0. -1.
         21   -1    0    0  501  502  0.00000000000E+00 -0.00000000000E+00 -0.16637061819E+03  0.16637061819E+03  0.00000000000E+00 0. -1.
        -24    2    1    2    0    0  0.60199010461E+02  0.77390169783E+01 -0.10196772915E+02  0.10139976738E+03  0.80586136546E+02 0.  0.
         23    2    1    2    0    0 -0.29794916527E+02  0.14618094472E+02 -0.55944719624E+02  0.10664676368E+03  0.84512098617E+02 0.  0.
         11    1    3    3    0    0  0.17596744124E+02  0.37136817909E+02  0.15108654436E+02  0.43784244736E+02  0.00000000000E+00 0. -1.
        -12    1    3    3    0    0  0.42602266337E+02 -0.29397800931E+02 -0.25305427351E+02  0.57615522649E+02  0.00000000000E+00 0.  1.
        -13    1    4    4    0    0 -0.16415415636E+02 -0.12805586285E+02  0.17447810630E+02  0.27163854777E+02  0.00000000000E+00 0.  1.
         13    1    4    4    0    0 -0.13379500891E+02  0.27423680757E+02 -0.73392530254E+02  0.79482908902E+02  0.00000000000E+00 0. -1.
          4    1    1    2  501    0 -0.30404093935E+02 -0.22357111450E+02 -0.17114597737E+02  0.41438615036E+02  0.00000000000E+00 0. -1.
<scales pt_clust_5="13000.00000" pt_clust_6="13000.00000" pt_clust_7="13000.00000" pt_clust_8="13000.00000" pt_clust_9="37.73923"></scales>
<clustering>
<clus scale="   37.739">  2  9  1 -1</clus>
<clus scale="   80.586">  5  6 -1 -1</clus>
<clus scale="   84.512">  7  8 -1 -1</clus>
<clus scale="   93.718">  1  5  2 -1</clus>
<clus scale="   37.739">  2  5  1 -1</clus>
</clustering>
</event>
<event>
 9    1  0.3197504E-005  0.1036355E+03  0.7546771E-02  0.1275968E+00
         21   -1    0    0  501  502  0.00000000000E+00  0.00000000000E+00  0.99070271777E+02  0.99070271777E+02  0.00000000000E+00 0. -1.
         -2   -1    0    0    0  501 -0.00000000000E+00 -0.00000000000E+00 -0.14264420271E+03  0.14264420271E+03  0.00000000000E+00 0.  1.
        -24    2    1    2    0    0  0.41129201740E+02 -0.10480448878E+02 -0.39696210597E+02  0.10165536053E+03  0.83406067793E+02 0.  0.
         23    2    1    2    0    0 -0.58442836384E+02  0.31897624500E+02 -0.30165091510E+00  0.11228780450E+03  0.90418120270E+02 0.  0.
         13    1    3    3    0    0 -0.16165081546E+02 -0.28210923410E+02 -0.21504068031E+02  0.38981931749E+02  0.00000000000E+00 0. -1.
        -14    1    3    3    0    0  0.57294283286E+02  0.17730474532E+02 -0.18192142566E+02  0.62673428784E+02  0.00000000000E+00 0.  1.
        -11    1    4    4    0    0 -0.46221059475E+02  0.11620159590E+02  0.42186526988E+02  0.63648389667E+02  0.00000000000E+00 0. -1.
         11    1    4    4    0    0 -0.12221776909E+02  0.20277464909E+02 -0.42488177903E+02  0.48639414835E+02  0.00000000000E+00 0.  1.
         -1    1    1    2    0  502  0.17313634644E+02 -0.21417175622E+02 -0.35760694197E+01  0.27771309452E+02  0.00000000000E+00 0.  1.
<scales pt_clust_5="13000.00000" pt_clust_6="13000.00000" pt_clust_7="13000.00000" pt_clust_8="13000.00000" pt_clust_9="27.54010"></scales>
<clustering>
<clus scale="   27.540">  1  9  2 -1</clus>
<clus scale="   83.406">  5  6 -1 -1</clus>
<clus scale="   90.418">  7  8 -1 -1</clus>
<clus scale="   97.578">  2  5  1 -1</clus>
<clus scale="   27.540">  1  5  2 -1</clus>
</clustering>
</event>
<event>
 9    1  0.3197504E-005  0.1052850E+03  0.7546771E-02  0.1273506E+00
          3   -1    0    0  502    0 -0.00000000000E+00  0.00000000000E+00  0.32995289564E+03  0.32995289564E+03  0.00000000000E+00 0. -1.
         21   -1    0    0  501  502  0.00000000000E+00 -0.00000000000E+00 -0.92367088071E+02  0.92367088071E+02  0.00000000000E+00 0. -1.
         23    2    1    2    0    0 -0.23428538499E+02  0.57059882307E+02  0.22404905526E+03  0.24889259949E+03  0.89133721634E+02 0.  0.
        -24    2    1    2    0    0  0.28240375546E+02 -0.37031502309E+02  0.68281229526E+02  0.11493595264E+03  0.79869242701E+02 0.  0.
         13    1    4    4    0    0  0.13176332150E+02  0.16220981645E+02  0.53820916165E+02  0.57735838015E+02  0.00000000000E+00 0. -1.
        -14    1    4    4    0    0  0.15064043396E+02 -0.53252483955E+02  0.14460313361E+02  0.57200114626E+02  0.00000000000E+00 0.  1.
        -11    1    3    3    0    0 -0.30783577127E+02 -0.86918870624E+01  0.29922266711E+02  0.43800908285E+02  0.00000000000E+00 0.  1.
         11    1    3    3    0    0  0.73550386280E+01  0.65751769369E+02  0.19412678855E+03  0.20509169121E+03  0.00000000000E+00 0. -1.
          4    1    1    2  501    0 -0.48118370469E+01 -0.20028379997E+02 -0.54744477224E+02  0.58491431574E+02  0.00000000000E+00 0. -1.
<scales pt_clust_5="13000.00000" pt_clust_6="13000.00000" pt_clust_7="13000.00000" pt_clust_8="13000.00000" pt_clust_9="20.59830"></scales>
<clustering>
<clus scale="   20.598">  2  9  1 -1</clus>
<clus scale="   79.869">  5  6 -1 -1</clus>
<clus scale="   89.134">  7  8 -1 -1</clus>
<clus scale="   97.566">  2  5  1 -1</clus>
<clus scale="   20.598">  2  5  1 -1</clus>
</clustering>
</event>
<event>
 9    1  0.3197504E-005  0.1550742E+03  0.7546771E-02  0.1197239E+00
         21   -1    0    0  501  502  0.00000000000E+00  0.00000000000E+00  0.55363487079E+03  0.55363487079E+03  0.00000000000E+00 0. -1.
          1   -1    0    0  502    0 -0.00000000000E+00 -0.00000000000E+00 -0.14384062593E+03  0.14384062593E+03  0.00000000000E+00 0. -1.
        -24    2    1    2    0    0  0.60114147125E+02  0.11773713589E+03  0.16289556058E+03  0.22221024428E+03  0.73257662770E+02 0.  0.
         23    2    1    2    0    0  0.82261727563E+02 -0.13840492437E+03  0.27242610063E+03  0.32914990020E+03  0.90558056419E+02 0.  0.
         11    1    3    3    0    0  0.62784463726E+02  0.89442943026E+02  0.15984172772E+03  0.19362672043E+03  0.00000000000E+00 0. -1.
        -12    1    3    3    0    0 -0.26703166015E+01  0.28294192867E+02  0.30538328566E+01  0.28583523853E+02  0.00000000000E+00 0.  1.
        -11    1    4    4    0    0  0.23635179158E+02 -0.10327079234E+03  0.21576084870E+03  0.24036684895E+03  0.00000000000E+00 0.  1.
         11    1    4    4    0    0  0.58626548405E+02 -0.35134132032E+02  0.56665251930E+02  0.88783051242E+02  0.00000000000E+00 0. -1.
          2    1    1    2  501    0 -0.14237587469E+03  0.20667788482E+02 -0.25527416346E+02  0.14611535224E+03  0.00000000000E+00 0. -1.
<scales pt_clust_5="13000.00000" pt_clust_6="13000.00000" pt_clust_7="13000.00000" pt_clust_8="13000.00000" pt_clust_9="143.86823"></scales>
<clustering>
<clus scale="   73.258">  5  6 -1 -1</clus>
<clus scale="   90.558">  7  8 -1 -1</clus>
<clus scale="  143.868">  1  9  2 -1</clus>
<clus scale="  145.650">  2  5  1 -1</clus>
<clus scale="  143.868">  1  5  2 -1</clus>
</clustering>
</event>
<event>
 9    1  0.3197504E-005  0.1221875E+03  0.7546771E-02  0.1253226E+00
         21   -1    0    0  501  502  0.00000000000E+00  0.00000000000E+00  0.28293393065E+03  0.28293393065E+03  0.00000000000E+00 0. -1.
          3   -1    0    0  502    0 -0.00000000000E+00 -0.00000000000E+00 -0.95667151924E+02  0.95667151924E+02  0.00000000000E+00 0. -1.
         23    2    1    2    0    0  0.97985228483E+01 -0.11681293677E+02  0.73993719640E+01  0.93082735357E+02  0.91526942722E+02 0.  0.
        -24    2    1    2    0    0  0.80700054093E+02 -0.40756507155E+02  0.77838282032E+02  0.13940312666E+03  0.72116863266E+02 0.  0.
         13    1    4    4    0    0  0.90531631126E+02 -0.37830231617E+02  0.50808914343E+02  0.11049275286E+03  0.00000000000E+00 0. -1.
        -14    1    4    4    0    0 -0.98315770332E+01 -0.29262755376E+01  0.27029367690E+02  0.28910373799E+02  0.00000000000E+00 0.  1.
        -11    1    3    3    0    0 -0.38625828100E+01 -0.49983448399E+02  0.13606798611E+02  0.51946218614E+02  0.00000000000E+00 0. -1.
         11    1    3    3    0    0  0.13661105658E+02  0.38302154722E+02 -0.62074266466E+01  0.41136516743E+02  0.00000000000E+00 0.  1.
          4    1    1    2  501    0 -0.90498576941E+02  0.52437800832E+02  0.10202912473E+03  0.14611522055E+03  0.00000000000E+00 0. -1.
<scales pt_clust_5="13000.00000" pt_clust_6="13000.00000" pt_clust_7="13000.00000" pt_clust_8="13000.00000" pt_clust_9="98.63539"></scales>
<clustering>
<clus scale="   72.117">  5  6 -1 -1</clus>
<clus scale="   91.527">  7  8 -1 -1</clus>
<clus scale="   92.788">  2  7  1 -1</clus>
<clus scale="   98.635">  1  9  2 -1</clus>
<clus scale="   98.635">  1  5  2 -1</clus>
</clustering>
</event>
<event>
 9    1  0.3197504E-005  0.1841646E+03  0.7546771E-02  0.1189667E+00
         21   -1    0    0  501  502  0.00000000000E+00  0.00000000000E+00  0.91803953388E+02  0.91803953388E+02  0.00000000000E+00 0.  1.
          3   -1    0    0  502    0 -0.00000000000E+00 -0.00000000000E+00 -0.12306652081E+04  0.12306652081E+04  0.00000000000E+00 0. -1.
         23    2    1    2    0    0  0.37676744098E+02  0.29475504777E+02  0.20903377216E+02  0.10479937207E+03  0.90871418938E+02 0.  0.
        -24    2    1    2    0    0  0.13720950524E+03  0.57032362498E+02 -0.42263926439E+03  0.45515905587E+03  0.80415667855E+02 0.  0.
         13    1    4    4    0    0  0.18541822195E+01  0.25593950152E+02 -0.11125102688E+03  0.11417214747E+03  0.00000000000E+00 0. -1.
        -14    1    4    4    0    0  0.13535532302E+03  0.31438412347E+02 -0.31138823751E+03  0.34098690840E+03  0.00000000000E+00 0.  1.
        -11    1    3    3    0    0  0.53337525829E+02  0.51824653628E+02  0.86001286265E+01  0.74864201041E+02  0.00000000000E+00 0. -1.
         11    1    3    3    0    0 -0.15660781730E+02 -0.22349148851E+02  0.12303248589E+02  0.29935171030E+02  0.00000000000E+00 0.  1.
          4    1    1    2  501    0 -0.17488624934E+03 -0.86507867275E+02 -0.73712536756E+03  0.76251073357E+03  0.00000000000E+00 0. -1.
<scales pt_clust_5="13000.00000" pt_clust_6="13000.00000" pt_clust_7="13000.00000" pt_clust_8="13000.00000" pt_clust_9="165.68023"></scales>
<clustering>
<clus scale="   80.416">  5  6 -1 -1</clus>
<clus scale="   90.871">  7  8 -1 -1</clus>
<clus scale="  102.694">  2  7  1 -1</clus>
<clus scale="  165.680">  1  9  2 -1</clus>
<clus scale="  165.680">  1  5  2 -1</clus>
</clustering>
</event>
<event>
 9    1  0.3197504E-005  0.2483661E+03  0.7546771E-02  0.1152931E+00
         21   -1    0    0  501  502  0.00000000000E+00  0.00000000000E+00  0.14609436124E+03  0.14609436124E+03  0.00000000000E+00 0. -1.
          1   -1    0    0  502    0 -0.00000000000E+00 -0.00000000000E+00 -0.10943479407E+04  0.10943479407E+04  0.00000000000E+00 0. -1.
        -24    2    1    2    0    0 -0.54991712494E+02  0.16513799368E+01  0.57735021026E+02  0.11274920595E+03  0.79700911483E+02 0.  0.
         23    2    1    2    0    0  0.24946257086E+03 -0.11408833704E+02 -0.32967298482E+03  0.42390553240E+03  0.93004772667E+02 0.  0.
         13    1    3    3    0    0 -0.73396609429E+02  0.78320299260E+01  0.31848729680E+02  0.80391196973E+02  0.00000000000E+00 0. -1.
        -14    1    3    3    0    0  0.18404896935E+02 -0.61806499892E+01  0.25886291346E+02  0.32358008979E+02  0.00000000000E+00 0.  1.
        -11    1    4    4    0    0  0.12993651906E+03  0.36517394020E+02 -0.19889862420E+03  0.24036988530E+03  0.00000000000E+00 0.  1.
         11    1    4    4    0    0  0.11952605180E+03 -0.47926227724E+02 -0.13077436062E+03  0.18353564710E+03  0.00000000000E+00 0. -1.
          2    1    1    2  501    0 -0.19447085836E+03  0.97574537674E+01 -0.67631561564E+03  0.70378756355E+03  0.00000000000E+00 0. -1.
<scales pt_clust_5="13000.00000" pt_clust_6="13000.00000" pt_clust_7="13000.00000" pt_clust_8="13000.00000" pt_clust_9="230.29517"></scales>
<clustering>
<clus scale="   79.701">  5  6 -1 -1</clus>
<clus scale="   93.005">  7  8 -1 -1</clus>
<clus scale="   96.846">  2  5  1 -1</clus>
<clus scale="  230.295">  1  9  2 -1</clus>
<clus scale="  230.295">  1  5  2 -1</clus>
</clustering>
</event>
<event>
 9    1  0.3197504E-005  0.1125844E+03  0.7546771E-02  0.1256505E+00
         21   -1    0    0  501  502  0.00000000000E+00  0.00000000000E+00  0.26100882691E+03  0.26100882691E+03  0.00000000000E+00 0. -1.
         -4   -1    0    0    0  501 -0.00000000000E+00 -0.00000000000E+00 -0.12320278433E+03  0.12320278433E+03  0.00000000000E+00 0.  1.
         23    2    1    2    0    0 -0.45915760626E+02  0.66253851631E+02 -0.40724218652E+02  0.12863458735E+03  0.91600028104E+02 0.  0.
        -24    2    1    2    0    0  0.26036321632E+02 -0.23336945890E+02  0.36934673514E+02  0.10629084450E+03  0.93333115398E+02 0.  0.
         13    1    4    4    0    0  0.30128146069E+02  0.71714090257E+01 -0.23226776678E+02  0.38711980675E+02  0.00000000000E+00 0. -1.
        -14    1    4    4    0    0 -0.40918244364E+01 -0.30508354916E+02  0.60161450193E+02  0.67578863827E+02  0.00000000000E+00 0.  1.
        -11    1    3    3    0    0 -0.24892898519E+02  0.20526022120E+02 -0.65142657641E+02  0.72694840431E+02  0.00000000000E+00 0.  1.
         11    1    3    3    0    0 -0.21022862107E+02  0.45727829512E+02  0.24418438989E+02  0.55939746922E+02  0.00000000000E+00 0. -1.
         -3    1    1    2    0  502  0.19879438994E+02 -0.42916905741E+02  0.14159558771E+03  0.14928617938E+03  0.00000000000E+00 0.  1.
<scales pt_clust_5="13000.00000" pt_clust_6="13000.00000" pt_clust_7="13000.00000" pt_clust_8="13000.00000" pt_clust_9="47.29749"></scales>
<clustering>
<clus scale="   47.297">  1  9  2 -1</clus>
<clus scale="   91.600">  7  8 -1 -1</clus>
<clus scale="   93.333">  5  6 -1 -1</clus>
<clus scale="  111.152">  2  7  1 -1</clus>
<clus scale="   47.297">  1  5  2 -1</clus>
</clustering>
</event>
<event>
 9    1  0.3197504E-005  0.9297986E+02  0.7546771E-02  0.1302626E+00
         -2   -1    0    0    0  501 -0.00000000000E+00  0.00000000000E+00  0.17004326959E+03  0.17004326959E+03  0.00000000000E+00 0.  1.
         21   -1    0    0  501  502  0.00000000000E+00 -0.00000000000E+00 -0.35016231943E+03  0.35016231943E+03  0.00000000000E+00 0.  1.
        -24    2    1    2    0    0  0.17629716583E+02  0.17675352142E+01  0.14461000996E+03  0.16613717861E+03  0.79847204381E+02 0.  0.
         23    2    1    2    0    0 -0.28893380053E+02 -0.35029045912E+02 -0.19905864013E+03  0.22358372706E+03  0.91123429086E+02 0.  0.
         11    1    3    3    0    0 -0.11296552575E+02  0.24721347185E+02  0.14332857969E+02  0.30727641047E+02  0.00000000000E+00 0. -1.
        -12    1    3    3    0    0  0.28926269159E+02 -0.22953811971E+02  0.13027715200E+03  0.13540953756E+03  0.00000000000E+00 0.  1.
        -13    1    4    4    0    0  0.13170024876E+02  0.24260318719E+02 -0.73306067899E+02  0.78331297771E+02  0.00000000000E+00 0. -1.
         13    1    4    4    0    0 -0.42063404929E+02 -0.59289364631E+02 -0.12575257223E+03  0.14525242929E+03  0.00000000000E+00 0.  1.
         -1    1    1    2    0  502  0.11263663469E+02  0.33261510698E+02 -0.12567041967E+03  0.13048468335E+03  0.00000000000E+00 0.  1.
<scales pt_clust_5="13000.00000" pt_clust_6="13000.00000" pt_clust_7="13000.00000" pt_clust_8="13000.00000" pt_clust_9="35.11692"></scales>
<clustering>
<clus scale="   35.117">  2  9  1 -1</clus>
<clus scale="   79.847">  5  6 -1 -1</clus>
<clus scale="   81.959">  1  5  2 -1</clus>
<clus scale="   91.123">  7  8 -1 -1</clus>
<clus scale="   35.117">  2  5  1 -1</clus>
</clustering>
</event>
<event>
 9    1  0.3197504E-005  0.1458234E+03  0.7546771E-02  0.1207868E+00
          3   -1    0    0  502    0 -0.00000000000E+00  0.00000000000E+00  0.20262204612E+03  0.20262204612E+03  0.00000000000E+00 0. -1.
         21   -1    0    0  501  502  0.00000000000E+00 -0.00000000000E+00 -0.28627019784E+03  0.28627019784E+03  0.00000000000E+00 0. -1.
         23    2    1    2    0    0 -0.11063953848E+03  0.21802907259E+02  0.13974469565E+03  0.20083949737E+03  0.89952484680E+02 0.  0.
        -24    2    1    2    0    0  0.13106653407E+03 -0.16356958026E+01 -0.19317736626E+03  0.24637596810E+03  0.78756021779E+02 0.  0.
         11    1    4    4    0    0  0.12579889163E+03  0.18481039388E+02 -0.13919235878E+03  0.18852432919E+03  0.00000000000E+00 0. -1.
        -12    1    4    4    0    0  0.52676424347E+01 -0.20116735190E+02 -0.53985007487E+02  0.57851638913E+02  0.00000000000E+00 0.  1.
        -11    1    3    3    0    0  0.61074206065E+00 -0.22857564670E+02  0.34073435742E+02  0.41034623085E+02  0.00000000000E+00 0.  1.
         11    1    3    3    0    0 -0.11125028054E+03  0.44660471929E+02  0.10567125991E+03  0.15980487428E+03  0.00000000000E+00 0. -1.
          4    1    1    2  501    0 -0.20426995588E+02 -0.20167211457E+02 -0.30215481108E+02  0.41676778490E+02  0.00000000000E+00 0. -1.
<scales pt_clust_5="13000.00000" pt_clust_6="13000.00000" pt_clust_7="13000.00000" pt_clust_8="13000.00000" pt_clust_9="28.70503"></scales>
<clustering>
<clus scale="   28.705">  2  9  1 -1</clus>
<clus scale="   78.756">  5  6 -1 -1</clus>
<clus scale="   89.952">  7  8 -1 -1</clus>
<clus scale="  139.196">  2  5  1 -1</clus>
<clus scale="   28.705">  2  5  1 -1</clus>
</clustering>
</event>
<event>
 9    1  0.3197504E-005  0.1614715E+03  0.7546771E-02  0.1217356E+00
          1   -1    0    0  502    0 -0.00000000000E+00  0.00000000000E+00  0.29620714904E+03  0.29620714904E+03  0.00000000000E+00 0. -1.
         21   -1    0    0  501  502  0.00000000000E+00 -0.00000000000E+00 -0.15298803599E+03  0.15298803599E+03  0.00000000000E+00 0.  1.
        -24    2    1    2    0    0  0.25079969623E+02  0.16005794252E+02  0.12150921287E+02  0.84670932575E+02  0.78334740754E+02 0.  0.
         23    2    1    2    0    0 -0.76688230413E+02 -0.11856733895E+03 -0.25980895993E+02  0.16998197170E+03  0.90992116126E+02 0.  0.
         13    1    3    3    0    0 -0.28195718393E+02  0.86247819221E+01  0.88513921272E+01  0.30785265006E+02  0.00000000000E+00 0. -1.
        -14    1    3    3    0    0  0.53275688016E+02  0.73810123296E+01  0.32995291596E+01  0.53885667568E+02  0.00000000000E+00 0.  1.
        -13    1    4    4    0    0 -0.19433590315E+02 -0.25090327972E+02  0.32765005496E+02  0.45615069609E+02  0.00000000000E+00 0. -1.
         13    1    4    4    0    0 -0.57254640098E+02 -0.93477010979E+02 -0.58745901489E+02  0.12436690209E+03  0.00000000000E+00 0.  1.
          2    1    1    2  501    0  0.51608260789E+02  0.10256154470E+03  0.15704908776E+03  0.19454228075E+03  0.00000000000E+00 0. -1.
<scales pt_clust_5="13000.00000" pt_clust_6="13000.00000" pt_clust_7="13000.00000" pt_clust_8="13000.00000" pt_clust_9="133.39229"></scales>
<clustering>
<clus scale="   78.335">  5  6 -1 -1</clus>
<clus scale="   83.795">  1  5  2 -1</clus>
<clus scale="   90.992">  7  8 -1 -1</clus>
<clus scale="  133.392">  2  9  1 -1</clus>
<clus scale="  133.392">  2  5  1 -1</clus>
</clustering>
</event>
<event>
 9    1  0.3197504E-005  0.1002097E+03  0.7546771E-02  0.1287263E+00
         -2   -1    0    0    0  501 -0.00000000000E+00  0.00000000000E+00  0.81493706688E+02  0.81493706688E+02  0.00000000000E+00 0.  1.
         21   -1    0    0  501  502  0.00000000000E+00 -0.00000000000E+00 -0.15434596965E+03  0.15434596965E+03  0.00000000000E+00 0. -1.
         23    2    1    2    0    0  0.30187099229E+02 -0.30886019195E+02  0.28558661545E+01  0.10389275128E+03  0.94447555048E+02 0.  0.
        -24    2    1    2    0    0 -0.15198928177E+02  0.12465110375E+02 -0.48929429786E+02  0.96154832485E+02  0.80406941968E+02 0.  0.
         11    1    4    4    0    0  0.18321297202E+02 -0.14941637574E+02 -0.47237788772E+02  0.52823585193E+02  0.00000000000E+00 0. -1.
        -12    1    4    4    0    0 -0.33520225379E+02  0.27406747949E+02 -0.16916410145E+01  0.43331247292E+02  0.00000000000E+00 0.  1.
        -13    1    3    3    0    0  0.29527068444E+02  0.28039763997E+02 -0.13216760716E+02  0.42810733464E+02  0.00000000000E+00 0. -1.
         13    1    3    3    0    0  0.66003078553E+00 -0.58925783192E+02  0.16072626871E+02  0.61082017812E+02  0.00000000000E+00 0.  1.
         -1    1    1    2    0  502 -0.14988171052E+02  0.18420908820E+02 -0.26778699325E+02  0.35792092574E+02  0.00000000000E+00 0.  1.
<scales pt_clust_5="13000.00000" pt_clust_6="13000.00000" pt_clust_7="13000.00000" pt_clust_8="13000.00000" pt_clust_9="23.74816"></scales>
<clustering>
<clus scale="   23.748">  2  9  1 -1</clus>
<clus scale="   80.407">  5  6 -1 -1</clus>
<clus scale="   87.103">  2  5  1 -1</clus>
<clus scale="   94.448">  7  8 -1 -1</clus>
<clus scale="   23.748">  2  5  1 -1</clus>
</clustering>
</event>
<event>
 9    1  0.3197504E-005  0.1128077E+03  0.7546771E-02  0.1259884E+00
         -2   -1    0    0    0  501 -0.00000000000E+00  0.00000000000E+00  0.84577763221E+02  0.84577763221E+02  0.00000000000E+00 0.  1.
         21   -1    0    0  501  502  0.00000000000E+00 -0.00000000000E+00 -0.38220670587E+03  0.38220670587E+03  0.00000000000E+00 0.  1.
        -24    2    1    2    0    0  0.70790321176E+02 -0.40979663041E+01  0.24111916164E+02  0.10976435321E+03  0.80241920681E+02 0.  0.
         23    2    1    2    0    0 -0.44130652672E+02  0.25319338361E+01 -0.13983742745E+03  0.17316678106E+03  0.92077699544E+02 0.  0.
         13    1    3    3    0    0  0.11606759010E+02  0.20981041113E+02 -0.20480011897E+02  0.31533344704E+02  0.00000000000E+00 0. -1.
        -14    1    3    3    0    0  0.59183562166E+02 -0.25079007418E+02  0.44591928061E+02  0.78231008506E+02  0.00000000000E+00 0.  1.
        -13    1    4    4    0    0 -0.20278122041E+02 -0.28927663935E+02 -0.89338680919E+01  0.36439346499E+02  0.00000000000E+00 0.  1.
         13    1    4    4    0    0 -0.23852530631E+02  0.31459597771E+02 -0.13090355936E+03  0.13672743456E+03  0.00000000000E+00 0. -1.
         -1    1    1    2    0  502 -0.26659668504E+02  0.15660324681E+01 -0.18190343136E+03  0.18385333482E+03  0.00000000000E+00 0.  1.
<scales pt_clust_5="13000.00000" pt_clust_6="13000.00000" pt_clust_7="13000.00000" pt_clust_8="13000.00000" pt_clust_9="26.70562"></scales>
<clustering>
<clus scale="   26.706">  2  9  1 -1</clus>
<clus scale="   80.242">  5  6 -1 -1</clus>
<clus scale="   92.078">  7  8 -1 -1</clus>
<clus scale="  103.373">  1  5  2 -1</clus>
<clus scale="   26.706">  2  5  1 -1</clus>
</clustering>
</event>
<event>
 9    1  0.3197504E-005  0.2050563E+03  0.7546771E-02  0.1174608E+00
         -2   -1    0    0    0  501 -0.00000000000E+00  0.00000000000E+00  0.58613431334E+03  0.58613431334E+03  0.00000000000E+00 0.  1.
         21   -1    0    0  501  502  0.00000000000E+00 -0.00000000000E+00 -0.12742413807E+03  0.12742413807E+03  0.00000000000E+00 0.  1.
         23    2    1    2    0    0 -0.98548031878E+01  0.47038390172E+02  0.12323338857E+03  0.16140439993E+03  0.92494242863E+02 0.  0.
        -24    2    1    2    0    0  0.19084489934E+03  0.13045731343E+01  0.54167277671E+02  0.21417550648E+03  0.80706728903E+02 0.  0.
         13    1    4    4    0    0  0.97302517746E+02 -0.33226051534E+02  0.48490469277E+01  0.10293329741E+03  0.00000000000E+00 0. -1.
        -14    1    4    4    0    0  0.93542381599E+02  0.34530624669E+02  0.49318230743E+02  0.11124220907E+03  0.00000000000E+00 0.  1.
        -13    1    3    3    0    0  0.33790299112E+02  0.18001046954E+02  0.93735607489E+02  0.10125307954E+03  0.00000000000E+00 0. -1.
         13    1    3    3    0    0 -0.43645102300E+02  0.29037343218E+02  0.29497781086E+02  0.60151320392E+02  0.00000000000E+00 0.  1.
         -1    1    1    2    0  502 -0.18099009616E+03 -0.48342963306E+02  0.28130950902E+03  0.33797854499E+03  0.00000000000E+00 0.  1.
<scales pt_clust_5="13000.00000" pt_clust_6="13000.00000" pt_clust_7="13000.00000" pt_clust_8="13000.00000" pt_clust_9="188.50614"></scales>
<clustering>
<clus scale="   80.707">  5  6 -1 -1</clus>
<clus scale="   92.494">  7  8 -1 -1</clus>
<clus scale="  104.235">  1  7  2 -1</clus>
<clus scale="  188.506">  2  9  1 -1</clus>
<clus scale="  188.506">  2  5  1 -1</clus>
</clustering>
</event>
<event>
 9    1  0.3197504E-005  0.1754452E+03  0.7546771E-02  0.1174372E+00
          1   -1    0    0  502    0 -0.00000000000E+00  0.00000000000E+00  0.63981736881E+03  0.63981736881E+03  0.00000000000E+00 0. -1.
         21   -1    0    0  501  502  0.00000000000E+00 -0.00000000000E+00 -0.78756254047E+02  0.78756254047E+02  0.00000000000E+00 0. -1.
        -24    2    1    2    0    0  0.11923730256E+03  0.77929409147E+02  0.40217304742E+03  0.43333425579E+03  0.75795052858E+02 0.  0.
         23    2    1    2    0    0 -0.15023722413E+03 -0.77158754449E+02  0.16511366921E+03  0.25361110178E+03  0.92365417146E+02 0.  0.
         11    1    3    3    0    0  0.93887256737E+02  0.32689190581E+02  0.32868631338E+03  0.34339203946E+03  0.00000000000E+00 0. -1.
        -12    1    3    3    0    0  0.25350045824E+02  0.45240218566E+02  0.73486734041E+02  0.89942216334E+02  0.00000000000E+00 0.  1.
        -13    1    4    4    0    0 -0.13923099053E+03 -0.40928077927E+02  0.93591775174E+02  0.17268409501E+03  0.00000000000E+00 0. -1.
         13    1    4    4    0    0 -0.11006233598E+02 -0.36230676522E+02  0.71521894039E+02  0.80927006779E+02  0.00000000000E+00 0.  1.
          2    1    1    2  501    0  0.30999921570E+02 -0.77065469786E+00 -0.62256018711E+01  0.31628265281E+02  0.00000000000E+00 0. -1.
<scales pt_clust_5="13000.00000" pt_clust_6="13000.00000" pt_clust_7="13000.00000" pt_clust_8="13000.00000" pt_clust_9="31.00950"></scales>
<clustering>
<clus scale="   31.009">  2  9  1 -1</clus>
<clus scale="   75.795">  5  6 -1 -1</clus>
<clus scale="   92.365">  7  8 -1 -1</clus>
<clus scale="  167.316">  1  5  2 -1</clus>
<clus scale="   31.009">  2  5  1 -1</clus>
</clustering>
</event>
<event>
 9    1  0.3197504E-005  0.1311322E+03  0.7546771E-02  0.1228952E+00
         21   -1    0    0  501  502  0.00000000000E+00  0.00000000000E+00  0.48746219624E+03  0.48746219624E+03  0.00000000000E+00 0. -1.
         -2   -1    0    0    0  501 -0.00000000000E+00 -0.00000000000E+00 -0.50588257767E+02  0.50588257767E+02  0.00000000000E+00 0.  1.
        -24    2    1    2    0    0  0.79303953963E+02  0.54312199009E+02  0.78798144866E+02  0.14812536855E+03  0.80579433472E+02 0.  0.
         23    2    1    2    0    0 -0.57749873959E+02 -0.63693937152E+02  0.26093766886E+03  0.28998304898E+03  0.92788663612E+02 0.  0.
         13    1    3    3    0    0  0.88783818239E+02  0.31360460240E+02  0.40543067324E+02  0.10251724321E+03  0.00000000000E+00 0. -1.
        -14    1    3    3    0    0 -0.94798642765E+01  0.22951738769E+02  0.38255077542E+02  0.45608125339E+02  0.00000000000E+00 0.  1.
        -11    1    4    4    0    0  0.20881921175E+02  0.25580100231E+01  0.70350131017E+02  0.73428461657E+02  0.00000000000E+00 0. -1.
         11    1    4    4    0    0 -0.78631795135E+02 -0.66251947175E+02  0.19058753784E+03  0.21655458733E+03  0.00000000000E+00 0.  1.
         -1    1    1    2    0  502 -0.21554080003E+02  0.93817381435E+01  0.97138124744E+02  0.99942036472E+02  0.00000000000E+00 0.  1.
<scales pt_clust_5="13000.00000" pt_clust_6="13000.00000" pt_clust_7="13000.00000" pt_clust_8="13000.00000" pt_clust_9="23.50735"></scales>
<clustering>
<clus scale="   23.507">  1  9  2 -1</clus>
<clus scale="   80.579">  5  6 -1 -1</clus>
<clus scale="   92.789">  7  8 -1 -1</clus>
<clus scale="  122.796">  2  5  1 -1</clus>
<clus scale="   23.507">  1  5  2 -1</clus>
</clustering>
</event>
<event>
 9    1  0.3197504E-005  0.1282915E+03  0.7546771E-02  0.1232282E+00
         21   -1    0    0  501  502  0.00000000000E+00  0.00000000000E+00  0.29619108645E+03  0.29619108645E+03  0.00000000000E+00 0. -1.
          1   -1    0    0  502    0 -0.00000000000E+00 -0.00000000000E+00 -0.13554380423E+03  0.13554380423E+03  0.00000000000E+00 0. -1.
         23    2    1    2    0    0  0.87827868382E+02 -0.34159013466E+02 -0.77384952540E+02  0.15162731827E+03  0.90121252220E+02 0.  0.
        -24    2    1    2    0    0 -0.60147666669E+02  0.52700308843E+02  0.17968812780E+03  0.21292120460E+03  0.81563176372E+02 0.  0.
         11    1    4    4    0    0 -0.88214112690E+01  0.60817035068E+02  0.10985640874E+03  0.12587676351E+03  0.00000000000E+00 0. -1.
        -12    1    4    4    0    0 -0.51326255400E+02 -0.81167262246E+01  0.69831719061E+02  0.87044441092E+02  0.00000000000E+00 0.  1.
        -13    1    3    3    0    0  0.39089110737E+02 -0.44821600215E+02  0.96701468432E-01  0.59472210108E+02  0.00000000000E+00 0.  1.
         13    1    3    3    0    0  0.48738757645E+02  0.10662586749E+02 -0.77481654009E+02  0.92155108165E+02  0.00000000000E+00 0. -1.
          2    1    1    2  501    0 -0.27680201712E+02 -0.18541295377E+02  0.58344106965E+02  0.67186367804E+02  0.00000000000E+00 0. -1.
<scales pt_clust_5="13000.00000" pt_clust_6="13000.00000" pt_clust_7="13000.00000" pt_clust_8="13000.00000" pt_clust_9="33.31626"></scales>
<clustering>
<clus scale="   33.316">  1  9  2 -1</clus>
<clus scale="   81.563">  5  6 -1 -1</clus>
<clus scale="   90.121">  7  8 -1 -1</clus>
<clus scale="  122.431">  1  5  2 -1</clus>
<clus scale="   33.316">  1  5  2 -1</clus>
</clustering>
</event>
<event>
 9    1  0.3197504E-005  0.1079977E+03  0.7546771E-02  0.1267254E+00
         21   -1    0    0  501  502  0.00000000000E+00  0.00000000000E+00  0.17068552140E+02  0.17068552140E+02  0.00000000000E+00 0. -1.
         -4   -1    0    0    0  501 -0.00000000000E+00 -0.00000000000E+00 -0.12275350917E+04  0.12275350917E+04  0.00000000000E+00 0.  1.
        -24    2    1    2    0    0  0.22530458585E+02 -0.50641106267E+02 -0.82315018799E+03  0.82913211649E+03  0.82532971586E+02 0.  0.
         23    2    1    2    0    0 -0.20556257485E+02  0.76967264782E+02 -0.27455153659E+03  0.29965759213E+03  0.89830989705E+02 0.  0.
         13    1    3    3    0    0  0.29917192923E+02 -0.43988868570E+02 -0.23698247098E+03  0.24288011558E+03  0.00000000000E+00 0. -1.
        -14    1    3    3    0    0 -0.73867343386E+01 -0.66522376971E+01 -0.58616771701E+03  0.58625200091E+03  0.00000000000E+00 0.  1.
        -11    1    4    4    0    0  0.33369946119E+02  0.20624263963E+02 -0.12470871953E+03  0.13073323332E+03  0.00000000000E+00 0. -1.
         11    1    4    4    0    0 -0.53926203604E+02  0.56343000819E+02 -0.14984281705E+03  0.16892435881E+03  0.00000000000E+00 0.  1.
         -3    1    1    2    0  502 -0.19742010998E+01 -0.26326158515E+02 -0.11276481496E+03  0.11581393519E+03  0.00000000000E+00 0.  1.
<scales pt_clust_5="13000.00000" pt_clust_6="13000.00000" pt_clust_7="13000.00000" pt_clust_8="13000.00000" pt_clust_9="26.40009"></scales>
<clustering>
<clus scale="   26.400">  1  9  2 -1</clus>
<clus scale="   82.533">  5  6 -1 -1</clus>
<clus scale="   89.831">  7  8 -1 -1</clus>
<clus scale="  102.008">  2  5  1 -1</clus>
<clus scale="   26.400">  1  5  2 -1</clus>
</clustering>
</event>
<event>
 9    1  0.3197504E-005  0.1159664E+03  0.7546771E-02  0.1253990E+00
          1   -1    0    0  502    0 -0.00000000000E+00  0.00000000000E+00  0.32179881923E+03  0.32179881923E+03  0.00000000000E+00 0. -1.
         21   -1    0    0  501  502  0.00000000000E+00 -0.00000000000E+00 -0.70831628921E+02  0.70831628921E+02  0.00000000000E+00 0. -1.
        -24    2    1    2    0    0 -0.11187268811E+02  0.57924055140E+02  0.11650128255E+03  0.15281942322E+03  0.79378058230E+02 0.  0.
         23    2    1    2    0    0  0.51403275124E+02 -0.91585081288E+02  0.67121822403E+02  0.15445519516E+03  0.91219211024E+02 0.  0.
         13    1    3    3    0    0 -0.29342834676E+02  0.60577770661E+02  0.50042983791E+02  0.83874718907E+02  0.00000000000E+00 0. -1.
        -14    1    3    3    0    0  0.18155565865E+02 -0.26537155209E+01  0.66458298763E+02  0.68944704310E+02  0.00000000000E+00 0.  1.
        -11    1    4    4    0    0 -0.11103121012E+02 -0.61709740384E+02  0.76778431997E+01  0.63168984721E+02  0.00000000000E+00 0. -1.
         11    1    4    4    0    0  0.62506396136E+02 -0.29875340904E+02  0.59443979203E+02  0.91286210435E+02  0.00000000000E+00 0.  1.
          2    1    1    2  501    0 -0.40216006313E+02  0.33661026148E+02  0.67344085357E+02  0.85355829781E+02  0.00000000000E+00 0. -1.
<scales pt_clust_5="13000.00000" pt_clust_6="13000.00000" pt_clust_7="13000.00000" pt_clust_8="13000.00000" pt_clust_9="52.44420"></scales>
<clustering>
<clus scale="   52.444">  2  9  1 -1</clus>
<clus scale="   79.378">  5  6 -1 -1</clus>
<clus scale="   91.219">  7  8 -1 -1</clus>
<clus scale="  106.902">  1  5  2 -1</clus>
<clus scale="   52.444">  2  5  1 -1</clus>
</clustering>
</event>
<event>
 9    1  0.3197504E-005  0.9880785E+02  0.7546771E-02  0.1290446E+00
         21   -1    0    0  501  502  0.00000000000E+00  0.00000000000E+00  0.52117122251E+02  0.52117122251E+02  0.00000000000E+00 0.  1.
         -4   -1    0    0    0  501 -0.00000000000E+00 -0.00000000000E+00 -0.83540579978E+03  0.83540579978E+03  0.00000000000E+00 0.  1.
        -24    2    1    2    0    0  0.23198734798E+02  0.16698626251E+02 -0.57045726560E+03  0.57661469724E+03  0.79031587301E+02 0.  0.
         23    2    1    2    0    0 -0.85437580383E+02 -0.37658473247E+02 -0.60697416387E+02  0.14520444786E+03  0.93179475072E+02 0.  0.
         11    1    3    3    0    0  0.17193568537E+02 -0.10267610893E+02 -0.34093966552E+02  0.39540374148E+02  0.00000000000E+00 0. -1.
        -12    1    3    3    0    0  0.60051662607E+01  0.26966237144E+02 -0.53636329904E+03  0.53707432310E+03  0.00000000000E+00 0.  1.
        -11    1    4    4    0    0 -0.84744996314E+02  0.30938109704E+01 -0.60971684706E+02  0.10444535606E+03  0.00000000000E+00 0.  1.
         11    1    4    4    0    0 -0.69258406862E+00 -0.40752284217E+02  0.27426831947E+00  0.40759091805E+02  0.00000000000E+00 0. -1.
         -3    1    1    2    0  502  0.62238845585E+02  0.20959846996E+02 -0.15213399555E+03  0.16570377693E+03  0.00000000000E+00 0.  1.
<scales pt_clust_5="13000.00000" pt_clust_6="13000.00000" pt_clust_7="13000.00000" pt_clust_8="13000.00000" pt_clust_9="65.67338"></scales>
<clustering>
<clus scale="   65.673">  1  9  2 -1</clus>
<clus scale="   79.032">  5  6 -1 -1</clus>
<clus scale="   85.595">  2  5  1 -1</clus>
<clus scale="   93.179">  7  8 -1 -1</clus>
<clus scale="   65.673">  1  5  2 -1</clus>
</clustering>
</event>
<event>
 9    1  0.3197504E-005  0.9114932E+02  0.7546771E-02  0.1306411E+00
          3   -1    0    0  502    0 -0.00000000000E+00  0.00000000000E+00  0.15450405633E+03  0.15450405633E+03  0.00000000000E+00 0. -1.
         21   -1    0    0  501  502  0.00000000000E+00 -0.00000000000E+00 -0.42125059901E+03  0.42125059901E+03  0.00000000000E+00 0.  1.
        -24    2    1    2    0    0  0.58391714268E+01  0.10423914770E+01  0.12673934820E+03  0.15045754592E+03  0.80866731352E+02 0.  0.
         23    2    1    2    0    0 -0.24750117149E+02  0.39326529057E+02 -0.17744573568E+03  0.20470558132E+03  0.90874868513E+02 0.  0.
         11    1    3    3    0    0  0.26385149656E+02 -0.30822607910E+02  0.46508361151E+02  0.61719016013E+02  0.00000000000E+00 0. -1.
        -12    1    3    3    0    0 -0.20545978229E+02  0.31864999387E+02  0.80230987047E+02  0.88738529906E+02  0.00000000000E+00 0.  1.
        -13    1    4    4    0    0 -0.16706930096E+02 -0.16742687148E+02 -0.63683264262E+01  0.24494788581E+02  0.00000000000E+00 0. -1.
         13    1    4    4    0    0 -0.80431870526E+01  0.56069216205E+02 -0.17107740925E+03  0.18021079274E+03  0.00000000000E+00 0.  1.
          4    1    1    2  501    0  0.18910945722E+02 -0.40368920535E+02 -0.21604015520E+03  0.22059152810E+03  0.00000000000E+00 0. -1.
<scales pt_clust_5="13000.00000" pt_clust_6="13000.00000" pt_clust_7="13000.00000" pt_clust_8="13000.00000" pt_clust_9="44.57885"></scales>
<clustering>
<clus scale="   44.579">  2  9  1 -1</clus>
<clus scale="   80.867">  5  6 -1 -1</clus>
<clus scale="   81.175">  1  5  2 -1</clus>
<clus scale="   90.875">  7  8 -1 -1</clus>
<clus scale="   44.579">  2  5  1 -1</clus>
</clustering>
</event>
<event>
 9    1  0.3197504E-005  0.1163136E+03  0.7546771E-02  0.1258473E+00
          1   -1    0    0  502    0 -0.00000000000E+00  0.00000000000E+00  0.33066221983E+02  0.33066221983E+02  0.00000000000E+00 0. -1.
         21   -1    0    0  501  502  0.00000000000E+00 -0.00000000000E+00 -0.56527238851E+03  0.56527238851E+03  0.00000000000E+00 0. -1.
        -24    2    1    2    0    0 -0.24088553366E+02 -0.25659572316E+02 -0.16678983807E+03  0.18784159488E+03  0.78910979136E+02 0.  0.
         23    2    1    2    0    0  0.63143841041E+02  0.58911673783E+02 -0.23336386729E+03  0.26883237554E+03  0.10175667847E+03 0.  0.
         11    1    3    3    0    0 -0.50893307266E+02 -0.16887573711E+02 -0.77796495168E+02  0.94486049397E+02  0.00000000000E+00 0. -1.
        -12    1    3    3    0    0  0.26804753900E+02 -0.87719986052E+01 -0.88993342899E+02  0.93355545478E+02  0.00000000000E+00 0.  1.
        -13    1    4    4    0    0  0.43460669544E+02 -0.14559228923E+02 -0.39233519777E+02  0.60332992783E+02  0.00000000000E+00 0.  1.
         13    1    4    4    0    0  0.19683171497E+02  0.73470902706E+02 -0.19413034752E+03  0.20849938276E+03  0.00000000000E+00 0. -1.
          2    1    1    2  501    0 -0.39055287675E+02 -0.33252101467E+02 -0.13205246116E+03  0.14166464007E+03  0.00000000000E+00 0. -1.
<scales pt_clust_5="13000.00000" pt_clust_6="13000.00000" pt_clust_7="13000.00000" pt_clust_8="13000.00000" pt_clust_9="51.29345"></scales>
<clustering>
<clus scale="   51.293">  2  9  1 -1</clus>
<clus scale="   78.911">  5  6 -1 -1</clus>
<clus scale="   96.961">  1  5  2 -1</clus>
<clus scale="  101.757">  7  8 -1 -1</clus>
<clus scale="   51.293">  2  5  1 -1</clus>
</clustering>
</event>
<event>
 9    1  0.3197504E-005  0.8945502E+02  0.7546771E-02  0.1308191E+00
         21   -1    0    0  501  502  0.00000000000E+00  0.00000000000E+00  0.26160470110E+03  0.26160470110E+03  0.00000000000E+00 0. -1.
          1   -1    0    0  502    0 -0.00000000000E+00 -0.00000000000E+00 -0.56154314241E+02  0.56154314241E+02  0.00000000000E+00 0. -1.
         23    2    1    2    0    0  0.32952438849E+02 -0.57008846552E+01  0.33439269606E+02  0.99045223574E+02  0.87025331077E+02 0.  0.
        -24    2    1    2    0    0  0.10070559060E+02  0.40231646614E-01  0.14884159353E+03  0.16952183947E+03  0.80513454240E+02 0.  0.
         11    1    4    4    0    0 -0.30803837824E+02  0.13939058938E+02  0.92877850573E+02  0.98840623814E+02  0.00000000000E+00 0. -1.
        -12    1    4    4    0    0  0.40874396884E+02 -0.13898827291E+02  0.55963742961E+02  0.70681215658E+02  0.00000000000E+00 0.  1.
        -11    1    3    3    0    0  0.58702536302E+02  0.37224616753E+01  0.42150601933E+01  0.58971274546E+02  0.00000000000E+00 0. -1.
         11    1    3    3    0    0 -0.25750097453E+02 -0.94233463305E+01  0.29224209413E+02  0.40073949028E+02  0.00000000000E+00 0.  1.
          2    1    1    2  501    0 -0.43022997909E+02  0.56606530086E+01  0.23169523723E+02  0.49191952300E+02  0.00000000000E+00 0. -1.
<scales pt_clust_5="13000.00000" pt_clust_6="13000.00000" pt_clust_7="13000.00000" pt_clust_8="13000.00000" pt_clust_9="43.39382"></scales>
<clustering>
<clus scale="   43.394">  1  9  2 -1</clus>
<clus scale="   80.513">  5  6 -1 -1</clus>
<clus scale="   83.134">  1  5  2 -1</clus>
<clus scale="   87.025">  7  8 -1 -1</clus>
<clus scale="   43.394">  1  5  2 -1</clus>
</clustering>
</event>
<event>
 9    1  0.3197504E-005  0.1644307E+03  0.7546771E-02  0.1185980E+00
         21   -1    0    0  501  502  0.00000000000E+00  0.00000000000E+00  0.68412270210E+03  0.68412270210E+03  0.00000000000E+00 0. -1.
          3   -1    0    0  502    0 -0.00000000000E+00 -0.00000000000E+00 -0.21279077905E+03  0.21279077905E+03  0.00000000000E+00 0. -1.
        -24    2    1    2    0    0 -0.10454670546E+03  0.10696475892E+03 -0.14999102013E+03  0.22693454108E+03  0.81427922363E+02 0.  0.
         23    2    1    2    0    0  0.69402926067E+02 -0.10979671648E+01  0.18430957444E+03  0.21895394377E+03  0.95670468716E+02 0.  0.
         11    1    3    3    0    0 -0.11196655792E+03  0.10638190252E+03 -0.15431484054E+03  0.21832702372E+03  0.00000000000E+00 0. -1.
        -12    1    3    3    0    0  0.74198524564E+01  0.58285640502E+00  0.43238204136E+01  0.86075173559E+01  0.00000000000E+00 0.  1.
        -11    1    4    4    0    0  0.37620186994E+02 -0.42537085382E+02  0.13772258350E+03  0.14897044038E+03  0.00000000000E+00 0.  1.
         11    1    4    4    0    0  0.31782739073E+02  0.41439118217E+02  0.46586990941E+02  0.69983503389E+02  0.00000000000E+00 0. -1.
          4    1    1    2  501    0  0.35143779398E+02 -0.10586679176E+03  0.43701336873E+03  0.45102499629E+03  0.00000000000E+00 0. -1.
<scales pt_clust_5="13000.00000" pt_clust_6="13000.00000" pt_clust_7="13000.00000" pt_clust_8="13000.00000" pt_clust_9="111.54758"></scales>
<clustering>
<clus scale="   81.428">  5  6 -1 -1</clus>
<clus scale="   95.670">  7  8 -1 -1</clus>
<clus scale="  111.548">  1  9  2 -1</clus>
<clus scale="  156.573">  2  5  1 -1</clus>
<clus scale="  111.548">  1  5  2 -1</clus>
</clustering>
</event>
<event>
 9    1  0.3197504E-005  0.1142631E+03  0.7546771E-02  0.1256876E+00
         21   -1    0    0  501  502  0.00000000000E+00  0.00000000000E+00  0.11483638508E+03  0.11483638508E+03  0.00000000000E+00 0. -1.
          1   -1    0    0  502    0 -0.00000000000E+00 -0.00000000000E+00 -0.19839092261E+03  0.19839092261E+03  0.00000000000E+00 0. -1.
        -24    2    1    2    0    0  0.77479530814E+02 -0.36779867800E+02 -0.55290176188E+02  0.12947763065E+03  0.79697031841E+02 0.  0.
         23    2    1    2    0    0 -0.36537891058E+02  0.11721535113E+02  0.34665557950E+02  0.10460226619E+03  0.90925911138E+02 0.  0.
         11    1    3    3    0    0  0.75891099142E+02  0.19523129132E+01 -0.23876181357E+02  0.79582300111E+02  0.00000000000E+00 0. -1.
        -12    1    3    3    0    0  0.15884316722E+01 -0.38732180713E+02 -0.31413994831E+02  0.49895330535E+02  0.00000000000E+00 0.  1.
        -11    1    4    4    0    0 -0.26445209071E+02  0.51112861462E+02  0.25351985394E+02  0.62885585416E+02  0.00000000000E+00 0.  1.
         11    1    4    4    0    0 -0.10092681986E+02 -0.39391326349E+02  0.93135725556E+01  0.41716680776E+02  0.00000000000E+00 0. -1.
          2    1    1    2  501    0 -0.40941639757E+02  0.25058332687E+02 -0.62929919289E+02  0.79147410853E+02  0.00000000000E+00 0. -1.
<scales pt_clust_5="13000.00000" pt_clust_6="13000.00000" pt_clust_7="13000.00000" pt_clust_8="13000.00000" pt_clust_9="48.00146"></scales>
<clustering>
<clus scale="   48.001">  1  9  2 -1</clus>
<clus scale="   79.697">  5  6 -1 -1</clus>
<clus scale="   90.926">  7  8 -1 -1</clus>
<clus scale="  105.547">  2  5  1 -1</clus>
<clus scale="   48.001">  1  5  2 -1</clus>
</clustering>
</event>
<event>
 9    1  0.3197504E-005  0.9461340E+02  0.7546771E-02  0.1296078E+00
         21   -1    0    0  501  502  0.00000000000E+00  0.00000000000E+00  0.67873862047E+03  0.67873862047E+03  0.00000000000E+00 0. -1.
         -4   -1    0    0    0  501 -0.00000000000E+00 -0.00000000000E+00 -0.10193488339E+03  0.10193488339E+03  0.00000000000E+00 0.  1.
        -24    2    1    2    0    0 -0.30400643269E+02 -0.93224281923E+01 -0.66320204044E+02  0.10913774470E+03  0.80632320293E+02 0.  0.
         23    2    1    2    0    0  0.58466327454E+02  0.51825227849E+02  0.26452991296E+03  0.28953103566E+03  0.88022611154E+02 0.  0.
         11    1    3    3    0    0 -0.33544004320E+02 -0.27870565765E+01  0.78917041705E+01  0.34572343063E+02  0.00000000000E+00 0. -1.
        -12    1    3    3    0    0  0.31433610508E+01 -0.65353716158E+01 -0.74211908214E+02  0.74565401639E+02  0.00000000000E+00 0.  1.
        -11    1    4    4    0    0 -0.20845956321E+02  0.92130017031E+01  0.26002127255E+02  0.34576638314E+02  0.00000000000E+00 0.  1.
         11    1    4    4    0    0  0.79312283775E+02  0.42612226146E+02  0.23852778570E+03  0.25495439735E+03  0.00000000000E+00 0. -1.
         -3    1    1    2    0  502 -0.28065684185E+02 -0.42502799657E+02  0.37859402817E+03  0.38200472350E+03  0.00000000000E+00 0.  1.
<scales pt_clust_5="13000.00000" pt_clust_6="13000.00000" pt_clust_7="13000.00000" pt_clust_8="13000.00000" pt_clust_9="50.93300"></scales>
<clustering>
<clus scale="   50.933">  1  9  2 -1</clus>
<clus scale="   80.632">  5  6 -1 -1</clus>
<clus scale="   87.780">  2  5  1 -1</clus>
<clus scale="   88.023">  7  8 -1 -1</clus>
<clus scale="   50.933">  1  5  2 -1</clus>
</clustering>
</event>
<event>
 9    1  0.3197504E-005  0.1795700E+03  0.7546771E-02  0.1181312E+00
         21   -1    0    0  501  502  0.00000000000E+00  0.00000000000E+00  0.11936580122E+04  0.11936580122E+04  0.00000000000E+00 0. -1.
         -2   -1    0    0    0  501 -0.00000000000E+00 -0.00000000000E+00 -0.11844525770E+03  0.11844525770E+03  0.00000000000E+00 0.  1.
        -24    2    1    2    0    0  0.10358918632E+03  0.22204118490E+02  0.76957965506E+03  0.78106087693E+03  0.81114151573E+02 0.  0.
         23    2    1    2    0    0  0.12795575522E+03  0.17819164874E+02  0.23705389059E+03  0.28626079427E+03  0.95186644861E+02 0.  0.
         13    1    3    3    0    0  0.98069173304E+02  0.42260975653E+02  0.53453422610E+03  0.54509668104E+03  0.00000000000E+00 0. -1.
        -14    1    3    3    0    0  0.55200130128E+01 -0.20056857163E+02  0.23504542896E+03  0.23596419588E+03  0.00000000000E+00 0.  1.
        -11    1    4    4    0    0  0.29415416384E+02 -0.19288706287E+02  0.13542969012E+03  0.13992327139E+03  0.00000000000E+00 0.  1.
         11    1    4    4    0    0  0.98540338839E+02  0.37107871161E+02  0.10162420048E+03  0.14633752288E+03  0.00000000000E+00 0. -1.
         -1    1    1    2    0  502 -0.23154494154E+03 -0.40023283364E+02  0.68579208806E+02  0.24478159866E+03  0.00000000000E+00 0.  1.
<scales pt_clust_5="13000.00000" pt_clust_6="13000.00000" pt_clust_7="13000.00000" pt_clust_8="13000.00000" pt_clust_9="152.26588"></scales>
<clustering>
<clus scale="   81.114">  5  6 -1 -1</clus>
<clus scale="   95.187">  7  8 -1 -1</clus>
<clus scale="  133.429">  2  5  1 -1</clus>
<clus scale="  152.266">  1  9  2 -1</clus>
<clus scale="  152.266">  1  5  2 -1</clus>
</clustering>
</event>
<event>
 9    1  0.3197504E-005  0.9324040E+02  0.7546771E-02  0.1302281E+00
         -2   -1    0    0    0  501 -0.00000000000E+00  0.00000000000E+00  0.21351926723E+03  0.21351926723E+03  0.00000000000E+00 0.  1.
         21   -1    0    0  501  502  0.00000000000E+00 -0.00000000000E+00 -0.86548546693E+02  0.86548546693E+02  0.00000000000E+00 0.  1.
        -24    2    1    2    0    0  0.96385015301E+01 -0.24721599455E+02  0.99424160074E+02  0.13023665949E+03  0.79827098642E+02 0.  0.
         23    2    1    2    0    0  0.35730698864E+02  0.17300600054E+01  0.54397464823E+02  0.11231640592E+03  0.91521663617E+02 0.  0.
         13    1    3    3    0    0  0.41982875693E+02  0.23483369796E-01  0.38554506324E+02  0.57000108428E+02  0.00000000000E+00 0. -1.
        -14    1    3    3    0    0 -0.32344374163E+02 -0.24745082824E+02  0.60869653750E+02  0.73236551063E+02  0.00000000000E+00 0.  1.
        -13    1    4    4    0    0  0.16698340248E+02 -0.15625915751E+02  0.75581988942E+02  0.78966074124E+02  0.00000000000E+00 0.  1.
         13    1    4    4    0    0  0.19032358617E+02  0.17355975756E+02 -0.21184524119E+02  0.33350331799E+02  0.00000000000E+00 0. -1.
         -1    1    1    2    0  502 -0.45369200394E+02  0.22991539449E+02 -0.26850904363E+02  0.57514748507E+02  0.00000000000E+00 0.  1.
<scales pt_clust_5="13000.00000" pt_clust_6="13000.00000" pt_clust_7="13000.00000" pt_clust_8="13000.00000" pt_clust_9="50.86232"></scales>
<clustering>
<clus scale="   50.862">  2  9  1 -1</clus>
<clus scale="   79.827">  5  6 -1 -1</clus>
<clus scale="   81.792">  1  5  2 -1</clus>
<clus scale="   91.522">  7  8 -1 -1</clus>
<clus scale="   50.862">  2  5  1 -1</clus>
</clustering>
</event>
<event>
 9    1  0.3197504E-005  0.1008052E+03  0.7546771E-02  0.1283742E+00
          1   -1    0    0  502    0 -0.00000000000E+00  0.00000000000E+00  0.30765079586E+03  0.30765079586E+03  0.00000000000E+00 0. -1.
         21   -1    0    0  501  502  0.00000000000E+00 -0.00000000000E+00 -0.63241060640E+02  0.63241060640E+02  0.00000000000E+00 0.  1.
        -24    2    1    2    0    0 -0.17828746798E+02  0.51660138433E+02  0.17912315568E+03  0.20410080564E+03  0.81150476552E+02 0.  0.
         23    2    1    2    0    0 -0.20679860954E+02 -0.22280868977E+02  0.68378320573E+02  0.11825639100E+03  0.91569020512E+02 0.  0.
         13    1    3    3    0    0 -0.29525448076E+02  0.69579307404E+02  0.12753354495E+03  0.14824924010E+03  0.00000000000E+00 0. -1.
        -14    1    3    3    0    0  0.11696701278E+02 -0.17919168970E+02  0.51589610728E+02  0.55851565533E+02  0.00000000000E+00 0.  1.
        -13    1    4    4    0    0 -0.31973315554E+02  0.22086122836E+02  0.60345652348E+02  0.71775256786E+02  0.00000000000E+00 0. -1.
         13    1    4    4    0    0  0.11293454600E+02 -0.44366991813E+02  0.80326682244E+01  0.46481134218E+02  0.00000000000E+00 0.  1.
          2    1    1    2  501    0  0.38508607752E+02 -0.29379269456E+02 -0.30917410370E+01  0.48534659857E+02  0.00000000000E+00 0. -1.
<scales pt_clust_5="13000.00000" pt_clust_6="13000.00000" pt_clust_7="13000.00000" pt_clust_8="13000.00000" pt_clust_9="48.43609"></scales>
<clustering>
<clus scale="   48.436">  2  9  1 -1</clus>
<clus scale="   81.150">  5  6 -1 -1</clus>
<clus scale="   91.445">  1  5  2 -1</clus>
<clus scale="   91.569">  7  8 -1 -1</clus>
<clus scale="   48.436">  2  5  1 -1</clus>
</clustering>
</event>
<event>
 9    1  0.3197504E-005  0.1507370E+03  0.7546771E-02  0.1228192E+00
         21   -1    0    0  501  502  0.00000000000E+00  0.00000000000E+00  0.69737465207E+03  0.69737465207E+03  0.00000000000E+00 0.  1.
         -2   -1    0    0    0  501 -0.00000000000E+00 -0.00000000000E+00 -0.54058438181E+02  0.54058438181E+02  0.00000000000E+00 0.  1.
        -24    2    1    2    0    0 -0.15849997682E+02  0.14392103375E+02  0.60186913621E+02  0.10181976393E+03  0.79287102922E+02 0.  0.
         23    2    1    2    0    0 -0.14527685987E+02  0.10659945688E+03  0.18769069098E+03  0.23496473410E+03  0.91684965615E+02 0.  0.
         11    1    3    3    0    0  0.25740537593E+02  0.26048700731E+02  0.39710396722E+02  0.54018753161E+02  0.00000000000E+00 0. -1.
        -12    1    3    3    0    0 -0.41590535275E+02 -0.11656597355E+02  0.20476516899E+02  0.47801010770E+02  0.00000000000E+00 0.  1.
        -11    1    4    4    0    0 -0.24690244841E+02 -0.15555786505E+01  0.99691515305E+01  0.26672307689E+02  0.00000000000E+00 0. -1.
         11    1    4    4    0    0  0.10162558853E+02  0.10815503553E+03  0.17772153945E+03  0.20829242641E+03  0.00000000000E+00 0.  1.
         -1    1    1    2    0  502  0.30377683669E+02 -0.12099156026E+03  0.39543860928E+03  0.41464859222E+03  0.00000000000E+00 0.  1.
<scales pt_clust_5="13000.00000" pt_clust_6="13000.00000" pt_clust_7="13000.00000" pt_clust_8="13000.00000" pt_clust_9="119.64742"></scales>
<clustering>
<clus scale="   79.287">  5  6 -1 -1</clus>
<clus scale="   82.127">  2  5  1 -1</clus>
<clus scale="   91.685">  7  8 -1 -1</clus>
<clus scale="  119.647">  1  9  2 -1</clus>
<clus scale="  119.647">  1  5  2 -1</clus>
</clustering>
</event>
<event>
 9    1  0.3197504E-005  0.1924753E+03  0.7546771E-02  0.1157383E+00
         21   -1    0    0  501  502  0.00000000000E+00  0.00000000000E+00  0.16397577152E+03  0.16397577152E+03  0.00000000000E+00 0. -1.
          3   -1    0    0  502    0 -0.00000000000E+00 -0.00000000000E+00 -0.81581004537E+03  0.81581004537E+03  0.00000000000E+00 0. -1.
        -24    2    1    2    0    0 -0.13303346168E+03  0.70794989852E+02 -0.42571276234E+03  0.45851517200E+03  0.79340874854E+02 0.  0.
         23    2    1    2    0    0  0.18940114586E+03 -0.96013520283E+02 -0.32861464222E+03  0.40161224801E+03  0.90627945695E+02 0.  0.
         11    1    3    3    0    0 -0.29634305402E+02  0.43137012041E+02 -0.72328995768E+02  0.89277530730E+02  0.00000000000E+00 0. -1.
        -12    1    3    3    0    0 -0.10339915628E+03  0.27657977811E+02 -0.35338376657E+03  0.36923764127E+03  0.00000000000E+00 0.  1.
        -11    1    4    4    0    0  0.15809592419E+03 -0.10305147248E+03 -0.31401662765E+03  0.36636098273E+03  0.00000000000E+00 0.  1.
         11    1    4    4    0    0  0.31305221662E+02  0.70379521927E+01 -0.14598014570E+02  0.35251265279E+02  0.00000000000E+00 0. -1.
          4    1    1    2  501    0 -0.56367684179E+02  0.25218530431E+02  0.10249313072E+03  0.11965839687E+03  0.00000000000E+00 0. -1.
<scales pt_clust_5="13000.00000" pt_clust_6="13000.00000" pt_clust_7="13000.00000" pt_clust_8="13000.00000" pt_clust_9="61.75184"></scales>
<clustering>
<clus scale="   61.752">  1  9  2 -1</clus>
<clus scale="   79.341">  5  6 -1 -1</clus>
<clus scale="   90.628">  7  8 -1 -1</clus>
<clus scale="  187.425">  2  5  1 -1</clus>
<clus scale="   61.752">  1  5  2 -1</clus>
</clustering>
</event>
<event>
 9    1  0.3197504E-005  0.9414310E+02  0.7546771E-02  0.1300780E+00
         21   -1    0    0  501  502  0.00000000000E+00  0.00000000000E+00  0.48372550192E+02  0.48372550192E+02  0.00000000000E+00 0. -1.
          1   -1    0    0  502    0 -0.00000000000E+00 -0.00000000000E+00 -0.38491633156E+03  0.38491633156E+03  0.00000000000E+00 0. -1.
        -24    2    1    2    0    0 -0.21729673825E+02  0.67973670152E+01 -0.25503398145E+03  0.26735344166E+03  0.76923001418E+02 0.  0.
         23    2    1    2    0    0  0.55999246058E+02 -0.20707904440E+01 -0.43751355276E+02  0.11472563392E+03  0.90042136009E+02 0.  0.
         13    1    3    3    0    0 -0.44928826306E+02 -0.11341408689E+01 -0.90956403419E+02  0.10145419179E+03  0.00000000000E+00 0. -1.
        -14    1    3    3    0    0  0.23199152481E+02  0.79315078841E+01 -0.16407757803E+03  0.16589924987E+03  0.00000000000E+00 0.  1.
        -13    1    4    4    0    0  0.16894155009E+02 -0.25598185130E+02 -0.59093507212E+02  0.66578691411E+02  0.00000000000E+00 0.  1.
         13    1    4    4    0    0  0.39105091049E+02  0.23527394686E+02  0.15342151936E+02  0.48146942506E+02  0.00000000000E+00 0. -1.
          2    1    1    2  501    0 -0.34269572233E+02 -0.47265765713E+01 -0.37758444638E+02  0.51209806176E+02  0.00000000000E+00 0. -1.
<scales pt_clust_5="13000.00000" pt_clust_6="13000.00000" pt_clust_7="13000.00000" pt_clust_8="13000.00000" pt_clust_9="34.59399"></scales>
<clustering>
<clus scale="   34.594">  1  9  2 -1</clus>
<clus scale="   76.923">  5  6 -1 -1</clus>
<clus scale="   81.685">  2  5  1 -1</clus>
<clus scale="   90.042">  7  8 -1 -1</clus>
<clus scale="   34.594">  1  5  2 -1</clus>
</clustering>
</event>
<event>
 9    1  0.3197504E-005  0.2187962E+03  0.7546771E-02  0.1135615E+00
          3   -1    0    0  502    0 -0.00000000000E+00  0.00000000000E+00  0.60505919843E+03  0.60505919843E+03  0.00000000000E+00 0. -1.
         21   -1    0    0  501  502  0.00000000000E+00 -0.00000000000E+00 -0.17287303554E+03  0.17287303554E+03  0.00000000000E+00 0. -1.
        -24    2    1    2    0    0  0.11256089622E+03 -0.17811105440E+03  0.44278669789E+03  0.49697153581E+03  0.80790745286E+02 0.  0.
         23    2    1    2    0    0 -0.85449616681E+02  0.11222597987E+03 -0.75626084119E+02  0.18450248668E+03  0.91790824399E+02 0.  0.
         11    1    3    3    0    0  0.74474386008E+02 -0.14316105349E+03  0.39452079483E+03  0.42624896359E+03  0.00000000000E+00 0. -1.
        -12    1    3    3    0    0  0.38086510214E+02 -0.34950000911E+02  0.48265903058E+02  0.70722572224E+02  0.00000000000E+00 0.  1.
        -11    1    4    4    0    0 -0.10433639497E+03  0.99525828421E+02 -0.56840172610E+02  0.15499122253E+03  0.00000000000E+00 0. -1.
         11    1    4    4    0    0  0.18886778287E+02  0.12700151452E+02 -0.18785911509E+02  0.29511264158E+02  0.00000000000E+00 0.  1.
          4    1    1    2  501    0 -0.27111279541E+02  0.65885074526E+02  0.65025549115E+02  0.96458211477E+02  0.00000000000E+00 0. -1.
<scales pt_clust_5="13000.00000" pt_clust_6="13000.00000" pt_clust_7="13000.00000" pt_clust_8="13000.00000" pt_clust_9="71.24514"></scales>
<clustering>
<clus scale="   71.245">  2  9  1 -1</clus>
<clus scale="   80.791">  5  6 -1 -1</clus>
<clus scale="   91.791">  7  8 -1 -1</clus>
<clus scale="  214.414">  1  5  2 -1</clus>
<clus scale="   71.245">  2  5  1 -1</clus>
</clustering>
</event>
<event>
 9    1  0.3197504E-005  0.9129869E+02  0.7546771E-02  0.1305924E+00
         21   -1    0    0  501  502  0.00000000000E+00  0.00000000000E+00  0.29906116981E+03  0.29906116981E+03  0.00000000000E+00 0. -1.
         -4   -1    0    0    0  501 -0.00000000000E+00 -0.00000000000E+00 -0.22675214750E+03  0.22675214750E+03  0.00000000000E+00 0.  1.
        -24    2    1    2    0    0  0.64880263707E+01 -0.11135637646E+02 -0.19978195189E+03  0.21569222265E+03  0.80275835079E+02 0.  0.
         23    2    1    2    0    0 -0.33944781187E+02  0.18866804391E+02  0.11852717917E+03  0.15393055888E+03  0.90209313693E+02 0.  0.
         13    1    3    3    0    0 -0.31398744444E+02  0.43673855731E+01 -0.41617123512E+02  0.52315773710E+02  0.00000000000E+00 0. -1.
        -14    1    3    3    0    0  0.37886770815E+02 -0.15503023219E+02 -0.15816482838E+03  0.16337644894E+03  0.00000000000E+00 0.  1.
        -11    1    4    4    0    0 -0.37610226114E+02  0.50565513743E+02  0.58685545248E+02  0.86112679145E+02  0.00000000000E+00 0. -1.
         11    1    4    4    0    0  0.36654449267E+01 -0.31698709353E+02  0.59841633922E+02  0.67817879734E+02  0.00000000000E+00 0.  1.
         -3    1    1    2    0  502  0.27456754816E+02 -0.77311667447E+01  0.15356379503E+03  0.15619053579E+03  0.00000000000E+00 0.  1.
<scales pt_clust_5="13000.00000" pt_clust_6="13000.00000" pt_clust_7="13000.00000" pt_clust_8="13000.00000" pt_clust_9="28.52445"></scales>
<clustering>
<clus scale="   28.524">  1  9  2 -1</clus>
<clus scale="   80.276">  5  6 -1 -1</clus>
<clus scale="   81.498">  2  5  1 -1</clus>
<clus scale="   90.209">  7  8 -1 -1</clus>
<clus scale="   28.524">  1  5  2 -1</clus>
</clustering>
</event>
<event>
 9    1  0.3197504E-005  0.1553586E+03  0.7546771E-02  0.1196344E+00
         -4   -1    0    0    0  501 -0.00000000000E+00  0.00000000000E+00  0.40190642713E+02  0.40190642713E+02  0.00000000000E+00 0.  1.
         21   -1    0    0  501  502  0.00000000000E+00 -0.00000000000E+00 -0.16333576315E+04  0.16333576315E+04  0.00000000000E+00 0.  1.
        -24    2    1    2    0    0  0.40541798383E+02 -0.11880972096E+03 -0.22266694260E+03  0.26769450992E+03  0.79500918878E+02 0.  0.
         23    2    1    2    0    0 -0.15124929199E+03  0.60795756149E+02 -0.77722623491E+03  0.79955715009E+03  0.92943766498E+02 0.  0.
         11    1    3    3    0    0  0.36236996280E+02 -0.52766173284E+02 -0.17441137034E+03  0.18578674615E+03  0.00000000000E+00 0. -1.
        -12    1    3    3    0    0  0.43048021031E+01 -0.66043547676E+02 -0.48255572262E+02  0.81907763766E+02  0.00000000000E+00 0.  1.
        -13    1    4    4    0    0 -0.24242274895E+02 -0.21841158922E+02 -0.87579364699E+02  0.93460522340E+02  0.00000000000E+00 0. -1.
         13    1    4    4    0    0 -0.12700701709E+03  0.82636915071E+02 -0.68964687021E+03  0.70609662775E+03  0.00000000000E+00 0.  1.
         -3    1    1    2    0  502  0.11070749360E+03  0.58013964810E+02 -0.59327381125E+03  0.60629661418E+03  0.00000000000E+00 0.  1.
<scales pt_clust_5="13000.00000" pt_clust_6="13000.00000" pt_clust_7="13000.00000" pt_clust_8="13000.00000" pt_clust_9="124.98708"></scales>
<clustering>
<clus scale="   79.501">  5  6 -1 -1</clus>
<clus scale="   92.944">  7  8 -1 -1</clus>
<clus scale="  124.987">  2  9  1 -1</clus>
<clus scale="  147.710">  1  5  2 -1</clus>
<clus scale="  124.987">  2  5  1 -1</clus>
</clustering>
</event>
<event>
 9    1  0.3197504E-005  0.9231357E+02  0.7546771E-02  0.1302383E+00
         -2   -1    0    0    0  501 -0.00000000000E+00  0.00000000000E+00  0.27447110493E+03  0.27447110493E+03  0.00000000000E+00 0.  1.
         21   -1    0    0  501  502  0.00000000000E+00 -0.00000000000E+00 -0.15476468117E+03  0.15476468117E+03  0.00000000000E+00 0.  1.
         23    2    1    2    0    0  0.32685588070E+02 -0.70834886314E+01  0.12674721943E+03  0.15932663510E+03  0.90562660861E+02 0.  0.
        -24    2    1    2    0    0  0.30812278692E+02 -0.48094000716E+02  0.95822365074E+02  0.13702813562E+03  0.79576094898E+02 0.  0.
         11    1    4    4    0    0  0.19615813575E+02 -0.67484988001E+02  0.89434856702E+02  0.11374355956E+03  0.00000000000E+00 0. -1.
        -12    1    4    4    0    0  0.11196465117E+02  0.19390987285E+02  0.63875083720E+01  0.23284576058E+02  0.00000000000E+00 0.  1.
        -13    1    3    3    0    0  0.53762109707E+02 -0.14866534675E+02  0.12489229084E+03  0.13678253765E+03  0.00000000000E+00 0.  1.
         13    1    3    3    0    0 -0.21076521637E+02  0.77830460440E+01  0.18549285841E+01  0.22544097456E+02  0.00000000000E+00 0. -1.
         -1    1    1    2    0  502 -0.63497866762E+02  0.55177489348E+02 -0.10286316074E+03  0.13288101539E+03  0.00000000000E+00 0.  1.
<scales pt_clust_5="13000.00000" pt_clust_6="13000.00000" pt_clust_7="13000.00000" pt_clust_8="13000.00000" pt_clust_9="84.12214"></scales>
<clustering>
<clus scale="   79.576">  5  6 -1 -1</clus>
<clus scale="   84.122">  2  9  1 -1</clus>
<clus scale="   84.122">  2  5  1 -1</clus>
<clus scale="   90.563">  7  8 -1 -1</clus>
<clus scale="   84.122">  2  5  1 -1</clus>
</clustering>
</event>
<event>
 9    1  0.3197504E-005  0.1989436E+03  0.7546771E-02  0.1152140E+00
         21   -1    0    0  501  502  0.00000000000E+00  0.00000000000E+00  0.80242865905E+03  0.80242865905E+03  0.00000000000E+00 0. -1.
         -2   -1    0    0    0  501 -0.00000000000E+00 -0.00000000000E+00 -0.93780877717E+02  0.93780877717E+02  0.00000000000E+00 0.  1.
        -24    2    1    2    0    0 -0.14964028942E+03  0.71557904365E+02  0.98495258603E+02  0.20865115003E+03  0.79506204449E+02 0.  0.
         23    2    1    2    0    0  0.20680992152E+03 -0.48614772535E+02  0.56534716253E+03  0.61138572475E+03  0.95086016275E+02 0.  0.
         11    1    3    3    0    0 -0.14163834473E+03  0.52675791335E+02  0.10830332423E+03  0.18591871807E+03  0.00000000000E+00 0. -1.
        -12    1    3    3    0    0 -0.80019446900E+01  0.18882113030E+02 -0.98080656259E+01  0.22732431956E+02  0.00000000000E+00 0.  1.
        -11    1    4    4    0    0  0.63469311995E+02 -0.37478363088E+02  0.99304930135E+02  0.12367073386E+03  0.00000000000E+00 0.  1.
         11    1    4    4    0    0  0.14334060953E+03 -0.11136409447E+02  0.46604223240E+03  0.48771499088E+03  0.00000000000E+00 0. -1.
         -1    1    1    2    0  502 -0.57169632106E+02 -0.22943131831E+02  0.44805360201E+02  0.76172661999E+02  0.00000000000E+00 0.  1.
<scales pt_clust_5="13000.00000" pt_clust_6="13000.00000" pt_clust_7="13000.00000" pt_clust_8="13000.00000" pt_clust_9="61.60161"></scales>
<clustering>
<clus scale="   61.602">  1  9  2 -1</clus>
<clus scale="   79.506">  5  6 -1 -1</clus>
<clus scale="   95.086">  7  8 -1 -1</clus>
<clus scale="  191.986">  2  5  1 -1</clus>
<clus scale="   61.602">  1  5  2 -1</clus>
</clustering>
</event>
<event>
 9    1  0.3197504E-005  0.1016238E+03  0.7546771E-02  0.1283868E+00
         21   -1    0    0  501  502  0.00000000000E+00  0.00000000000E+00  0.18470203441E+03  0.18470203441E+03  0.00000000000E+00 0. -1.
         -4   -1    0    0    0  501 -0.00000000000E+00 -0.00000000000E+00 -0.95661294260E+02  0.95661294260E+02  0.00000000000E+00 0.  1.
         23    2    1    2    0    0  0.44054271226E+02  0.21167109023E+02 -0.17704871926E+02  0.10623834802E+03  0.92651490988E+02 0.  0.
        -24    2    1    2    0    0 -0.41553384856E+01 -0.37716526223E+02  0.95678004120E+02  0.12953462307E+03  0.78645628692E+02 0.  0.
         13    1    4    4    0    0 -0.10066657353E+02 -0.53263599495E+02  0.98722435805E+02  0.11262534330E+03  0.00000000000E+00 0. -1.
        -14    1    4    4    0    0  0.59113188674E+01  0.15547073272E+02 -0.30444316843E+01  0.16909279771E+02  0.00000000000E+00 0.  1.
        -13    1    3    3    0    0  0.71844154946E+02  0.48545925479E+01 -0.17091959038E+02  0.74008680116E+02  0.00000000000E+00 0.  1.
         13    1    3    3    0    0 -0.27789883720E+02  0.16312516475E+02 -0.61291288792E+00  0.32229667903E+02  0.00000000000E+00 0. -1.
         -3    1    1    2    0  502 -0.39898932740E+02  0.16549417200E+02  0.11067607953E+02  0.44590357582E+02  0.00000000000E+00 0.  1.
<scales pt_clust_5="13000.00000" pt_clust_6="13000.00000" pt_clust_7="13000.00000" pt_clust_8="13000.00000" pt_clust_9="43.19502"></scales>
<clustering>
<clus scale="   43.195">  1  9  2 -1</clus>
<clus scale="   78.646">  5  6 -1 -1</clus>
<clus scale="   89.041">  1  5  2 -1</clus>
<clus scale="   92.651">  7  8 -1 -1</clus>
<clus scale="   43.195">  1  5  2 -1</clus>
</clustering>
</event>
<event>
 9    1  0.3197504E-005  0.1321552E+03  0.7546771E-02  0.1227904E+00
         21   -1    0    0  501  502  0.00000000000E+00  0.00000000000E+00  0.53160330996E+02  0.53160330996E+02  0.00000000000E+00 0.  1.
         -2   -1    0    0    0  501 -0.00000000000E+00 -0.00000000000E+00 -0.69127446488E+03  0.69127446488E+03  0.00000000000E+00 0.  1.
         23    2    1    2    0    0  0.21008377336E+02  0.96011498338E+02 -0.24097646051E+03  0.27549089340E+03  0.90366022887E+02 0.  0.
        -24    2    1    2    0    0  0.83527531205E+02 -0.87314493306E+02 -0.25684335197E+03  0.29377001547E+03  0.75707630590E+02 0.  0.
         11    1    4    4    0    0  0.12165547202E+02 -0.63108661879E+02 -0.14835552900E+03  0.16167890007E+03  0.00000000000E+00 0. -1.
        -12    1    4    4    0    0  0.71361984003E+02 -0.24205831428E+02 -0.10848782297E+03  0.13209111541E+03  0.00000000000E+00 0.  1.
        -11    1    3    3    0    0 -0.21518999312E+01  0.89025471554E+02 -0.23391154473E+03  0.25028938455E+03  0.00000000000E+00 0.  1.
         11    1    3    3    0    0  0.23160277267E+02  0.69860267844E+01 -0.70649157811E+01  0.25201508850E+02  0.00000000000E+00 0. -1.
         -1    1    1    2    0  502 -0.10453590854E+03 -0.86970050318E+01 -0.14029432141E+03  0.17517388701E+03  0.00000000000E+00 0.  1.
<scales pt_clust_5="13000.00000" pt_clust_6="13000.00000" pt_clust_7="13000.00000" pt_clust_8="13000.00000" pt_clust_9="104.89706"></scales>
<clustering>
<clus scale="   75.708">  5  6 -1 -1</clus>
<clus scale="   90.366">  7  8 -1 -1</clus>
<clus scale="  104.897">  1  9  2 -1</clus>
<clus scale="  122.599">  1  5  2 -1</clus>
<clus scale="  104.897">  1  5  2 -1</clus>
</clustering>
</event>
<event>
 9    1  0.3197504E-005  0.1141124E+03  0.7546771E-02  0.1260010E+00
         -4   -1    0    0    0  501 -0.00000000000E+00  0.00000000000E+00  0.18350968434E+03  0.18350968434E+03  0.00000000000E+00 0.  1.
         21   -1    0    0  501  502  0.00000000000E+00 -0.00000000000E+00 -0.11615620172E+03  0.11615620172E+03  0.00000000000E+00 0. -1.
        -24    2    1    2    0    0  0.54000005996E+02 -0.24050598863E+00  0.93074296287E+02  0.13513746430E+03  0.81751153739E+02 0.  0.
         23    2    1    2    0    0 -0.67936012942E+02  0.25192104355E+02 -0.44394041957E+02  0.13038923598E+03  0.98896804401E+02 0.  0.
         11    1    3    3    0    0  0.13611421412E+02  0.17292270751E+02 -0.91507663209E+01  0.23833378796E+02  0.00000000000E+00 0. -1.
        -12    1    3    3    0    0  0.40388584585E+02 -0.17532776740E+02  0.10222506261E+03  0.11130408551E+03  0.00000000000E+00 0.  1.
        -11    1    4    4    0    0 -0.12537308525E+02 -0.36790398027E+02 -0.82166863251E+01  0.39726960949E+02  0.00000000000E+00 0. -1.
         11    1    4    4    0    0 -0.55398704417E+02  0.61982502382E+02 -0.36177355632E+02  0.90662275027E+02  0.00000000000E+00 0.  1.
         -3    1    1    2    0  502  0.13936006946E+02 -0.24951598366E+02  0.18673228293E+02  0.34139185777E+02  0.00000000000E+00 0.  1.
<scales pt_clust_5="13000.00000" pt_clust_6="13000.00000" pt_clust_7="13000.00000" pt_clust_8="13000.00000" pt_clust_9="28.57963"></scales>
<clustering>
<clus scale="   28.580">  2  9  1 -1</clus>
<clus scale="   81.751">  5  6 -1 -1</clus>
<clus scale="   98.897">  7  8 -1 -1</clus>
<clus scale="   99.621">  1  5  2 -1</clus>
<clus scale="   28.580">  2  5  1 -1</clus>
</clustering>
</event>
<event>
 9    1  0.3197504E-005  0.1705521E+03  0.7546771E-02  0.1182403E+00
          1   -1    0    0  502    0 -0.00000000000E+00  0.00000000000E+00  0.67041948703E+02  0.67041948703E+02  0.00000000000E+00 0. -1.
         21   -1    0    0  501  502  0.00000000000E+00 -0.00000000000E+00 -0.56852362477E+03  0.56852362477E+03  0.00000000000E+00 0.  1.
        -24    2    1    2    0    0  0.11735796120E+03 -0.71753424672E+02 -0.91744150151E+02  0.18462206535E+03  0.82139350592E+02 0.  0.
         23    2    1    2    0    0 -0.85815512812E+02  0.59365040695E+02 -0.31951628988E+03  0.35456783931E+03  0.11286798872E+03 0.  0.
         13    1    3    3    0    0  0.12722344123E+03 -0.55460428912E+02 -0.69114347111E+02  0.15504340086E+03  0.00000000000E+00 0. -1.
        -14    1    3    3    0    0 -0.98654800289E+01 -0.16292995760E+02 -0.22629803040E+02  0.29578664484E+02  0.00000000000E+00 0.  1.
        -13    1    4    4    0    0 -0.54073039593E+02  0.44669140355E+01 -0.38610062730E+02  0.66592671337E+02  0.00000000000E+00 0. -1.
         13    1    4    4    0    0 -0.31742473219E+02  0.54898126659E+02 -0.28090622715E+03  0.28797516797E+03  0.00000000000E+00 0.  1.
          2    1    1    2  501    0 -0.31542448393E+02  0.12388383977E+02 -0.90221236036E+02  0.96375668817E+02  0.00000000000E+00 0. -1.
<scales pt_clust_5="13000.00000" pt_clust_6="13000.00000" pt_clust_7="13000.00000" pt_clust_8="13000.00000" pt_clust_9="33.88802"></scales>
<clustering>
<clus scale="   33.888">  2  9  1 -1</clus>
<clus scale="   82.139">  5  6 -1 -1</clus>
<clus scale="  112.868">  7  8 -1 -1</clus>
<clus scale="  151.973">  1  5  2 -1</clus>
<clus scale="   33.888">  2  5  1 -1</clus>
</clustering>
</event>
<event>
 9    1  0.3197504E-005  0.1042700E+03  0.7546771E-02  0.1276765E+00
         21   -1    0    0  501  502  0.00000000000E+00  0.00000000000E+00  0.50083113116E+02  0.50083113116E+02  0.00000000000E+00 0.  1.
          3   -1    0    0  502    0 -0.00000000000E+00 -0.00000000000E+00 -0.30868653942E+03  0.30868653942E+03  0.00000000000E+00 0. -1.
        -24    2    1    2    0    0 -0.37755451077E+02 -0.40708382000E+02 -0.94272090153E+02  0.13557588151E+03  0.80068384606E+02 0.  0.
         23    2    1    2    0    0  0.43085453207E+02  0.15222310136E+02 -0.66664474326E+02  0.12211575818E+03  0.91542510648E+02 0.  0.
         11    1    3    3    0    0 -0.34314405400E+02  0.17881607844E+02 -0.39593542894E+02  0.55361348935E+02  0.00000000000E+00 0. -1.
        -12    1    3    3    0    0 -0.34410456776E+01 -0.58589989844E+02 -0.54678547259E+02  0.80214532571E+02  0.00000000000E+00 0.  1.
        -13    1    4    4    0    0  0.70529818001E+01 -0.32388388549E+02 -0.50239227783E+02  0.60189137503E+02  0.00000000000E+00 0. -1.
         13    1    4    4    0    0  0.36032471407E+02  0.47610698685E+02 -0.16425246543E+02  0.61926620681E+02  0.00000000000E+00 0.  1.
          4    1    1    2  501    0 -0.53300021301E+01  0.25486071864E+02 -0.97666861823E+02  0.10107801284E+03  0.00000000000E+00 0. -1.
<scales pt_clust_5="13000.00000" pt_clust_6="13000.00000" pt_clust_7="13000.00000" pt_clust_8="13000.00000" pt_clust_9="26.03746"></scales>
<clustering>
<clus scale="   26.037">  1  9  2 -1</clus>
<clus scale="   80.068">  5  6 -1 -1</clus>
<clus scale="   91.543">  7  8 -1 -1</clus>
<clus scale="   94.357">  2  5  1 -1</clus>
<clus scale="   26.037">  1  5  2 -1</clus>
</clustering>
</event>
<event>
 9    1  0.3197504E-005  0.1308521E+03  0.7546771E-02  0.1230884E+00
         21   -1    0    0  501  502  0.00000000000E+00  0.00000000000E+00  0.12963727924E+03  0.12963727924E+03  0.00000000000E+00 0. -1.
          1   -1    0    0  502    0 -0.00000000000E+00 -0.00000000000E+00 -0.30792722401E+03  0.30792722401E+03  0.00000000000E+00 0. -1.
         23    2    1    2    0    0 -0.76484931793E+02  0.94555566870E+02 -0.18562517229E+03  0.24226672310E+03  0.97189302494E+02 0.  0.
        -24    2    1    2    0    0  0.35126926336E+02 -0.38446113124E+02 -0.47373206359E+02  0.10668757670E+03  0.80162421208E+02 0.  0.
         13    1    4    4    0    0 -0.22485373543E+02 -0.27197922542E+02 -0.27417204259E+02  0.44688053250E+02  0.00000000000E+00 0. -1.
        -14    1    4    4    0    0  0.57612299878E+02 -0.11248190583E+02 -0.19956002101E+02  0.61999523454E+02  0.00000000000E+00 0.  1.
        -11    1    3    3    0    0  0.23252690264E+02  0.16693925215E+02 -0.42369917060E+02  0.51133009058E+02  0.00000000000E+00 0.  1.
         11    1    3    3    0    0 -0.99737622058E+02  0.77861641656E+02 -0.14325525523E+03  0.19113371405E+03  0.00000000000E+00 0. -1.
          2    1    1    2  501    0  0.41358005458E+02 -0.56109453746E+02  0.54708433880E+02  0.88610203434E+02  0.00000000000E+00 0. -1.
<scales pt_clust_5="13000.00000" pt_clust_6="13000.00000" pt_clust_7="13000.00000" pt_clust_8="13000.00000" pt_clust_9="69.70477"></scales>
<clustering>
<clus scale="   69.705">  1  9  2 -1</clus>
<clus scale="   80.162">  5  6 -1 -1</clus>
<clus scale="   97.189">  7  8 -1 -1</clus>
<clus scale="  118.754">  1  5  2 -1</clus>
<clus scale="   69.705">  1  5  2 -1</clus>
</clustering>
</event>
<event>
 9    1  0.3197504E-005  0.1430202E+03  0.7546771E-02  0.1211466E+00
         21   -1    0    0  501  502  0.00000000000E+00  0.00000000000E+00  0.59150348878E+02  0.59150348878E+02  0.00000000000E+00 0. -1.
          1   -1    0    0  502    0 -0.00000000000E+00 -0.00000000000E+00 -0.54545310813E+03  0.54545310813E+03  0.00000000000E+00 0. -1.
        -24    2    1    2    0    0 -0.73371419617E+02 -0.67264990920E+02 -0.28116610057E+03  0.30902031531E+03  0.80816056230E+02 0.  0.
         23    2    1    2    0    0  0.95481398040E+02  0.88980989979E+02 -0.21069619484E+03  0.26409752270E+03  0.91215684123E+02 0.  0.
         11    1    3    3    0    0 -0.17112756776E+02 -0.36727131165E+02 -0.20753912072E+03  0.21145736032E+03  0.00000000000E+00 0. -1.
        -12    1    3    3    0    0 -0.56258662841E+02 -0.30537859754E+02 -0.73626979856E+02  0.97562954987E+02  0.00000000000E+00 0.  1.
        -13    1    4    4    0    0  0.64026300295E+02  0.73820170478E+02 -0.20709834037E+03  0.22899455732E+03  0.00000000000E+00 0.  1.
         13    1    4    4    0    0  0.31455097746E+02  0.15160819501E+02 -0.35978544720E+01  0.35102965387E+02  0.00000000000E+00 0. -1.
          2    1    1    2  501    0 -0.22109978423E+02 -0.21715999059E+02  0.55595361582E+01  0.31485618992E+02  0.00000000000E+00 0. -1.
<scales pt_clust_5="13000.00000" pt_clust_6="13000.00000" pt_clust_7="13000.00000" pt_clust_8="13000.00000" pt_clust_9="30.99090"></scales>
<clustering>
<clus scale="   30.991">  1  9  2 -1</clus>
<clus scale="   80.816">  5  6 -1 -1</clus>
<clus scale="   91.216">  7  8 -1 -1</clus>
<clus scale="  136.623">  2  5  1 -1</clus>
<clus scale="   30.991">  1  5  2 -1</clus>
</clustering>
</event>
<event>
 9    1  0.3197504E-005  0.9343884E+02  0.7546771E-02  0.1300268E+00
          1   -1    0    0  502    0 -0.00000000000E+00  0.00000000000E+00  0.45577299177E+03  0.45577299177E+03  0.00000000000E+00 0. -1.
         21   -1    0    0  501  502  0.00000000000E+00 -0.00000000000E+00 -0.46612005876E+02  0.46612005876E+02  0.00000000000E+00 0. -1.
        -24    2    1    2    0    0 -0.27580186916E+02 -0.47889453582E+01  0.21791318275E+03  0.23412480824E+03  0.80899134172E+02 0.  0.
         23    2    1    2    0    0  0.68296396863E+01 -0.21842178439E+02  0.22111580883E+02  0.95787398375E+02  0.90346991876E+02 0.  0.
         11    1    3    3    0    0 -0.34192708518E+02 -0.38343155452E+02  0.13390716186E+03  0.14342408055E+03  0.00000000000E+00 0. -1.
        -12    1    3    3    0    0  0.66125216017E+01  0.33554210094E+02  0.84006020892E+02  0.90700727688E+02  0.00000000000E+00 0.  1.
        -13    1    4    4    0    0 -0.34685819279E+01 -0.52783528286E+02 -0.53329805208E+01  0.53165520783E+02  0.00000000000E+00 0. -1.
         13    1    4    4    0    0  0.10298221614E+02  0.30941349847E+02  0.27444561404E+02  0.42621877591E+02  0.00000000000E+00 0.  1.
          2    1    1    2  501    0  0.20750547230E+02  0.26631123797E+02  0.16913622226E+03  0.17247279103E+03  0.00000000000E+00 0. -1.
<scales pt_clust_5="13000.00000" pt_clust_6="13000.00000" pt_clust_7="13000.00000" pt_clust_8="13000.00000" pt_clust_9="33.76097"></scales>
<clustering>
<clus scale="   33.761">  2  9  1 -1</clus>
<clus scale="   80.899">  5  6 -1 -1</clus>
<clus scale="   84.338">  1  5  2 -1</clus>
<clus scale="   90.347">  7  8 -1 -1</clus>
<clus scale="   33.761">  2  5  1 -1</clus>
</clustering>
</event>
<event>
 9    1  0.3197504E-005  0.9980571E+02  0.7546771E-02  0.1287542E+00
         21   -1    0    0  501  502  0.00000000000E+00  0.00000000000E+00  0.21286306579E+03  0.21286306579E+03  0.00000000000E+00 0.  1.
          3   -1    0    0  502    0 -0.00000000000E+00 -0.00000000000E+00 -0.12394415679E+03  0.12394415679E+03  0.00000000000E+00 0. -1.
        -24    2    1    2    0    0  0.42341919529E+02  0.74357981029E+01 -0.73019136172E+02  0.11590969391E+03  0.79089402906E+02 0.  0.
         23    2    1    2    0    0 -0.12071192891E+02  0.33787635228E+02  0.10432082837E+03  0.14385577364E+03  0.92327300329E+02 0.  0.
         11    1    3    3    0    0  0.63217562470E+02  0.28278609269E+01 -0.35058684014E+02  0.72343405551E+02  0.00000000000E+00 0. -1.
        -12    1    3    3    0    0 -0.20875642940E+02  0.46079371760E+01 -0.37960452159E+02  0.43566288358E+02  0.00000000000E+00 0.  1.
        -13    1    4    4    0    0  0.28822616963E+02 -0.12786916526E+02  0.14450068288E+02  0.34685053789E+02  0.00000000000E+00 0. -1.
         13    1    4    4    0    0 -0.40893809853E+02  0.46574551754E+02  0.89870760084E+02  0.10917071985E+03  0.00000000000E+00 0.  1.
          4    1    1    2  501    0 -0.30270726639E+02 -0.41223433331E+02  0.57617216799E+02  0.77041755032E+02  0.00000000000E+00 0. -1.
<scales pt_clust_5="13000.00000" pt_clust_6="13000.00000" pt_clust_7="13000.00000" pt_clust_8="13000.00000" pt_clust_9="51.14380"></scales>
<clustering>
<clus scale="   51.144">  1  9  2 -1</clus>
<clus scale="   79.089">  5  6 -1 -1</clus>
<clus scale="   87.704">  2  5  1 -1</clus>
<clus scale="   92.327">  7  8 -1 -1</clus>
<clus scale="   51.144">  1  5  2 -1</clus>
</clustering>
</event>
<event>
 9    1  0.3197504E-005  0.9821538E+02  0.7546771E-02  0.1291688E+00
         21   -1    0    0  501  502  0.00000000000E+00  0.00000000000E+00  0.29779465822E+03  0.29779465822E+03  0.00000000000E+00 0. -1.
          1   -1    0    0  502    0 -0.00000000000E+00 -0.00000000000E+00 -0.20063530019E+03  0.20063530019E+03  0.00000000000E+00 0. -1.
        -24    2    1    2    0    0  0.11291458871E+02  0.17113117427E+02 -0.16439146419E+03  0.18495342832E+03  0.82236617872E+02 0.  0.
         23    2    1    2    0    0  0.66857483177E+01 -0.51904533878E+02  0.10250357974E+03  0.14967894775E+03  0.95697563569E+02 0.  0.
         13    1    3    3    0    0  0.43968592433E+02  0.25687652246E+02 -0.10185725102E+03  0.11387709245E+03  0.00000000000E+00 0. -1.
        -14    1    3    3    0    0 -0.32677133562E+02 -0.85745348197E+01 -0.62534213170E+02  0.71076335879E+02  0.00000000000E+00 0.  1.
        -13    1    4    4    0    0 -0.32790040711E+02 -0.49214425186E+02  0.90902618624E+02  0.10844598881E+03  0.00000000000E+00 0.  1.
         13    1    4    4    0    0  0.39475789029E+02 -0.26901086917E+01  0.11600961114E+02  0.41232958941E+02  0.00000000000E+00 0. -1.
          2    1    1    2  501    0 -0.17977207188E+02  0.34791416452E+02  0.15904724249E+03  0.16379758234E+03  0.00000000000E+00 0. -1.
<scales pt_clust_5="13000.00000" pt_clust_6="13000.00000" pt_clust_7="13000.00000" pt_clust_8="13000.00000" pt_clust_9="39.16149"></scales>
<clustering>
<clus scale="   39.161">  1  9  2 -1</clus>
<clus scale="   82.237">  5  6 -1 -1</clus>
<clus scale="   85.153">  2  5  1 -1</clus>
<clus scale="   95.698">  7  8 -1 -1</clus>
<clus scale="   39.161">  1  5  2 -1</clus>
</clustering>
</event>
<event>
 9    1  0.3197504E-005  0.2272488E+03  0.7546771E-02  0.1128591E+00
          1   -1    0    0  502    0 -0.00000000000E+00  0.00000000000E+00  0.84211926813E+03  0.84211926813E+03  0.00000000000E+00 0. -1.
         21   -1    0    0  501  502  0.00000000000E+00 -0.00000000000E+00 -0.46581583021E+02  0.46581583021E+02  0.00000000000E+00 0.  1.
        -24    2    1    2    0    0  0.50963465433E+02  0.40879234904E+02  0.17000013475E+03  0.19869212350E+03  0.79436310778E+02 0.  0.
         23    2    1    2    0    0  0.41119534954E+02  0.72354478615E+02  0.15889955392E+03  0.20107910843E+03  0.90872178796E+02 0.  0.
         11    1    3    3    0    0 -0.49865733355E+01  0.29410057810E+02  0.11711398146E+03  0.12085322531E+03  0.00000000000E+00 0. -1.
        -12    1    3    3    0    0  0.55950038769E+02  0.11469177094E+02  0.52886153286E+02  0.77838898186E+02  0.00000000000E+00 0.  1.
        -11    1    4    4    0    0  0.58219310610E+01  0.78124243675E+02  0.69257226993E+02  0.10456507936E+03  0.00000000000E+00 0.  1.
         11    1    4    4    0    0  0.35297603893E+02 -0.57697650601E+01  0.89642326930E+02  0.96514029068E+02  0.00000000000E+00 0. -1.
          2    1    1    2  501    0 -0.92083000387E+02 -0.11323371352E+03  0.46663799644E+03  0.48892961923E+03  0.00000000000E+00 0. -1.
<scales pt_clust_5="13000.00000" pt_clust_6="13000.00000" pt_clust_7="13000.00000" pt_clust_8="13000.00000" pt_clust_9="145.94922"></scales>
<clustering>
<clus scale="   79.436">  5  6 -1 -1</clus>
<clus scale="   90.872">  7  8 -1 -1</clus>
<clus scale="   95.840">  5  7 -1 -1</clus>
<clus scale="  145.949">  2  9  1 -1</clus>
<clus scale="  145.949">  2  5  1 -1</clus>
</clustering>
</event>
<event>
 9    1  0.3197504E-005  0.9729043E+02  0.7546771E-02  0.1291055E+00
         21   -1    0    0  501  502  0.00000000000E+00  0.00000000000E+00  0.56906340569E+03  0.56906340569E+03  0.00000000000E+00 0.  1.
          1   -1    0    0  502    0 -0.00000000000E+00 -0.00000000000E+00 -0.25448051773E+03  0.25448051773E+03  0.00000000000E+00 0. -1.
        -24    2    1    2    0    0 -0.81463967731E+01 -0.33867956816E+02 -0.23836655018E+03  0.25439409437E+03  0.81757817506E+02 0.  0.
         23    2    1    2    0    0  0.26755501355E+02  0.42639870932E+01  0.32735344379E+03  0.34085999909E+03  0.91056155094E+02 0.  0.
         13    1    3    3    0    0 -0.12622841961E+02 -0.55333516037E+02 -0.10613535330E+03  0.12035716579E+03  0.00000000000E+00 0. -1.
        -14    1    3    3    0    0  0.44764451881E+01  0.21465559220E+02 -0.13223119688E+03  0.13403692858E+03  0.00000000000E+00 0.  1.
        -13    1    4    4    0    0  0.42754373369E+02 -0.26623670632E+02  0.26228516719E+03  0.26707726449E+03  0.00000000000E+00 0.  1.
         13    1    4    4    0    0 -0.15998872014E+02  0.30887657725E+02  0.65068276602E+02  0.73782734602E+02  0.00000000000E+00 0. -1.
          2    1    1    2  501    0 -0.18609104582E+02  0.29603969723E+02  0.22559599435E+03  0.22828982996E+03  0.00000000000E+00 0. -1.
<scales pt_clust_5="13000.00000" pt_clust_6="13000.00000" pt_clust_7="13000.00000" pt_clust_8="13000.00000" pt_clust_9="34.96704"></scales>
<clustering>
<clus scale="   34.967">  1  9  2 -1</clus>
<clus scale="   81.758">  5  6 -1 -1</clus>
<clus scale="   88.648">  2  5  1 -1</clus>
<clus scale="   91.056">  7  8 -1 -1</clus>
<clus scale="   34.967">  1  5  2 -1</clus>
</clustering>
</event>
<event>
 9    1  0.3197504E-005  0.9938302E+02  0.7546771E-02  0.1285801E+00
         21   -1    0    0  501  502  0.00000000000E+00  0.00000000000E+00  0.40611278412E+02  0.40611278412E+02  0.00000000000E+00 0.  1.
         -2   -1    0    0    0  501 -0.00000000000E+00 -0.00000000000E+00 -0.53110177821E+03  0.53110177821E+03  0.00000000000E+00 0.  1.
        -24    2    1    2    0    0  0.40391035753E+02  0.27394630240E+02 -0.15969833967E+03  0.18654040776E+03  0.83137611827E+02 0.  0.
         23    2    1    2    0    0  0.40074684467E+02 -0.52395339902E+02 -0.17880739884E+03  0.21139366486E+03  0.91454599045E+02 0.  0.
         11    1    3    3    0    0  0.19540488588E+02 -0.29557805477E+02 -0.51681137171E+02  0.62661267927E+02  0.00000000000E+00 0. -1.
        -12    1    3    3    0    0  0.20850547165E+02  0.56952435717E+02 -0.10801720250E+03  0.12387913984E+03  0.00000000000E+00 0.  1.
        -13    1    4    4    0    0  0.59073477512E+02 -0.46086707911E+02 -0.17586465322E+03  0.19115971501E+03  0.00000000000E+00 0. -1.
         13    1    4    4    0    0 -0.18998793045E+02 -0.63086319903E+01 -0.29427456166E+01  0.20233949850E+02  0.00000000000E+00 0.  1.
         -1    1    1    2    0  502 -0.80465720220E+02  0.25000709661E+02 -0.15198476130E+03  0.17377898400E+03  0.00000000000E+00 0.  1.
<scales pt_clust_5="13000.00000" pt_clust_6="13000.00000" pt_clust_7="13000.00000" pt_clust_8="13000.00000" pt_clust_9="84.26016"></scales>
<clustering>
<clus scale="   83.138">  5  6 -1 -1</clus>
<clus scale="   84.260">  1  9  2 -1</clus>
<clus scale="   91.455">  7  8 -1 -1</clus>
<clus scale="   91.787">  2  5  1 -1</clus>
<clus scale="   84.260">  1  5  2 -1</clus>
</clustering>
</event>
<event>
 9    1  0.3197504E-005  0.9896481E+02  0.7546771E-02  0.1288256E+00
         -4   -1    0    0    0  501 -0.00000000000E+00  0.00000000000E+00  0.97779754412E+02  0.97779754412E+02  0.00000000000E+00 0.  1.
         21   -1    0    0  501  502  0.00000000000E+00 -0.00000000000E+00 -0.18537076576E+03  0.18537076576E+03  0.00000000000E+00 0. -1.
        -24    2    1    2    0    0 -0.33787589812E+02 -0.27312544955E+02  0.31945113401E+02  0.96397728053E+02  0.79902786974E+02 0.  0.
         23    2    1    2    0    0 -0.60488142756E+01  0.35357682658E+02 -0.10505656134E+03  0.14360976154E+03  0.91105041854E+02 0.  0.
         13    1    3    3    0    0 -0.33583956588E+02 -0.45768998551E+02  0.46106541902E+02  0.73133416265E+02  0.00000000000E+00 0. -1.
        -14    1    3    3    0    0 -0.20363322427E+00  0.18456453595E+02 -0.14161428500E+02  0.23264311788E+02  0.00000000000E+00 0.  1.
        -13    1    4    4    0    0  0.31123652231E+02  0.18514433613E+02 -0.94870461172E+02  0.10154737999E+03  0.00000000000E+00 0. -1.
         13    1    4    4    0    0 -0.37172466507E+02  0.16843249045E+02 -0.10186100166E+02  0.42062381544E+02  0.00000000000E+00 0.  1.
         -3    1    1    2    0  502  0.39836404088E+02 -0.80451377030E+01 -0.14479563411E+02  0.43143030583E+02  0.00000000000E+00 0.  1.
<scales pt_clust_5="13000.00000" pt_clust_6="13000.00000" pt_clust_7="13000.00000" pt_clust_8="13000.00000" pt_clust_9="40.64066"></scales>
<clustering>
<clus scale="   40.641">  2  9  1 -1</clus>
<clus scale="   79.903">  5  6 -1 -1</clus>
<clus scale="   88.760">  1  5  2 -1</clus>
<clus scale="   91.105">  7  8 -1 -1</clus>
<clus scale="   40.641">  2  5  1 -1</clus>
</clustering>
</event>
<event>
 9    1  0.3197504E-005  0.1397399E+03  0.7546771E-02  0.1218655E+00
         21   -1    0    0  501  502  0.00000000000E+00  0.00000000000E+00  0.19401838767E+03  0.19401838767E+03  0.00000000000E+00 0.  1.
          1   -1    0    0  502    0 -0.00000000000E+00 -0.00000000000E+00 -0.24787338222E+03  0.24787338222E+03  0.00000000000E+00 0. -1.
        -24    2    1    2    0    0  0.58889676654E+02  0.75690281164E+02 -0.11474998771E+03  0.17026939949E+03  0.81406977859E+02 0.  0.
         23    2    1    2    0    0 -0.88352563804E+02  0.49464409363E+02  0.22543089763E+02  0.13744850269E+03  0.90172039303E+02 0.  0.
         13    1    3    3    0    0  0.46381207988E+02  0.17336487086E+02 -0.95480891563E+02  0.10755636147E+03  0.00000000000E+00 0. -1.
        -14    1    3    3    0    0  0.12508468666E+02  0.58353794077E+02 -0.19269096151E+02  0.62713038023E+02  0.00000000000E+00 0.  1.
        -11    1    4    4    0    0 -0.50779113939E+02 -0.21477925545E+02  0.57584549569E+01  0.55434461318E+02  0.00000000000E+00 0. -1.
         11    1    4    4    0    0 -0.37573449865E+02  0.70942334909E+02  0.16784634806E+02  0.82014041375E+02  0.00000000000E+00 0.  1.
          2    1    1    2  501    0  0.29462887150E+02 -0.12515469053E+03  0.38351903406E+02  0.13417386771E+03  0.00000000000E+00 0. -1.
<scales pt_clust_5="13000.00000" pt_clust_6="13000.00000" pt_clust_7="13000.00000" pt_clust_8="13000.00000" pt_clust_9="106.75323"></scales>
<clustering>
<clus scale="   81.407">  5  6 -1 -1</clus>
<clus scale="   90.172">  7  8 -1 -1</clus>
<clus scale="  125.794">  2  5  1 -1</clus>
<clus scale="  106.753">  1  9  2 -1</clus>
<clus scale="  106.753">  1  5  2 -1</clus>
</clustering>
</event>
<event>
 9    1  0.3197504E-005  0.9849115E+02  0.7546771E-02  0.1289599E+00
          1   -1    0    0  502    0 -0.00000000000E+00  0.00000000000E+00  0.21378763678E+03  0.21378763678E+03  0.00000000000E+00 0. -1.
         21   -1    0    0  501  502  0.00000000000E+00 -0.00000000000E+00 -0.12838712918E+03  0.12838712918E+03  0.00000000000E+00 0.  1.
        -24    2    1    2    0    0  0.11222457605E+02 -0.33556892952E+02  0.15136792734E+03  0.17518665588E+03  0.80784319978E+02 0.  0.
         23    2    1    2    0    0  0.35684106451E+02  0.37293267494E+02 -0.38670315954E+02  0.11258849499E+03  0.92285603510E+02 0.  0.
         11    1    3    3    0    0 -0.20024891330E+02 -0.47728382658E+02  0.10902636898E+03  0.12068862381E+03  0.00000000000E+00 0. -1.
        -12    1    3    3    0    0  0.31247348935E+02  0.14171489706E+02  0.42341558353E+02  0.54498032072E+02  0.00000000000E+00 0.  1.
        -11    1    4    4    0    0  0.33157292958E+02  0.33257699620E+01 -0.62630505571E+02  0.70943971204E+02  0.00000000000E+00 0.  1.
         11    1    4    4    0    0  0.25268134929E+01  0.33967497532E+02  0.23960189617E+02  0.41644523788E+02  0.00000000000E+00 0. -1.
          2    1    1    2  501    0 -0.46906564056E+02 -0.37363745428E+01 -0.27297103785E+02  0.54399615084E+02  0.00000000000E+00 0. -1.
<scales pt_clust_5="13000.00000" pt_clust_6="13000.00000" pt_clust_7="13000.00000" pt_clust_8="13000.00000" pt_clust_9="47.05514"></scales>
<clustering>
<clus scale="   47.055">  2  9  1 -1</clus>
<clus scale="   80.784">  5  6 -1 -1</clus>
<clus scale="   87.806">  1  5  2 -1</clus>
<clus scale="   92.286">  7  8 -1 -1</clus>
<clus scale="   47.055">  2  5  1 -1</clus>
</clustering>
</event>
<event>
 9    1  0.3197504E-005  0.9676259E+02  0.7546771E-02  0.1295693E+00
          1   -1    0    0  502    0 -0.00000000000E+00  0.00000000000E+00  0.22411571130E+03  0.22411571130E+03  0.00000000000E+00 0. -1.
         21   -1    0    0  501  502  0.00000000000E+00 -0.00000000000E+00 -0.10073696719E+03  0.10073696719E+03  0.00000000000E+00 0. -1.
        -24    2    1    2    0    0 -0.29337490135E+02 -0.35563500433E+02  0.11255735544E+03  0.14328155163E+03  0.75729742395E+02 0.  0.
         23    2    1    2    0    0 -0.46049636807E+02  0.18823234736E+02  0.12007285130E+02  0.10433860939E+03  0.90925724065E+02 0.  0.
         13    1    3    3    0    0 -0.52316543850E+02 -0.25043113431E+02  0.98642440590E+02  0.11443124301E+03  0.00000000000E+00 0. -1.
        -14    1    3    3    0    0  0.22979053716E+02 -0.10520387001E+02  0.13914914853E+02  0.28850308624E+02  0.00000000000E+00 0.  1.
        -13    1    4    4    0    0 -0.36140592104E+02 -0.22975056200E+02 -0.23282495472E+02  0.48744950512E+02  0.00000000000E+00 0. -1.
         13    1    4    4    0    0 -0.99090447031E+01  0.41798290936E+02  0.35289780602E+02  0.55593658875E+02  0.00000000000E+00 0.  1.
          2    1    1    2  501    0  0.75387126942E+02  0.16740265697E+02 -0.11858964606E+01  0.77232517468E+02  0.00000000000E+00 0. -1.
<scales pt_clust_5="13000.00000" pt_clust_6="13000.00000" pt_clust_7="13000.00000" pt_clust_8="13000.00000" pt_clust_9="77.22341"></scales>
<clustering>
<clus scale="   75.730">  5  6 -1 -1</clus>
<clus scale="   77.223">  2  9  1 -1</clus>
<clus scale="   82.647">  1  5  2 -1</clus>
<clus scale="   90.926">  7  8 -1 -1</clus>
<clus scale="   77.223">  2  5  1 -1</clus>
</clustering>
</event>
<event>
 9    1  0.3197504E-005  0.1352754E+03  0.7546771E-02  0.1223287E+00
         -2   -1    0    0    0  501 -0.00000000000E+00  0.00000000000E+00  0.49189683204E+03  0.49189683204E+03  0.00000000000E+00 0.  1.
         21   -1    0    0  501  502  0.00000000000E+00 -0.00000000000E+00 -0.10957626565E+03  0.10957626565E+03  0.00000000000E+00 0. -1.
         23    2    1    2    0    0  0.67747298583E+02 -0.72211296877E+02  0.35335056459E+03  0.37846956505E+03  0.92619772764E+02 0.  0.
        -24    2    1    2    0    0 -0.91495527865E+02  0.45401995557E+02  0.86661744838E+02  0.15509878871E+03  0.78183140270E+02 0.  0.
         13    1    4    4    0    0 -0.45039345245E+02  0.51649896091E+02  0.16114179327E+02  0.70398303685E+02  0.00000000000E+00 0. -1.
        -14    1    4    4    0    0 -0.46456182620E+02 -0.62479005339E+01  0.70547565511E+02  0.84700485030E+02  0.00000000000E+00 0.  1.
        -13    1    3    3    0    0 -0.15109119949E+02 -0.25030707447E+02  0.32335415971E+02  0.43593588370E+02  0.00000000000E+00 0. -1.
         13    1    3    3    0    0  0.82856418532E+02 -0.47180589430E+02  0.32101514862E+03  0.33487597668E+03  0.00000000000E+00 0.  1.
         -1    1    1    2    0  502  0.23748229283E+02  0.26809301320E+02 -0.57691743052E+02  0.67904743926E+02  0.00000000000E+00 0.  1.
<scales pt_clust_5="13000.00000" pt_clust_6="13000.00000" pt_clust_7="13000.00000" pt_clust_8="13000.00000" pt_clust_9="35.81504"></scales>
<clustering>
<clus scale="   35.815">  2  9  1 -1</clus>
<clus scale="   78.183">  5  6 -1 -1</clus>
<clus scale="   92.620">  7  8 -1 -1</clus>
<clus scale="  125.832">  2  5  1 -1</clus>
<clus scale="   35.815">  2  5  1 -1</clus>
</clustering>
</event>
<event>
 9    1  0.3197504E-005  0.9596331E+02  0.7546771E-02  0.1297855E+00
         -2   -1    0    0    0  501 -0.00000000000E+00  0.00000000000E+00  0.66249664071E+03  0.66249664071E+03  0.00000000000E+00 0.  1.
         21   -1    0    0  501  502  0.00000000000E+00 -0.00000000000E+00 -0.17293634531E+02  0.17293634531E+02  0.00000000000E+00 0.  1.
        -24    2    1    2    0    0  0.14468656156E+02  0.38437378501E+01  0.21644605642E+03  0.22993799366E+03  0.76147680561E+02 0.  0.
         23    2    1    2    0    0 -0.46337061427E+02  0.50175314992E+01  0.31024262309E+03  0.32680853744E+03  0.91547998743E+02 0.  0.
         13    1    3    3    0    0  0.22136800081E+02 -0.24172284989E+02  0.18178052141E+03  0.18471192501E+03  0.00000000000E+00 0. -1.
        -14    1    3    3    0    0 -0.76681439253E+01  0.28016022840E+02  0.34665535014E+02  0.45226068642E+02  0.00000000000E+00 0.  1.
        -13    1    4    4    0    0 -0.38155554222E+02 -0.26762362735E+02  0.27392292806E+03  0.27785939051E+03  0.00000000000E+00 0.  1.
         13    1    4    4    0    0 -0.81815072048E+01  0.31779894234E+02  0.36319695034E+02  0.48949146929E+02  0.00000000000E+00 0. -1.
         -1    1    1    2    0  502  0.31868405271E+02 -0.88612693494E+01  0.11851432667E+03  0.12304374415E+03  0.00000000000E+00 0.  1.
<scales pt_clust_5="13000.00000" pt_clust_6="13000.00000" pt_clust_7="13000.00000" pt_clust_8="13000.00000" pt_clust_9="33.07746"></scales>
<clustering>
<clus scale="   33.077">  2  9  1 -1</clus>
<clus scale="   76.148">  5  6 -1 -1</clus>
<clus scale="   81.403">  1  5  2 -1</clus>
<clus scale="   91.548">  7  8 -1 -1</clus>
<clus scale="   33.077">  2  5  1 -1</clus>
</clustering>
</event>
<event>
 9    1  0.3197504E-005  0.1008458E+03  0.7546771E-02  0.1286160E+00
          1   -1    0    0  502    0 -0.00000000000E+00  0.00000000000E+00  0.32751598197E+03  0.32751598197E+03  0.00000000000E+00 0. -1.
         21   -1    0    0  501  502  0.00000000000E+00 -0.00000000000E+00 -0.63408167775E+02  0.63408167775E+02  0.00000000000E+00 0.  1.
         23    2    1    2    0    0 -0.81098817518E+00 -0.14219502929E+02  0.71151680294E+02  0.11816915424E+03  0.93265939333E+02 0.  0.
        -24    2    1    2    0    0  0.60871556210E+02  0.45957221691E+02  0.63246182472E+02  0.12633359637E+03  0.78375285606E+02 0.  0.
         11    1    4    4    0    0  0.69046832775E+02  0.78036854986E+01  0.47940441369E+02  0.84419479637E+02  0.00000000000E+00 0. -1.
        -12    1    4    4    0    0 -0.81752765646E+01  0.38153536192E+02  0.15305741103E+02  0.41914116734E+02  0.00000000000E+00 0.  1.
        -13    1    3    3    0    0  0.37772711661E+02 -0.39139971029E+01  0.16501849187E+01  0.38010790966E+02  0.00000000000E+00 0.  1.
         13    1    3    3    0    0 -0.38583699836E+02 -0.10305505826E+02  0.69501495376E+02  0.80158363274E+02  0.00000000000E+00 0. -1.
          2    1    1    2  501    0 -0.60060568035E+02 -0.31737718762E+02  0.12970995143E+03  0.14642139914E+03  0.00000000000E+00 0. -1.
<scales pt_clust_5="13000.00000" pt_clust_6="13000.00000" pt_clust_7="13000.00000" pt_clust_8="13000.00000" pt_clust_9="67.93055"></scales>
<clustering>
<clus scale="   67.931">  2  9  1 -1</clus>
<clus scale="   78.375">  5  6 -1 -1</clus>
<clus scale="   87.258">  2  5  1 -1</clus>
<clus scale="   93.266">  7  8 -1 -1</clus>
<clus scale="   67.931">  2  5  1 -1</clus>
</clustering>
</event>
<event>
 9    1  0.3197504E-005  0.9907294E+02  0.7546771E-02  0.1289051E+00
          1   -1    0    0  502    0 -0.00000000000E+00  0.00000000000E+00  0.54483877255E+03  0.54483877255E+03  0.00000000000E+00 0. -1.
         21   -1    0    0  501  502  0.00000000000E+00 -0.00000000000E+00 -0.62831673678E+02  0.62831673678E+02  0.00000000000E+00 0. -1.
         23    2    1    2    0    0 -0.36605803916E+02 -0.11277505216E+02  0.30904481029E+03  0.32484222734E+03  0.92447882007E+02 0.  0.
        -24    2    1    2    0    0 -0.46380295953E+01  0.57694127054E+02 -0.72117810970E+00  0.98379030261E+02  0.79547406508E+02 0.  0.
         13    1    4    4    0    0 -0.26011257581E+02  0.57294840501E+02 -0.23474499102E+02  0.67159037941E+02  0.00000000000E+00 0. -1.
        -14    1    4    4    0    0  0.21373227986E+02  0.39928655299E+00  0.22753320993E+02  0.31219992320E+02  0.00000000000E+00 0.  1.
        -11    1    3    3    0    0  0.20656355879E+02 -0.24211186965E+02  0.50309872109E+02  0.59531083008E+02  0.00000000000E+00 0.  1.
         11    1    3    3    0    0 -0.57262159795E+02  0.12933681749E+02  0.25873493818E+03  0.26531114433E+03  0.00000000000E+00 0. -1.
          2    1    1    2  501    0  0.41243833512E+02 -0.46416621838E+02  0.17368346669E+03  0.18444918863E+03  0.00000000000E+00 0. -1.
<scales pt_clust_5="13000.00000" pt_clust_6="13000.00000" pt_clust_7="13000.00000" pt_clust_8="13000.00000" pt_clust_9="62.09316"></scales>
<clustering>
<clus scale="   62.093">  2  9  1 -1</clus>
<clus scale="   79.547">  5  6 -1 -1</clus>
<clus scale="   87.159">  2  5  1 -1</clus>
<clus scale="   92.448">  7  8 -1 -1</clus>
<clus scale="   62.093">  2  5  1 -1</clus>
</clustering>
</event>
<event>
 9    1  0.3197504E-005  0.3758604E+03  0.7546771E-02  0.1052474E+00
         21   -1    0    0  501  502  0.00000000000E+00  0.00000000000E+00  0.68876143882E+03  0.68876143882E+03  0.00000000000E+00 0.  1.
         -2   -1    0    0    0  501 -0.00000000000E+00 -0.00000000000E+00 -0.30183508186E+03  0.30183508186E+03  0.00000000000E+00 0.  1.
        -24    2    1    2    0    0 -0.97575418284E+02  0.41904689551E+02 -0.82737345584E+02  0.15673851679E+03  0.80277824039E+02 0.  0.
         23    2    1    2    0    0 -0.21116763548E+03 -0.55090884579E+02 -0.39289397639E+02  0.23843428318E+03  0.87638318046E+02 0.  0.
         11    1    3    3    0    0 -0.42735351964E+02  0.10073331655E+02  0.93894644081E+01  0.44899269036E+02  0.00000000000E+00 0. -1.
        -12    1    3    3    0    0 -0.54840066320E+02  0.31831357896E+02 -0.92126809992E+02  0.11183924776E+03  0.00000000000E+00 0.  1.
        -11    1    4    4    0    0 -0.16708715059E+03 -0.19571777156E+02 -0.59324886417E+02  0.17838333022E+03  0.00000000000E+00 0.  1.
         11    1    4    4    0    0 -0.44080484895E+02 -0.35519107423E+02  0.20035488778E+02  0.60050952959E+02  0.00000000000E+00 0. -1.
         -1    1    1    2    0  502  0.30874305377E+03  0.13186195028E+02  0.50895310018E+03  0.59542372070E+03  0.00000000000E+00 0.  1.
<scales pt_clust_5="13000.00000" pt_clust_6="13000.00000" pt_clust_7="13000.00000" pt_clust_8="13000.00000" pt_clust_9="309.02451"></scales>
<clustering>
<clus scale="   80.278">  5  6 -1 -1</clus>
<clus scale="   87.638">  7  8 -1 -1</clus>
<clus scale="  126.754">  5  7 -1 -1</clus>
<clus scale="  309.025">  1  9  2 -1</clus>
<clus scale="  309.025">  1  5  2 -1</clus>
</clustering>
</event>
<event>
 9    1  0.3197504E-005  0.9852122E+02  0.7546771E-02  0.1284177E+00
         -2   -1    0    0    0  501 -0.00000000000E+00  0.00000000000E+00  0.48556875070E+03  0.48556875070E+03  0.00000000000E+00 0.  1.
         21   -1    0    0  501  502  0.00000000000E+00 -0.00000000000E+00 -0.80272964982E+02  0.80272964982E+02  0.00000000000E+00 0. -1.
         23    2    1    2    0    0  0.33820001887E+02  0.11062750885E+02  0.40670773714E+03  0.41831011155E+03  0.91137198725E+02 0.  0.
        -24    2    1    2    0    0 -0.57007027911E+02 -0.17370313459E+02 -0.28457858911E+02  0.11135281707E+03  0.89655290498E+02 0.  0.
         11    1    4    4    0    0 -0.64609884483E+02  0.21213939681E+02 -0.13838543938E+02  0.69397216861E+02  0.00000000000E+00 0. -1.
        -12    1    4    4    0    0  0.76028565721E+01 -0.38584253140E+02 -0.14619314973E+02  0.41955600207E+02  0.00000000000E+00 0.  1.
        -11    1    3    3    0    0 -0.26758403606E+02  0.30339745806E+01  0.53940452698E+02  0.60289216304E+02  0.00000000000E+00 0. -1.
         11    1    3    3    0    0  0.60578405492E+02  0.80287763048E+01  0.35276728444E+03  0.35802089524E+03  0.00000000000E+00 0.  1.
         -1    1    1    2    0  502  0.23187026024E+02  0.63075625741E+01  0.27045907490E+02  0.36178787064E+02  0.00000000000E+00 0.  1.
<scales pt_clust_5="13000.00000" pt_clust_6="13000.00000" pt_clust_7="13000.00000" pt_clust_8="13000.00000" pt_clust_9="24.02965"></scales>
<clustering>
<clus scale="   24.030">  2  9  1 -1</clus>
<clus scale="   89.655">  5  6 -1 -1</clus>
<clus scale="   91.137">  7  8 -1 -1</clus>
<clus scale="   97.152">  2  5  1 -1</clus>
<clus scale="   24.030">  2  5  1 -1</clus>
</clustering>
</event>
<event>
 9    1  0.3197504E-005  0.9198809E+02  0.7546771E-02  0.1304164E+00
         21   -1    0    0  501  502  0.00000000000E+00  0.00000000000E+00  0.29717834034E+02  0.29717834034E+02  0.00000000000E+00 0.  1.
          1   -1    0    0  502    0 -0.00000000000E+00 -0.00000000000E+00 -0.51246207652E+03  0.51246207652E+03  0.00000000000E+00 0. -1.
        -24    2    1    2    0    0 -0.16574360653E+02 -0.24050027638E+00 -0.13841919791E+03  0.16151464287E+03  0.81561867556E+02 0.  0.
         23    2    1    2    0    0 -0.33719966072E+02 -0.20654672658E+02 -0.15972930997E+03  0.18820303039E+03  0.91341538021E+02 0.  0.
         11    1    3    3    0    0 -0.46854595535E+02  0.14359850920E+02 -0.91481953315E+02  0.10378104944E+03  0.00000000000E+00 0. -1.
        -12    1    3    3    0    0  0.30280234882E+02 -0.14600351196E+02 -0.46937244597E+02  0.57733593426E+02  0.00000000000E+00 0.  1.
        -13    1    4    4    0    0 -0.18157510496E+02 -0.43842775675E+02 -0.31474787438E+02  0.56943361426E+02  0.00000000000E+00 0.  1.
         13    1    4    4    0    0 -0.15562455576E+02  0.23188103017E+02 -0.12825452254E+03  0.13125966896E+03  0.00000000000E+00 0. -1.
          2    1    1    2  501    0  0.50294326725E+02  0.20895172934E+02 -0.18459573460E+03  0.19246223729E+03  0.00000000000E+00 0. -1.
<scales pt_clust_5="13000.00000" pt_clust_6="13000.00000" pt_clust_7="13000.00000" pt_clust_8="13000.00000" pt_clust_9="54.46219"></scales>
<clustering>
<clus scale="   54.462">  1  9  2 -1</clus>
<clus scale="   81.562">  5  6 -1 -1</clus>
<clus scale="   82.285">  2  5  1 -1</clus>
<clus scale="   91.342">  7  8 -1 -1</clus>
<clus scale="   54.462">  1  5  2 -1</clus>
</clustering>
</event>
<event>
 9    1  0.3197504E-005  0.1317676E+03  0.7546771E-02  0.1231279E+00
         21   -1    0    0  501  502  0.00000000000E+00  0.00000000000E+00  0.26385993597E+03  0.26385993597E+03  0.00000000000E+00 0.  1.
         -2   -1    0    0    0  501 -0.00000000000E+00 -0.00000000000E+00 -0.17120170124E+03  0.17120170124E+03  0.00000000000E+00 0.  1.
        -24    2    1    2    0    0 -0.81824843377E+02  0.68329469070E+02 -0.26256072589E+02  0.13618167675E+03  0.80571995125E+02 0.  0.
         23    2    1    2    0    0  0.79498730901E+02  0.63417603951E+02  0.29297881094E+02  0.13952561977E+03  0.90924100376E+02 0.  0.
         11    1    3    3    0    0 -0.27407556590E+02  0.73062887349E+02 -0.73507767639E+01  0.78379803426E+02  0.00000000000E+00 0. -1.
        -12    1    3    3    0    0 -0.54417286787E+02 -0.47334182794E+01 -0.18905295825E+02  0.57801873327E+02  0.00000000000E+00 0.  1.
        -13    1    4    4    0    0  0.90121040700E+02  0.29105755272E+02  0.25447294104E+01  0.94738707056E+02  0.00000000000E+00 0. -1.
         13    1    4    4    0    0 -0.10622309799E+02  0.34311848680E+02  0.26753151684E+02  0.44786912712E+02  0.00000000000E+00 0.  1.
         -1    1    1    2    0  502  0.23261124753E+01 -0.13174707302E+03  0.89616426216E+02  0.15935434069E+03  0.00000000000E+00 0.  1.
<scales pt_clust_5="13000.00000" pt_clust_6="13000.00000" pt_clust_7="13000.00000" pt_clust_8="13000.00000" pt_clust_9="131.76761"></scales>
<clustering>
<clus scale="   80.572">  5  6 -1 -1</clus>
<clus scale="   90.924">  7  8 -1 -1</clus>
<clus scale="  131.768">  1  9  2 -1</clus>
<clus scale="  115.352">  2  5  1 -1</clus>
<clus scale="  131.768">  1  5  2 -1</clus>
</clustering>
</event>
<event>
 9    1  0.3197504E-005  0.1125683E+03  0.7546771E-02  0.1260090E+00
         -2   -1    0    0    0  501 -0.00000000000E+00  0.00000000000E+00  0.62217751945E+02  0.62217751945E+02  0.00000000000E+00 0.  1.
         21   -1    0    0  501  502  0.00000000000E+00 -0.00000000000E+00 -0.33427198828E+03  0.33427198828E+03  0.00000000000E+00 0.  1.
         23    2    1    2    0    0  0.89685895684E+02 -0.19479225045E+01 -0.10166118665E+03  0.16350877349E+03  0.91393478161E+02 0.  0.
        -24    2    1    2    0    0 -0.35469972299E+02  0.22782293843E+02 -0.14183425084E+03  0.16825815492E+03  0.80104307863E+02 0.  0.
         11    1    4    4    0    0 -0.18724088855E+02  0.40804037125E+02 -0.30589408618E+02  0.54325618899E+02  0.00000000000E+00 0. -1.
        -12    1    4    4    0    0 -0.16745883444E+02 -0.18021743282E+02 -0.11124484222E+03  0.11393253602E+03  0.00000000000E+00 0.  1.
        -11    1    3    3    0    0  0.10256150550E+03  0.16455188303E+02 -0.72371460157E+02  0.12659883047E+03  0.00000000000E+00 0.  1.
         11    1    3    3    0    0 -0.12875609814E+02 -0.18403110808E+02 -0.29289726490E+02  0.36909943014E+02  0.00000000000E+00 0. -1.
         -1    1    1    2    0  502 -0.54215923385E+02 -0.20834371338E+02 -0.28558798845E+02  0.64722811814E+02  0.00000000000E+00 0.  1.
<scales pt_clust_5="13000.00000" pt_clust_6="13000.00000" pt_clust_7="13000.00000" pt_clust_8="13000.00000" pt_clust_9="58.08133"></scales>
<clustering>
<clus scale="   58.081">  2  9  1 -1</clus>
<clus scale="   80.104">  5  6 -1 -1</clus>
<clus scale="   91.393">  7  8 -1 -1</clus>
<clus scale="  103.613">  2  5  1 -1</clus>
<clus scale="   58.081">  2  5  1 -1</clus>
</clustering>
</event>
<event>
 9    1  0.3197504E-005  0.1192010E+03  0.7546771E-02  0.1249091E+00
         21   -1    0    0  501  502  0.00000000000E+00  0.00000000000E+00  0.49787082730E+02  0.49787082730E+02  0.00000000000E+00 0. -1.
          1   -1    0    0  502    0 -0.00000000000E+00 -0.00000000000E+00 -0.60429648557E+03  0.60429648557E+03  0.00000000000E+00 0. -1.
         23    2    1    2    0    0 -0.96158150827E+02  0.39501643192E+02 -0.43656079136E+03  0.45783398166E+03  0.90663445928E+02 0.  0.
        -24    2    1    2    0    0  0.26971098375E+02 -0.19343717095E+02 -0.77728530976E+02  0.11372174232E+03  0.76087387987E+02 0.  0.
         11    1    4    4    0    0 -0.16791901432E+02 -0.28778710333E+02 -0.14714924342E+02  0.36424045911E+02  0.00000000000E+00 0. -1.
        -12    1    4    4    0    0  0.43762999807E+02  0.94349932379E+01 -0.63013606634E+02  0.77297696412E+02  0.00000000000E+00 0.  1.
        -13    1    3    3    0    0 -0.17294267204E+02 -0.24584620717E+02 -0.16845843242E+03  0.17111907757E+03  0.00000000000E+00 0. -1.
         13    1    3    3    0    0 -0.78863883623E+02  0.64086263908E+02 -0.26810235894E+03  0.28671490409E+03  0.00000000000E+00 0.  1.
          2    1    1    2  501    0  0.69187052452E+02 -0.20157926096E+02 -0.40220080505E+02  0.82527844315E+02  0.00000000000E+00 0. -1.
<scales pt_clust_5="13000.00000" pt_clust_6="13000.00000" pt_clust_7="13000.00000" pt_clust_8="13000.00000" pt_clust_9="72.06379"></scales>
<clustering>
<clus scale="   72.064">  1  9  2 -1</clus>
<clus scale="   76.087">  5  6 -1 -1</clus>
<clus scale="   90.663">  7  8 -1 -1</clus>
<clus scale="  108.528">  1  5  2 -1</clus>
<clus scale="   72.064">  1  5  2 -1</clus>
</clustering>
</event>
<event>
 9    1  0.3197504E-005  0.1328260E+03  0.7546771E-02  0.1243076E+00
         21   -1    0    0  501  502  0.00000000000E+00  0.00000000000E+00  0.51684185144E+02  0.51684185144E+02  0.00000000000E+00 0. -1.
          1   -1    0    0  502    0 -0.00000000000E+00 -0.00000000000E+00 -0.50015159959E+03  0.50015159959E+03  0.00000000000E+00 0. -1.
        -24    2    1    2    0    0 -0.36977807781E+02 -0.15120956838E+02 -0.16550682679E+03  0.18769362983E+03  0.78996122441E+02 0.  0.
         23    2    1    2    0    0 -0.47650739982E+02  0.70646142161E+02 -0.15703650483E+03  0.20258129350E+03  0.95484272026E+02 0.  0.
         13    1    3    3    0    0  0.18046693687E+02 -0.24476574426E+02 -0.39267339996E+02  0.49665982715E+02  0.00000000000E+00 0. -1.
        -14    1    3    3    0    0 -0.55024501467E+02  0.93556175881E+01 -0.12623948679E+03  0.13802764711E+03  0.00000000000E+00 0.  1.
        -11    1    4    4    0    0 -0.31259247161E+02  0.35989994657E+02 -0.15717401006E+03  0.16424399437E+03  0.00000000000E+00 0.  1.
         11    1    4    4    0    0 -0.16391492821E+02  0.34656147504E+02  0.13750523384E+00  0.38337299128E+02  0.00000000000E+00 0. -1.
          2    1    1    2  501    0  0.84628547763E+02 -0.55525185323E+02 -0.12592408283E+03  0.16156086141E+03  0.00000000000E+00 0. -1.
<scales pt_clust_5="13000.00000" pt_clust_6="13000.00000" pt_clust_7="13000.00000" pt_clust_8="13000.00000" pt_clust_9="92.33369"></scales>
<clustering>
<clus scale="   78.996">  5  6 -1 -1</clus>
<clus scale="   88.523">  2  5  1 -1</clus>
<clus scale="   92.334">  1  9  2 -1</clus>
<clus scale="   95.484">  7  8 -1 -1</clus>
<clus scale="   92.334">  1  5  2 -1</clus>
</clustering>
</event>
<event>
 9    1  0.3197504E-005  0.1053137E+03  0.7546771E-02  0.1274947E+00
          1   -1    0    0  502    0 -0.00000000000E+00  0.00000000000E+00  0.76224974684E+02  0.76224974684E+02  0.00000000000E+00 0. -1.
         21   -1    0    0  501  502  0.00000000000E+00 -0.00000000000E+00 -0.21100485113E+03  0.21100485113E+03  0.00000000000E+00 0. -1.
        -24    2    1    2    0    0  0.22407761876E+02  0.52469588765E+02 -0.37803423552E+02  0.10383124736E+03  0.78081134459E+02 0.  0.
         23    2    1    2    0    0  0.12746661161E+02 -0.53726723449E+02 -0.10286043347E+03  0.14773297774E+03  0.90530247735E+02 0.  0.
         11    1    3    3    0    0 -0.15179707739E+01  0.67999325346E+02 -0.23843222898E+02  0.72074348841E+02  0.00000000000E+00 0. -1.
        -12    1    3    3    0    0  0.23925732650E+02 -0.15529736581E+02 -0.13960200654E+02  0.31756898517E+02  0.00000000000E+00 0.  1.
        -11    1    4    4    0    0  0.43249656379E+02 -0.14959487768E+02 -0.82549923189E+02  0.94386486690E+02  0.00000000000E+00 0. -1.
         11    1    4    4    0    0 -0.30502995218E+02 -0.38767235681E+02 -0.20310510285E+02  0.53346491053E+02  0.00000000000E+00 0.  1.
          2    1    1    2  501    0 -0.35154423037E+02  0.12571346841E+01  0.58839805797E+01  0.35665600712E+02  0.00000000000E+00 0. -1.
<scales pt_clust_5="13000.00000" pt_clust_6="13000.00000" pt_clust_7="13000.00000" pt_clust_8="13000.00000" pt_clust_9="35.17691"></scales>
<clustering>
<clus scale="   35.177">  2  9  1 -1</clus>
<clus scale="   78.081">  5  6 -1 -1</clus>
<clus scale="   90.530">  7  8 -1 -1</clus>
<clus scale="   94.826">  1  5  2 -1</clus>
<clus scale="   35.177">  2  5  1 -1</clus>
</clustering>
</event>
<event>
 9    1  0.3197504E-005  0.2704362E+03  0.7546771E-02  0.1136802E+00
          1   -1    0    0  502    0 -0.00000000000E+00  0.00000000000E+00  0.11182690292E+04  0.11182690292E+04  0.00000000000E+00 0. -1.
         21   -1    0    0  501  502  0.00000000000E+00 -0.00000000000E+00 -0.14436822259E+03  0.14436822259E+03  0.00000000000E+00 0. -1.
        -24    2    1    2    0    0 -0.41710354459E+02  0.62067235721E+02  0.23873788917E+03  0.26299570409E+03  0.81110204203E+02 0.  0.
         23    2    1    2    0    0  0.22961386319E+03  0.11411673960E+03  0.61923483834E+02  0.27880879545E+03  0.90303212243E+02 0.  0.
         13    1    3    3    0    0 -0.50464752066E+02  0.73334278858E+02  0.22907289692E+03  0.24576207958E+03  0.00000000000E+00 0. -1.
        -14    1    3    3    0    0  0.87543976062E+01 -0.11267043137E+02  0.96649922457E+01  0.17233624506E+02  0.00000000000E+00 0.  1.
        -13    1    4    4    0    0  0.65397751583E+02  0.70436360345E+02 -0.48411042347E+01  0.96237118936E+02  0.00000000000E+00 0.  1.
         13    1    4    4    0    0  0.16421611161E+03  0.43680379250E+02  0.66764588068E+02  0.18257167651E+03  0.00000000000E+00 0. -1.
          2    1    1    2  501    0 -0.18790350873E+03 -0.17618397532E+03  0.67323943365E+03  0.72083275229E+03  0.00000000000E+00 0. -1.
<scales pt_clust_5="13000.00000" pt_clust_6="13000.00000" pt_clust_7="13000.00000" pt_clust_8="13000.00000" pt_clust_9="254.91393"></scales>
<clustering>
<clus scale="   81.110">  5  6 -1 -1</clus>
<clus scale="   90.303">  7  8 -1 -1</clus>
<clus scale="  110.322">  1  5  2 -1</clus>
<clus scale="  254.914">  2  9  1 -1</clus>
<clus scale="  254.914">  2  5  1 -1</clus>
</clustering>
</event>
<event>
 9    1  0.3197504E-005  0.9399763E+02  0.7546771E-02  0.1300003E+00
         21   -1    0    0  501  502  0.00000000000E+00  0.00000000000E+00  0.28304279436E+02  0.28304279436E+02  0.00000000000E+00 0.  1.
          3   -1    0    0  502    0 -0.00000000000E+00 -0.00000000000E+00 -0.63573575918E+03  0.63573575918E+03  0.00000000000E+00 0. -1.
        -24    2    1    2    0    0 -0.10089998953E+01 -0.22001755805E+02 -0.44827164452E+03  0.45584702982E+03  0.79774381698E+02 0.  0.
         23    2    1    2    0    0 -0.21865880570E+02  0.33570251779E+02 -0.88641663914E+02  0.13316033098E+03  0.90935420093E+02 0.  0.
         13    1    3    3    0    0 -0.39611876564E+02 -0.37626172715E+01 -0.23481430013E+03  0.23816173832E+03  0.00000000000E+00 0. -1.
        -14    1    3    3    0    0  0.38602876669E+02 -0.18239138533E+02 -0.21345734439E+03  0.21768529150E+03  0.00000000000E+00 0.  1.
        -13    1    4    4    0    0 -0.21509081396E+02 -0.21104624627E+02 -0.68600325344E+02  0.74926967111E+02  0.00000000000E+00 0. -1.
         13    1    4    4    0    0 -0.35679917370E+00  0.54674876406E+02 -0.20041338570E+02  0.58233363868E+02  0.00000000000E+00 0.  1.
          4    1    1    2  501    0  0.22874880465E+02 -0.11568495974E+02 -0.70518171310E+02  0.75032677817E+02  0.00000000000E+00 0. -1.
<scales pt_clust_5="13000.00000" pt_clust_6="13000.00000" pt_clust_7="13000.00000" pt_clust_8="13000.00000" pt_clust_9="25.63378"></scales>
<clustering>
<clus scale="   25.634">  1  9  2 -1</clus>
<clus scale="   79.774">  5  6 -1 -1</clus>
<clus scale="   83.248">  2  5  1 -1</clus>
<clus scale="   90.935">  7  8 -1 -1</clus>
<clus scale="   25.634">  1  5  2 -1</clus>
</clustering>
</event>
<event>
 9    1  0.3197504E-005  0.1161196E+03  0.7546771E-02  0.1252746E+00
         -2   -1    0    0    0  501 -0.00000000000E+00  0.00000000000E+00  0.92022574021E+03  0.92022574021E+03  0.00000000000E+00 0.  1.
         21   -1    0    0  501  502  0.00000000000E+00 -0.00000000000E+00 -0.40690559565E+02  0.40690559565E+02  0.00000000000E+00 0. -1.
        -24    2    1    2    0    0  0.45294509206E+02 -0.52421950417E+02  0.67714688806E+03  0.68574663692E+03  0.83191878139E+02 0.  0.
         23    2    1    2    0    0 -0.75226688360E+02  0.41942895073E+02  0.81464344602E+02  0.15015627499E+03  0.92153168088E+02 0.  0.
         13    1    3    3    0    0  0.15362177386E+02 -0.46007253250E+02  0.14863716273E+03  0.15635111125E+03  0.00000000000E+00 0. -1.
        -14    1    3    3    0    0  0.29932331820E+02 -0.64146971673E+01  0.52850972533E+03  0.52939552567E+03  0.00000000000E+00 0.  1.
        -13    1    4    4    0    0  0.75061212863E+01  0.35075337348E+02  0.49650361902E+02  0.61251772087E+02  0.00000000000E+00 0.  1.
         13    1    4    4    0    0 -0.82732809646E+02  0.68675577248E+01  0.31813982700E+02  0.88904502902E+02  0.00000000000E+00 0. -1.
         -1    1    1    2    0  502  0.29932179154E+02  0.10479055344E+02  0.12092394798E+03  0.12501338786E+03  0.00000000000E+00 0.  1.
<scales pt_clust_5="13000.00000" pt_clust_6="13000.00000" pt_clust_7="13000.00000" pt_clust_8="13000.00000" pt_clust_9="31.71351"></scales>
<clustering>
<clus scale="   31.714">  2  9  1 -1</clus>
<clus scale="   83.192">  5  6 -1 -1</clus>
<clus scale="   92.153">  7  8 -1 -1</clus>
<clus scale="  109.144">  1  5  2 -1</clus>
<clus scale="   31.714">  2  5  1 -1</clus>
</clustering>
</event>
<event>
 9    1  0.3197504E-005  0.1038120E+03  0.7546771E-02  0.1275977E+00
          1   -1    0    0  502    0 -0.00000000000E+00  0.00000000000E+00  0.32804696715E+03  0.32804696715E+03  0.00000000000E+00 0. -1.
         21   -1    0    0  501  502  0.00000000000E+00 -0.00000000000E+00 -0.12589822704E+03  0.12589822704E+03  0.00000000000E+00 0. -1.
         23    2    1    2    0    0  0.12630378993E+01  0.59463156342E+02  0.94915337515E+02  0.14283242135E+03  0.88626841688E+02 0.  0.
        -24    2    1    2    0    0  0.24391492001E+02 -0.30843502352E+02 -0.79869379094E+02  0.12010311231E+03  0.80618691073E+02 0.  0.
         11    1    4    4    0    0  0.14210422936E+02  0.20117919173E+02 -0.59300281034E+02  0.64212071470E+02  0.00000000000E+00 0. -1.
        -12    1    4    4    0    0  0.10181069066E+02 -0.50961421524E+02 -0.20569098060E+02  0.55891040839E+02  0.00000000000E+00 0.  1.
        -11    1    3    3    0    0  0.24155922020E+02  0.74460755189E+02  0.78792532942E+02  0.11106833878E+03  0.00000000000E+00 0. -1.
         11    1    3    3    0    0 -0.22892884120E+02 -0.14997598847E+02  0.16122804573E+02  0.31764082575E+02  0.00000000000E+00 0.  1.
          2    1    1    2  501    0 -0.25654529900E+02 -0.28619653990E+02  0.18710278169E+03  0.19100966053E+03  0.00000000000E+00 0. -1.
<scales pt_clust_5="13000.00000" pt_clust_6="13000.00000" pt_clust_7="13000.00000" pt_clust_8="13000.00000" pt_clust_9="38.43489"></scales>
<clustering>
<clus scale="   38.435">  2  9  1 -1</clus>
<clus scale="   80.619">  5  6 -1 -1</clus>
<clus scale="   88.627">  7  8 -1 -1</clus>
<clus scale="   97.065">  2  5  1 -1</clus>
<clus scale="   38.435">  2  5  1 -1</clus>
</clustering>
</event>
<event>
 9    1  0.3197504E-005  0.8943191E+02  0.7546771E-02  0.1309869E+00
         -2   -1    0    0    0  501 -0.00000000000E+00  0.00000000000E+00  0.70550620206E+02  0.70550620206E+02  0.00000000000E+00 0.  1.
         21   -1    0    0  501  502  0.00000000000E+00 -0.00000000000E+00 -0.38500038432E+03  0.38500038432E+03  0.00000000000E+00 0.  1.
         23    2    1    2    0    0 -0.24661833575E+02 -0.54081921989E+01  0.63751367738E+01  0.91720007839E+02  0.87945795186E+02 0.  0.
        -24    2    1    2    0    0 -0.41210370745E+02  0.10532990574E+01 -0.25692899197E+03  0.27195717249E+03  0.79049305240E+02 0.  0.
         13    1    4    4    0    0  0.22052016409E+02  0.40039381725E+01 -0.38669461142E+02  0.44695079970E+02  0.00000000000E+00 0. -1.
        -14    1    4    4    0    0 -0.63262387153E+02 -0.29506391151E+01 -0.21825953083E+03  0.22726209252E+03  0.00000000000E+00 0.  1.
        -13    1    3    3    0    0  0.15367969190E+02 -0.31499601246E+02  0.22079125886E+02  0.41423268287E+02  0.00000000000E+00 0.  1.
         13    1    3    3    0    0 -0.40029802765E+02  0.26091409047E+02 -0.15703989112E+02  0.50296739552E+02  0.00000000000E+00 0. -1.
         -1    1    1    2    0  502  0.65872204319E+02  0.43548931415E+01 -0.63895908919E+02  0.91873824198E+02  0.00000000000E+00 0.  1.
<scales pt_clust_5="13000.00000" pt_clust_6="13000.00000" pt_clust_7="13000.00000" pt_clust_8="13000.00000" pt_clust_9="66.01600"></scales>
<clustering>
<clus scale="   66.016">  2  9  1 -1</clus>
<clus scale="   79.049">  5  6 -1 -1</clus>
<clus scale="   80.699">  2  5  1 -1</clus>
<clus scale="   87.946">  7  8 -1 -1</clus>
<clus scale="   66.016">  2  5  1 -1</clus>
</clustering>
</event>
<event>
 9    1  0.3197504E-005  0.1461803E+03  0.7546771E-02  0.1231621E+00
         21   -1    0    0  501  502  0.00000000000E+00  0.00000000000E+00  0.43982486781E+02  0.43982486781E+02  0.00000000000E+00 0. -1.
          1   -1    0    0  502    0 -0.00000000000E+00 -0.00000000000E+00 -0.14189589559E+04  0.14189589559E+04  0.00000000000E+00 0. -1.
        -24    2    1    2    0    0 -0.22633739120E+02 -0.67659797235E+01 -0.39050932528E+03  0.39941905854E+03  0.80498363760E+02 0.  0.
         23    2    1    2    0    0 -0.61235891197E+02  0.10365114944E+03 -0.11705355869E+03  0.18669447702E+03  0.81608191981E+02 0.  0.
         11    1    3    3    0    0 -0.39795584493E+02  0.23072622472E+02 -0.27739281118E+03  0.28118109137E+03  0.00000000000E+00 0. -1.
        -12    1    3    3    0    0  0.17161845373E+02 -0.29838602195E+02 -0.11311651410E+03  0.11823796717E+03  0.00000000000E+00 0.  1.
        -13    1    4    4    0    0 -0.69659667945E+02  0.68043563503E+02 -0.48044451879E+02  0.10858482964E+03  0.00000000000E+00 0. -1.
         13    1    4    4    0    0  0.84237767475E+01  0.35607585933E+02 -0.69009106814E+02  0.78109647380E+02  0.00000000000E+00 0.  1.
          2    1    1    2  501    0  0.83869630317E+02 -0.96885169712E+02 -0.86741358513E+03  0.87682790710E+03  0.00000000000E+00 0. -1.
<scales pt_clust_5="13000.00000" pt_clust_6="13000.00000" pt_clust_7="13000.00000" pt_clust_8="13000.00000" pt_clust_9="121.27979"></scales>
<clustering>
<clus scale="   80.498">  5  6 -1 -1</clus>
<clus scale="   81.608">  7  8 -1 -1</clus>
<clus scale="   83.893">  2  5  1 -1</clus>
<clus scale="  121.280">  1  9  2 -1</clus>
<clus scale="  121.280">  1  5  2 -1</clus>
</clustering>
</event>
<event>
 9    1  0.3197504E-005  0.1903056E+03  0.7546771E-02  0.1159413E+00
         -2   -1    0    0    0  501 -0.00000000000E+00  0.00000000000E+00  0.16009368403E+04  0.16009368403E+04  0.00000000000E+00 0.  1.
         21   -1    0    0  501  502  0.00000000000E+00 -0.00000000000E+00 -0.26499538553E+02  0.26499538553E+02  0.00000000000E+00 0. -1.
         23    2    1    2    0    0 -0.92260852588E+02 -0.13883529251E+03  0.72320552930E+03  0.74793196362E+03  0.92675138136E+02 0.  0.
        -24    2    1    2    0    0  0.11460790753E+03  0.12139547623E+03  0.63963411508E+03  0.66601646086E+03  0.81082000796E+02 0.  0.
         13    1    4    4    0    0  0.24731868815E+02  0.27643375351E+02  0.50042859546E+02  0.62290523577E+02  0.00000000000E+00 0. -1.
        -14    1    4    4    0    0  0.89876038713E+02  0.93752100875E+02  0.58959125553E+03  0.60372593729E+03  0.00000000000E+00 0.  1.
        -11    1    3    3    0    0  0.17561973103E+02 -0.27117210086E+02  0.89595983049E+02  0.95242879842E+02  0.00000000000E+00 0. -1.
         11    1    3    3    0    0 -0.10982282569E+03 -0.11171808243E+03  0.63360954625E+03  0.65268908377E+03  0.00000000000E+00 0.  1.
         -1    1    1    2    0  502 -0.22347054940E+02  0.17439816288E+02  0.21159765740E+03  0.21348795440E+03  0.00000000000E+00 0.  1.
<scales pt_clust_5="13000.00000" pt_clust_6="13000.00000" pt_clust_7="13000.00000" pt_clust_8="13000.00000" pt_clust_9="28.34676"></scales>
<clustering>
<clus scale="   28.347">  2  9  1 -1</clus>
<clus scale="   81.082">  5  6 -1 -1</clus>
<clus scale="   92.675">  7  8 -1 -1</clus>
<clus scale="  184.937">  2  5  1 -1</clus>
<clus scale="   28.347">  2  5  1 -1</clus>
</clustering>
</event>
<event>
 9    1  0.3197504E-005  0.2314973E+03  0.7546771E-02  0.1126561E+00
          1   -1    0    0  502    0 -0.00000000000E+00  0.00000000000E+00  0.11502367837E+04  0.11502367837E+04  0.00000000000E+00 0. -1.
         21   -1    0    0  501  502  0.00000000000E+00 -0.00000000000E+00 -0.12670945212E+03  0.12670945212E+03  0.00000000000E+00 0. -1.
        -24    2    1    2    0    0  0.58616737135E+02  0.22512162063E+03  0.80651055488E+03  0.84314313802E+03  0.79469554663E+02 0.  0.
         23    2    1    2    0    0  0.87841297840E+02 -0.16905290086E+03  0.16364641942E+03  0.26814666905E+03  0.93954822318E+02 0.  0.
         11    1    3    3    0    0  0.72367762633E+02  0.19063664582E+03  0.61066789147E+03  0.64381262605E+03  0.00000000000E+00 0. -1.
        -12    1    3    3    0    0 -0.13751025498E+02  0.34484974810E+02  0.19584266341E+03  0.19933051197E+03  0.00000000000E+00 0.  1.
        -13    1    4    4    0    0  0.11533007552E+01 -0.98228290475E+02  0.57203929457E+02  0.11367680809E+03  0.00000000000E+00 0.  1.
         13    1    4    4    0    0  0.86687997085E+02 -0.70824610387E+02  0.10644248996E+03  0.15446986096E+03  0.00000000000E+00 0. -1.
          2    1    1    2  501    0 -0.14645803498E+03 -0.56068719764E+02  0.53370357257E+02  0.16565642873E+03  0.00000000000E+00 0. -1.
<scales pt_clust_5="13000.00000" pt_clust_6="13000.00000" pt_clust_7="13000.00000" pt_clust_8="13000.00000" pt_clust_9="156.82365"></scales>
<clustering>
<clus scale="   79.470">  5  6 -1 -1</clus>
<clus scale="   93.955">  7  8 -1 -1</clus>
<clus scale="  156.824">  2  9  1 -1</clus>
<clus scale="  226.006">  1  5  2 -1</clus>
<clus scale="  156.824">  2  5  1 -1</clus>
</clustering>
</event>
<event>
 9    1  0.3197504E-005  0.1261131E+03  0.7546771E-02  0.1236052E+00
         21   -1    0    0  501  502  0.00000000000E+00  0.00000000000E+00  0.53688530716E+02  0.53688530716E+02  0.00000000000E+00 0. -1.
         -4   -1    0    0    0  501 -0.00000000000E+00 -0.00000000000E+00 -0.56087589913E+03  0.56087589913E+03  0.00000000000E+00 0.  1.
        -24    2    1    2    0    0 -0.89953430680E+02  0.17844258277E+02 -0.41073057556E+03  0.42856384549E+03  0.80977322252E+02 0.  0.
         23    2    1    2    0    0  0.67389354719E+02 -0.97246030337E+01 -0.32951354988E+02  0.11811828207E+03  0.90720690746E+02 0.  0.
         11    1    3    3    0    0 -0.57502155886E+02  0.33627389420E+02 -0.13561553694E+03  0.15109226688E+03  0.00000000000E+00 0. -1.
        -12    1    3    3    0    0 -0.32451274794E+02 -0.15783131143E+02 -0.27511503861E+03  0.27747157861E+03  0.00000000000E+00 0.  1.
        -13    1    4    4    0    0  0.34308674015E+02 -0.10612952910E+02  0.30133743786E+02  0.46880298598E+02  0.00000000000E+00 0. -1.
         13    1    4    4    0    0  0.33080680704E+02  0.88834987608E+00 -0.63085098774E+02  0.71237983469E+02  0.00000000000E+00 0.  1.
         -3    1    1    2    0  502  0.22564075962E+02 -0.81196552438E+01 -0.63505437870E+02  0.67882302291E+02  0.00000000000E+00 0.  1.
<scales pt_clust_5="13000.00000" pt_clust_6="13000.00000" pt_clust_7="13000.00000" pt_clust_8="13000.00000" pt_clust_9="23.98055"></scales>
<clustering>
<clus scale="   23.981">  1  9  2 -1</clus>
<clus scale="   80.977">  5  6 -1 -1</clus>
<clus scale="   90.721">  7  8 -1 -1</clus>
<clus scale="  119.296">  2  5  1 -1</clus>
<clus scale="   23.981">  1  5  2 -1</clus>
</clustering>
</event>
<event>
 9    1  0.3197504E-005  0.9255941E+02  0.7546771E-02  0.1302087E+00
         -2   -1    0    0    0  501 -0.00000000000E+00  0.00000000000E+00  0.55564830826E+03  0.55564830826E+03  0.00000000000E+00 0.  1.
         21   -1    0    0  501  502  0.00000000000E+00 -0.00000000000E+00 -0.37994691013E+02  0.37994691013E+02  0.00000000000E+00 0. -1.
        -24    2    1    2    0    0 -0.12467230244E+02  0.21578347880E+02  0.39748342429E+03  0.40623090157E+03  0.80058827612E+02 0.  0.
         23    2    1    2    0    0 -0.99385647007E+01 -0.34589244355E+02  0.41632057082E+02  0.10471057498E+03  0.89083586826E+02 0.  0.
         11    1    3    3    0    0  0.29274600223E+02  0.25301917474E+02  0.13548466055E+03  0.14090167667E+03  0.00000000000E+00 0. -1.
        -12    1    3    3    0    0 -0.41741830468E+02 -0.37235695938E+01  0.26199876374E+03  0.26532922489E+03  0.00000000000E+00 0.  1.
        -11    1    4    4    0    0 -0.19173362933E+02 -0.57626100970E+02  0.56433669972E+01  0.60993712383E+02  0.00000000000E+00 0. -1.
         11    1    4    4    0    0  0.92347982328E+01  0.23036856615E+02  0.35988690085E+02  0.43716862594E+02  0.00000000000E+00 0.  1.
         -1    1    1    2    0  502  0.22405794945E+02  0.13010896475E+02  0.78538135879E+02  0.82701522728E+02  0.00000000000E+00 0.  1.
<scales pt_clust_5="13000.00000" pt_clust_6="13000.00000" pt_clust_7="13000.00000" pt_clust_8="13000.00000" pt_clust_9="25.90953"></scales>
<clustering>
<clus scale="   25.910">  2  9  1 -1</clus>
<clus scale="   80.059">  5  6 -1 -1</clus>
<clus scale="   83.909">  1  5  2 -1</clus>
<clus scale="   89.084">  7  8 -1 -1</clus>
<clus scale="   25.910">  2  5  1 -1</clus>
</clustering>
</event>
<event>
 9    1  0.3197504E-005  0.9336324E+02  0.7546771E-02  0.1300747E+00
          1   -1    0    0  502    0 -0.00000000000E+00  0.00000000000E+00  0.13745016863E+03  0.13745016863E+03  0.00000000000E+00 0. -1.
         21   -1    0    0  501  502  0.00000000000E+00 -0.00000000000E+00 -0.24004088921E+03  0.24004088921E+03  0.00000000000E+00 0. -1.
        -24    2    1    2    0    0  0.27018394642E+02  0.12768000177E+02  0.86953106505E+02  0.12241037687E+03  0.80811151198E+02 0.  0.
         23    2    1    2    0    0  0.27812494660E+02  0.31332762555E+02 -0.12011222778E+03  0.15622699779E+03  0.90689860011E+02 0.  0.
         11    1    3    3    0    0  0.52811548550E+02  0.11668351732E+02  0.78336942968E+02  0.95193942696E+02  0.00000000000E+00 0. -1.
        -12    1    3    3    0    0 -0.25793153909E+02  0.10996484449E+01  0.86161635375E+01  0.27216434178E+02  0.00000000000E+00 0.  1.
        -13    1    4    4    0    0  0.37345550462E+02 -0.44255842941E+01 -0.11226566125E+03  0.11839702121E+03  0.00000000000E+00 0.  1.
         13    1    4    4    0    0 -0.95330558021E+01  0.35758346849E+02 -0.78465665361E+01  0.37829976588E+02  0.00000000000E+00 0. -1.
          2    1    1    2  501    0 -0.54830889302E+02 -0.44100762731E+02 -0.69431599304E+02  0.98853683174E+02  0.00000000000E+00 0. -1.
<scales pt_clust_5="13000.00000" pt_clust_6="13000.00000" pt_clust_7="13000.00000" pt_clust_8="13000.00000" pt_clust_9="70.36550"></scales>
<clustering>
<clus scale="   70.366">  2  9  1 -1</clus>
<clus scale="   80.811">  5  6 -1 -1</clus>
<clus scale="   83.800">  1  5  2 -1</clus>
<clus scale="   90.690">  7  8 -1 -1</clus>
<clus scale="   70.366">  2  5  1 -1</clus>
</clustering>
</event>
<event>
 9    1  0.3197504E-005  0.1574078E+03  0.7546771E-02  0.1194079E+00
          1   -1    0    0  502    0 -0.00000000000E+00  0.00000000000E+00  0.10636997387E+03  0.10636997387E+03  0.00000000000E+00 0. -1.
         21   -1    0    0  501  502  0.00000000000E+00 -0.00000000000E+00 -0.60278387866E+03  0.60278387866E+03  0.00000000000E+00 0.  1.
         23    2    1    2    0    0 -0.99320342861E+02 -0.82996291417E+02  0.10141161630E+01  0.15843634896E+03  0.91368119960E+02 0.  0.
        -24    2    1    2    0    0  0.13741565380E+03  0.21422272813E+02 -0.28387391911E+03  0.32522256593E+03  0.76441740961E+02 0.  0.
         11    1    4    4    0    0  0.55392979731E+02 -0.22274528443E+02 -0.69832829219E+02  0.91875790378E+02  0.00000000000E+00 0. -1.
        -12    1    4    4    0    0  0.82022674070E+02  0.43696801256E+02 -0.21404108989E+03  0.23334677556E+03  0.00000000000E+00 0.  1.
        -11    1    3    3    0    0 -0.70862242539E+02 -0.33603796744E+01 -0.14627008633E+02  0.72434100745E+02  0.00000000000E+00 0.  1.
         11    1    3    3    0    0 -0.28458100322E+02 -0.79635911743E+02  0.15641124796E+02  0.86002248214E+02  0.00000000000E+00 0. -1.
          2    1    1    2  501    0 -0.38095310940E+02  0.61574018604E+02 -0.21355410185E+03  0.22549493764E+03  0.00000000000E+00 0. -1.
<scales pt_clust_5="13000.00000" pt_clust_6="13000.00000" pt_clust_7="13000.00000" pt_clust_8="13000.00000" pt_clust_9="72.40589"></scales>
<clustering>
<clus scale="   72.406">  2  9  1 -1</clus>
<clus scale="   76.442">  5  6 -1 -1</clus>
<clus scale="   91.368">  7  8 -1 -1</clus>
<clus scale="  149.239">  2  5  1 -1</clus>
<clus scale="   72.406">  2  5  1 -1</clus>
</clustering>
</event>
<event>
 9    1  0.3197504E-005  0.1134416E+03  0.7546771E-02  0.1257631E+00
         21   -1    0    0  501  502  0.00000000000E+00  0.00000000000E+00  0.33103538808E+03  0.33103538808E+03  0.00000000000E+00 0. -1.
         -4   -1    0    0    0  501 -0.00000000000E+00 -0.00000000000E+00 -0.74870958413E+02  0.74870958413E+02  0.00000000000E+00 0.  1.
         23    2    1    2    0    0 -0.17392605468E+02 -0.73678614301E+02  0.52698270950E+00  0.11758829126E+03  0.89976039041E+02 0.  0.
        -24    2    1    2    0    0  0.33158171587E+02  0.40809945546E+02  0.17357470859E+03  0.19852275753E+03  0.80735306999E+02 0.  0.
         11    1    4    4    0    0 -0.23958539551E+02  0.29678285596E+02  0.66987467609E+02  0.77085232503E+02  0.00000000000E+00 0. -1.
        -12    1    4    4    0    0  0.57116711138E+02  0.11131659950E+02  0.10658724098E+03  0.12143752502E+03  0.00000000000E+00 0.  1.
        -11    1    3    3    0    0  0.66756630737E+01 -0.29972697444E+02  0.42468566174E+02  0.52407119578E+02  0.00000000000E+00 0. -1.
         11    1    3    3    0    0 -0.24068268542E+02 -0.43705916857E+02 -0.41941583465E+02  0.65181171687E+02  0.00000000000E+00 0.  1.
         -3    1    1    2    0  502 -0.15765566118E+02  0.32868668755E+02  0.82062738372E+02  0.89795297704E+02  0.00000000000E+00 0.  1.
<scales pt_clust_5="13000.00000" pt_clust_6="13000.00000" pt_clust_7="13000.00000" pt_clust_8="13000.00000" pt_clust_9="36.45411"></scales>
<clustering>
<clus scale="   36.454">  1  9  2 -1</clus>
<clus scale="   80.735">  5  6 -1 -1</clus>
<clus scale="   89.976">  7  8 -1 -1</clus>
<clus scale="  106.262">  1  5  2 -1</clus>
<clus scale="   36.454">  1  5  2 -1</clus>
</clustering>
</event>
<event>
 9    1  0.3197504E-005  0.9243806E+02  0.7546771E-02  0.1302068E+00
          1   -1    0    0  502    0 -0.00000000000E+00  0.00000000000E+00  0.11093749781E+03  0.11093749781E+03  0.00000000000E+00 0. -1.
         21   -1    0    0  501  502  0.00000000000E+00 -0.00000000000E+00 -0.97936666121E+02  0.97936666121E+02  0.00000000000E+00 0.  1.
         23    2    1    2    0    0 -0.16067175805E+02 -0.82060694555E+01  0.12900115937E+02  0.90255779906E+02  0.87488279792E+02 0.  0.
        -24    2    1    2    0    0  0.33171082266E+02  0.29996159437E+02 -0.35173520451E+01  0.90681991058E+02  0.78808384435E+02 0.  0.
         11    1    4    4    0    0 -0.20797251807E+02  0.55016889561E+01  0.17569531927E+02  0.27775577694E+02  0.00000000000E+00 0. -1.
        -12    1    4    4    0    0  0.53968334073E+02  0.24494470481E+02 -0.21086883972E+02  0.62906413364E+02  0.00000000000E+00 0.  1.
        -11    1    3    3    0    0  0.21251583936E+02  0.28903909378E+02  0.11258939167E+02  0.37600924301E+02  0.00000000000E+00 0.  1.
         11    1    3    3    0    0 -0.37318759741E+02 -0.37109978833E+02  0.16411767701E+01  0.52654855605E+02  0.00000000000E+00 0. -1.
          2    1    1    2  501    0 -0.17103906461E+02 -0.21790089981E+02  0.36180678002E+01  0.27936392971E+02  0.00000000000E+00 0. -1.
<scales pt_clust_5="13000.00000" pt_clust_6="13000.00000" pt_clust_7="13000.00000" pt_clust_8="13000.00000" pt_clust_9="27.70113"></scales>
<clustering>
<clus scale="   27.701">  2  9  1 -1</clus>
<clus scale="   78.808">  5  6 -1 -1</clus>
<clus scale="   84.270">  2  5  1 -1</clus>
<clus scale="   87.488">  7  8 -1 -1</clus>
<clus scale="   27.701">  2  5  1 -1</clus>
</clustering>
</event>
<event>
 9    1  0.3197504E-005  0.2233431E+03  0.7546771E-02  0.1131596E+00
         21   -1    0    0  501  502  0.00000000000E+00  0.00000000000E+00  0.14353318351E+03  0.14353318351E+03  0.00000000000E+00 0. -1.
          1   -1    0    0  502    0 -0.00000000000E+00 -0.00000000000E+00 -0.10625127485E+04  0.10625127485E+04  0.00000000000E+00 0. -1.
        -24    2    1    2    0    0 -0.70303031615E+02 -0.19803532671E+03 -0.85116225573E+03  0.88101519398E+03  0.86891193817E+02 0.  0.
         23    2    1    2    0    0  0.14065243602E+03  0.13517644071E+03 -0.81820869760E+02  0.22965580449E+03  0.89394384207E+02 0.  0.
         11    1    3    3    0    0 -0.19891450764E+02 -0.16673200192E+03 -0.61481310481E+03  0.63733067095E+03  0.00000000000E+00 0. -1.
        -12    1    3    3    0    0 -0.50411580851E+02 -0.31303324787E+02 -0.23634915091E+03  0.24368452303E+03  0.00000000000E+00 0.  1.
        -13    1    4    4    0    0  0.26828142106E+02  0.72068149470E+02 -0.60338909248E+02  0.97746362316E+02  0.00000000000E+00 0.  1.
         13    1    4    4    0    0  0.11382429391E+03  0.63108291245E+02 -0.21481960512E+02  0.13190944218E+03  0.00000000000E+00 0. -1.
          2    1    1    2  501    0 -0.70349404402E+02  0.62858885992E+02  0.14003560472E+02  0.95374933571E+02  0.00000000000E+00 0. -1.
<scales pt_clust_5="13000.00000" pt_clust_6="13000.00000" pt_clust_7="13000.00000" pt_clust_8="13000.00000" pt_clust_9="94.34129"></scales>
<clustering>
<clus scale="   86.891">  5  6 -1 -1</clus>
<clus scale="   89.394">  7  8 -1 -1</clus>
<clus scale="   94.341">  1  9  2 -1</clus>
<clus scale="  222.353">  2  5  1 -1</clus>
<clus scale="   94.341">  1  5  2 -1</clus>
</clustering>
</event>
<event>
 9    1  0.4762115E-005  0.1226796E+03  0.7546771E-02  0.1246475E+00
         21   -1    0    0  501  502  0.00000000000E+00  0.00000000000E+00  0.57252414142E+03  0.57252414142E+03  0.00000000000E+00 0. -1.
          3   -1    0    0  502    0 -0.00000000000E+00 -0.00000000000E+00 -0.12002150632E+03  0.12002150632E+03  0.00000000000E+00 0. -1.
         23    2    1    2    0    0 -0.47268339615E+02  0.56664777224E+01  0.34153154559E+02  0.10790513622E+03  0.90612778110E+02 0.  0.
        -24    2    1    2    0    0  0.68795282958E+02 -0.92479714666E+02  0.45927203856E+03  0.48628095096E+03  0.11069358285E+03 0.  0.
         13    1    4    4    0    0  0.76608299586E+02 -0.10340075122E+03  0.29990017981E+03  0.32634439595E+03  0.00000000000E+00 0. -1.
        -14    1    4    4    0    0 -0.78130166278E+01  0.10921036550E+02  0.15937185875E+03  0.15993655501E+03  0.00000000000E+00 0.  1.
        -13    1    3    3    0    0 -0.25810141834E+02  0.44941839293E+02  0.36015542997E+02  0.63111422721E+02  0.00000000000E+00 0. -1.
         13    1    3    3    0    0 -0.21458197780E+02 -0.39275361570E+02 -0.18623884378E+01  0.44793713500E+02  0.00000000000E+00 0.  1.
          4    1    1    2  501    0 -0.21526943344E+02  0.86813236943E+02 -0.40922558017E+02  0.98359560557E+02  0.00000000000E+00 0. -1.
<scales pt_clust_5="13000.00000" pt_clust_6="13000.00000" pt_clust_7="13000.00000" pt_clust_8="13000.00000" pt_clust_9="89.44247"></scales>
<clustering>
<clus scale="   89.442">  1  9  2 -1</clus>
<clus scale="   90.613">  7  8 -1 -1</clus>
<clus scale="  104.918">  2  7  1 -1</clus>
<clus scale="  110.694">  5  6 -1 -1</clus>
<clus scale="   89.442">  1  5  2 -1</clus>
</clustering>
</event>
<event>
 9    1  0.3197504E-005  0.2680898E+03  0.7546771E-02  0.1146796E+00
         21   -1    0    0  501  502  0.00000000000E+00  0.00000000000E+00  0.18197198549E+03  0.18197198549E+03  0.00000000000E+00 0. -1.
          1   -1    0    0  502    0 -0.00000000000E+00 -0.00000000000E+00 -0.59476875332E+03  0.59476875332E+03  0.00000000000E+00 0. -1.
        -24    2    1    2    0    0  0.12534238636E+02  0.37246914416E+02  0.28497394300E+02  0.93503214607E+02  0.79914390995E+02 0.  0.
         23    2    1    2    0    0 -0.23452680289E+03 -0.12688186017E+03 -0.22887957400E+03  0.36318271743E+03  0.91727853613E+02 0.  0.
         11    1    3    3    0    0 -0.43853265394E+01  0.50037370973E+02 -0.84167718910E+01  0.50929477042E+02  0.00000000000E+00 0. -1.
        -12    1    3    3    0    0  0.16919565175E+02 -0.12790456556E+02  0.36914166191E+02  0.42573737565E+02  0.00000000000E+00 0.  1.
        -11    1    4    4    0    0 -0.13775264607E+03 -0.22803466529E+02 -0.12092158557E+03  0.18471009567E+03  0.00000000000E+00 0. -1.
         11    1    4    4    0    0 -0.96774156827E+02 -0.10407839365E+03 -0.10795798842E+03  0.17847262176E+03  0.00000000000E+00 0.  1.
          2    1    1    2  501    0  0.22199256426E+03  0.89634945758E+02 -0.21241458813E+03  0.32005480677E+03  0.00000000000E+00 0. -1.
<scales pt_clust_5="13000.00000" pt_clust_6="13000.00000" pt_clust_7="13000.00000" pt_clust_8="13000.00000" pt_clust_9="251.90900"></scales>
<clustering>
<clus scale="   79.914">  5  6 -1 -1</clus>
<clus scale="   89.055">  2  5  1 -1</clus>
<clus scale="   91.728">  7  8 -1 -1</clus>
<clus scale="  251.909">  1  9  2 -1</clus>
<clus scale="  251.909">  1  5  2 -1</clus>
</clustering>
</event>
<event>
 9    1  0.3197504E-005  0.1004058E+03  0.7546771E-02  0.1281815E+00
          3   -1    0    0  502    0 -0.00000000000E+00  0.00000000000E+00  0.20412195139E+03  0.20412195139E+03  0.00000000000E+00 0. -1.
         21   -1    0    0  501  502  0.00000000000E+00 -0.00000000000E+00 -0.11634915564E+03  0.11634915564E+03  0.00000000000E+00 0. -1.
         23    2    1    2    0    0  0.32887456381E+02  0.40369344523E+02  0.77154897909E+02  0.12640437290E+03  0.85521450253E+02 0.  0.
        -24    2    1    2    0    0 -0.57720950114E+02 -0.13389627331E+02  0.71667727684E+02  0.12285094040E+03  0.80281381183E+02 0.  0.
         11    1    4    4    0    0 -0.74093557468E+02 -0.66949984098E+01  0.35163644000E+02  0.82287059258E+02  0.00000000000E+00 0. -1.
        -12    1    4    4    0    0  0.16372607354E+02 -0.66946289212E+01  0.36504083684E+02  0.40563881145E+02  0.00000000000E+00 0.  1.
        -13    1    3    3    0    0 -0.24708423393E+02  0.37947340369E+01  0.43866246463E+02  0.50489145088E+02  0.00000000000E+00 0.  1.
         13    1    3    3    0    0  0.57595879774E+02  0.36574610486E+02  0.33288651446E+02  0.75915227815E+02  0.00000000000E+00 0. -1.
          4    1    1    2  501    0  0.24833493732E+02 -0.26979717192E+02 -0.61049829846E+02  0.71215793718E+02  0.00000000000E+00 0. -1.
<scales pt_clust_5="13000.00000" pt_clust_6="13000.00000" pt_clust_7="13000.00000" pt_clust_8="13000.00000" pt_clust_9="36.66889"></scales>
<clustering>
<clus scale="   36.669">  2  9  1 -1</clus>
<clus scale="   80.281">  5  6 -1 -1</clus>
<clus scale="   85.521">  7  8 -1 -1</clus>
<clus scale="   95.982">  2  5  1 -1</clus>
<clus scale="   36.669">  2  5  1 -1</clus>
</clustering>
</event>
<event>
 9    1  0.3197504E-005  0.9158461E+02  0.7546771E-02  0.1305209E+00
         -2   -1    0    0    0  501 -0.00000000000E+00  0.00000000000E+00  0.23018837195E+03  0.23018837195E+03  0.00000000000E+00 0.  1.
         21   -1    0    0  501  502  0.00000000000E+00 -0.00000000000E+00 -0.92243986118E+02  0.92243986118E+02  0.00000000000E+00 0.  1.
        -24    2    1    2    0    0  0.20293777973E+02  0.44640838344E+02  0.67621079336E+02  0.11660808164E+03  0.81364565144E+02 0.  0.
         23    2    1    2    0    0  0.22484596724E+02  0.33478232856E+02  0.59464097599E+02  0.11609969203E+03  0.91196548300E+02 0.  0.
         13    1    3    3    0    0 -0.16392647046E+02  0.43682358592E+02  0.91064637412E+01  0.47537301261E+02  0.00000000000E+00 0. -1.
        -14    1    3    3    0    0  0.36686425019E+02  0.95847975257E+00  0.58514615594E+02  0.69070780380E+02  0.00000000000E+00 0.  1.
        -11    1    4    4    0    0 -0.32916375246E+02  0.23241322615E+02  0.39230442446E+02  0.56237660431E+02  0.00000000000E+00 0. -1.
         11    1    4    4    0    0  0.55400971971E+02  0.10236910241E+02  0.20233655152E+02  0.59862031601E+02  0.00000000000E+00 0.  1.
         -1    1    1    2    0  502 -0.42778374697E+02 -0.78119071201E+02  0.10859208898E+02  0.89724584395E+02  0.00000000000E+00 0.  1.
<scales pt_clust_5="13000.00000" pt_clust_6="13000.00000" pt_clust_7="13000.00000" pt_clust_8="13000.00000" pt_clust_9="89.06502"></scales>
<clustering>
<clus scale="   81.365">  5  6 -1 -1</clus>
<clus scale="   89.065">  2  9  1 -1</clus>
<clus scale="   81.799">  1  5  2 -1</clus>
<clus scale="   91.197">  7  8 -1 -1</clus>
<clus scale="   89.065">  2  5  1 -1</clus>
</clustering>
</event>
<event>
 9    1  0.3197504E-005  0.1351303E+03  0.7546771E-02  0.1241340E+00
         21   -1    0    0  501  502  0.00000000000E+00  0.00000000000E+00  0.51161003474E+02  0.51161003474E+02  0.00000000000E+00 0.  1.
         -2   -1    0    0    0  501 -0.00000000000E+00 -0.00000000000E+00 -0.66491405822E+03  0.66491405822E+03  0.00000000000E+00 0.  1.
        -24    2    1    2    0    0  0.18899808943E+02  0.27246794237E+02 -0.18213707806E+03  0.20188223321E+03  0.80516646151E+02 0.  0.
         23    2    1    2    0    0  0.51574271734E+02  0.52483483735E+02 -0.37690134907E+03  0.39453831019E+03  0.90506517494E+02 0.  0.
         11    1    3    3    0    0 -0.16447589701E+02  0.35227906248E+02 -0.42414790872E+02  0.57537318936E+02  0.00000000000E+00 0. -1.
        -12    1    3    3    0    0  0.35347398643E+02 -0.79811120118E+01 -0.13972228719E+03  0.14434491427E+03  0.00000000000E+00 0.  1.
        -13    1    4    4    0    0  0.66362386641E+02  0.66834015808E+02 -0.33261133136E+03  0.34568923873E+03  0.00000000000E+00 0.  1.
         13    1    4    4    0    0 -0.14788114907E+02 -0.14350532073E+02 -0.44290017712E+02  0.48849071457E+02  0.00000000000E+00 0. -1.
         -1    1    1    2    0  502 -0.70474080676E+02 -0.79730277971E+02 -0.54714627617E+02  0.11965451829E+03  0.00000000000E+00 0.  1.
<scales pt_clust_5="13000.00000" pt_clust_6="13000.00000" pt_clust_7="13000.00000" pt_clust_8="13000.00000" pt_clust_9="100.34325"></scales>
<clustering>
<clus scale="   80.517">  5  6 -1 -1</clus>
<clus scale="   87.078">  2  5  1 -1</clus>
<clus scale="   90.507">  7  8 -1 -1</clus>
<clus scale="  100.343">  1  9  2 -1</clus>
<clus scale="  100.343">  1  5  2 -1</clus>
</clustering>
</event>
<event>
 9    1  0.3197504E-005  0.1784989E+03  0.7546771E-02  0.1170541E+00
         21   -1    0    0  501  502  0.00000000000E+00  0.00000000000E+00  0.87438851149E+02  0.87438851149E+02  0.00000000000E+00 0.  1.
         -4   -1    0    0    0  501 -0.00000000000E+00 -0.00000000000E+00 -0.74943031090E+03  0.74943031090E+03  0.00000000000E+00 0.  1.
        -24    2    1    2    0    0 -0.60347236899E+02  0.14326247296E+03 -0.50864900629E+03  0.53765185170E+03  0.78611556905E+02 0.  0.
         23    2    1    2    0    0  0.99327976642E+02 -0.11974525979E+03 -0.49955817206E+02  0.18625114752E+03  0.89380826221E+02 0.  0.
         13    1    3    3    0    0  0.12218027915E+02  0.28542938362E+02 -0.45981237143E+02  0.55482012452E+02  0.00000000000E+00 0. -1.
        -14    1    3    3    0    0 -0.72565264813E+02  0.11471953460E+03 -0.46266776914E+03  0.48216983925E+03  0.00000000000E+00 0.  1.
        -11    1    4    4    0    0  0.34239521333E+02  0.87444500890E+01 -0.80502608467E+01  0.36243853660E+02  0.00000000000E+00 0. -1.
         11    1    4    4    0    0  0.65088455309E+02 -0.12848970987E+03 -0.41905556360E+02  0.15000729386E+03  0.00000000000E+00 0.  1.
         -3    1    1    2    0  502 -0.38980739743E+02 -0.23517213179E+02 -0.10338663626E+03  0.11296616282E+03  0.00000000000E+00 0.  1.
<scales pt_clust_5="13000.00000" pt_clust_6="13000.00000" pt_clust_7="13000.00000" pt_clust_8="13000.00000" pt_clust_9="45.52537"></scales>
<clustering>
<clus scale="   45.525">  1  9  2 -1</clus>
<clus scale="   78.612">  5  6 -1 -1</clus>
<clus scale="   89.381">  7  8 -1 -1</clus>
<clus scale="  173.357">  2  5  1 -1</clus>
<clus scale="   45.525">  1  5  2 -1</clus>
</clustering>
</event>
<event>
 9    1  0.3197504E-005  0.1051286E+03  0.7546771E-02  0.1275061E+00
         21   -1    0    0  501  502  0.00000000000E+00  0.00000000000E+00  0.17864514284E+03  0.17864514284E+03  0.00000000000E+00 0. -1.
          3   -1    0    0  502    0 -0.00000000000E+00 -0.00000000000E+00 -0.32775413488E+03  0.32775413488E+03  0.00000000000E+00 0. -1.
        -24    2    1    2    0    0  0.32895020281E+02  0.35929016653E+02 -0.23840606259E+03  0.25579545647E+03  0.78872607885E+02 0.  0.
         23    2    1    2    0    0 -0.46441700676E+02 -0.60209150084E+02 -0.34853415614E+02  0.12337811377E+03  0.90694129152E+02 0.  0.
         13    1    3    3    0    0  0.49502369507E+02 -0.27662207175E-01 -0.16650009465E+03  0.17370309978E+03  0.00000000000E+00 0. -1.
        -14    1    3    3    0    0 -0.16607349226E+02  0.35956678860E+02 -0.71905967939E+02  0.82092356697E+02  0.00000000000E+00 0.  1.
        -11    1    4    4    0    0 -0.20353651182E+02 -0.38590626847E+02  0.28093701903E+02  0.51891846021E+02  0.00000000000E+00 0.  1.
         11    1    4    4    0    0 -0.26088049495E+02 -0.21618523237E+02 -0.62947117517E+02  0.71486267752E+02  0.00000000000E+00 0. -1.
          4    1    1    2  501    0  0.13546680395E+02  0.24280133431E+02  0.12415048616E+03  0.12722570747E+03  0.00000000000E+00 0. -1.
<scales pt_clust_5="13000.00000" pt_clust_6="13000.00000" pt_clust_7="13000.00000" pt_clust_8="13000.00000" pt_clust_9="27.80355"></scales>
<clustering>
<clus scale="   27.804">  1  9  2 -1</clus>
<clus scale="   78.873">  5  6 -1 -1</clus>
<clus scale="   90.694">  7  8 -1 -1</clus>
<clus scale="   95.118">  2  5  1 -1</clus>
<clus scale="   27.804">  1  5  2 -1</clus>
</clustering>
</event>
<event>
 9    1  0.3197504E-005  0.1144345E+03  0.7546771E-02  0.1265989E+00
         -4   -1    0    0    0  501 -0.00000000000E+00  0.00000000000E+00  0.25384534706E+02  0.25384534706E+02  0.00000000000E+00 0.  1.
         21   -1    0    0  501  502  0.00000000000E+00 -0.00000000000E+00 -0.83781166624E+03  0.83781166624E+03  0.00000000000E+00 0.  1.
         23    2    1    2    0    0 -0.45077060146E+02  0.84076906341E+00 -0.21331005545E+03  0.24513629852E+03  0.11206237928E+03 0.  0.
        -24    2    1    2    0    0 -0.49858912662E+01 -0.18586080510E+02 -0.24460708393E+03  0.25959298663E+03  0.84767869512E+02 0.  0.
         13    1    4    4    0    0  0.36548365659E+02 -0.79389157845E+01 -0.16486730117E+03  0.16905631137E+03  0.00000000000E+00 0. -1.
        -14    1    4    4    0    0 -0.41534256925E+02 -0.10647164726E+02 -0.79739782753E+02  0.90536675268E+02  0.00000000000E+00 0.  1.
        -11    1    3    3    0    0 -0.15673701156E+02  0.48838776510E+02 -0.47038170411E+02  0.69595118180E+02  0.00000000000E+00 0. -1.
         11    1    3    3    0    0 -0.29403358990E+02 -0.47998007447E+02 -0.16627188504E+03  0.17554118034E+03  0.00000000000E+00 0.  1.
         -3    1    1    2    0  502  0.50062951413E+02  0.17745311447E+02 -0.35450999215E+03  0.35846691580E+03  0.00000000000E+00 0.  1.
<scales pt_clust_5="13000.00000" pt_clust_6="13000.00000" pt_clust_7="13000.00000" pt_clust_8="13000.00000" pt_clust_9="53.11492"></scales>
<clustering>
<clus scale="   53.115">  2  9  1 -1</clus>
<clus scale="   84.768">  5  6 -1 -1</clus>
<clus scale="   87.880">  2  5  1 -1</clus>
<clus scale="  112.062">  7  8 -1 -1</clus>
<clus scale="   53.115">  2  5  1 -1</clus>
</clustering>
</event>
<event>
 9    1  0.3197504E-005  0.1592623E+03  0.7546771E-02  0.1200359E+00
         21   -1    0    0  501  502  0.00000000000E+00  0.00000000000E+00  0.12203124969E+03  0.12203124969E+03  0.00000000000E+00 0. -1.
          1   -1    0    0  502    0 -0.00000000000E+00 -0.00000000000E+00 -0.56254297687E+03  0.56254297687E+03  0.00000000000E+00 0. -1.
         23    2    1    2    0    0 -0.79270316455E+02  0.28721847136E+02 -0.31429546855E+03  0.33847482361E+03  0.93138805536E+02 0.  0.
        -24    2    1    2    0    0  0.59994561790E+02  0.11801007018E+03 -0.12374219606E+03  0.19808612225E+03  0.80001603922E+02 0.  0.
         11    1    4    4    0    0  0.79948724608E+02  0.93739318271E+02 -0.10074142439E+03  0.15914676542E+03  0.00000000000E+00 0. -1.
        -12    1    4    4    0    0 -0.19954162817E+02  0.24270751912E+02 -0.23000771678E+02  0.38939356825E+02  0.00000000000E+00 0.  1.
        -13    1    3    3    0    0 -0.51688542014E+02 -0.98898370560E+01 -0.60082969519E+02  0.79871631251E+02  0.00000000000E+00 0.  1.
         13    1    3    3    0    0 -0.27581774442E+02  0.38611684192E+02 -0.25421249903E+03  0.25860319236E+03  0.00000000000E+00 0. -1.
          2    1    1    2  501    0  0.19275754665E+02 -0.14673191732E+03 -0.24740625737E+01  0.14801328070E+03  0.00000000000E+00 0. -1.
<scales pt_clust_5="13000.00000" pt_clust_6="13000.00000" pt_clust_7="13000.00000" pt_clust_8="13000.00000" pt_clust_9="137.71062"></scales>
<clustering>
<clus scale="   80.002">  5  6 -1 -1</clus>
<clus scale="   93.139">  7  8 -1 -1</clus>
<clus scale="  125.633">  2  7  1 -1</clus>
<clus scale="  137.711">  1  9  2 -1</clus>
<clus scale="  137.711">  1  5  2 -1</clus>
</clustering>
</event>
<event>
 9    1  0.3197504E-005  0.2283004E+03  0.7546771E-02  0.1127842E+00
          1   -1    0    0  502    0 -0.00000000000E+00  0.00000000000E+00  0.20718040079E+03  0.20718040079E+03  0.00000000000E+00 0. -1.
         21   -1    0    0  501  502  0.00000000000E+00 -0.00000000000E+00 -0.17652470535E+03  0.17652470535E+03  0.00000000000E+00 0. -1.
        -24    2    1    2    0    0  0.41392899133E+00 -0.75330021015E+02  0.45393887934E+02  0.11879773191E+03  0.79859330341E+02 0.  0.
         23    2    1    2    0    0  0.38303723039E+01 -0.71166765483E+02  0.10368886673E+02  0.11621410614E+03  0.91207589568E+02 0.  0.
         11    1    3    3    0    0  0.34447607350E+02 -0.63169442895E+02  0.20170795912E+02  0.74725344934E+02  0.00000000000E+00 0. -1.
        -12    1    3    3    0    0 -0.34033678359E+02 -0.12160578120E+02  0.25223092022E+02  0.44072386978E+02  0.00000000000E+00 0.  1.
        -11    1    4    4    0    0  0.35903804297E+02 -0.10271270330E+01 -0.82928751018E+01  0.36863395535E+02  0.00000000000E+00 0.  1.
         11    1    4    4    0    0 -0.32073431993E+02 -0.70139638450E+02  0.18661761775E+02  0.79350710609E+02  0.00000000000E+00 0. -1.
          2    1    1    2  501    0 -0.42443012953E+01  0.14649678650E+03 -0.25107079172E+02  0.14869326808E+03  0.00000000000E+00 0. -1.
<scales pt_clust_5="13000.00000" pt_clust_6="13000.00000" pt_clust_7="13000.00000" pt_clust_8="13000.00000" pt_clust_9="146.55826"></scales>
<clustering>
<clus scale="   79.859">  5  6 -1 -1</clus>
<clus scale="   91.208">  7  8 -1 -1</clus>
<clus scale="   96.744">  5  7 -1 -1</clus>
<clus scale="  146.558">  2  9  1 -1</clus>
<clus scale="  146.558">  2  5  1 -1</clus>
</clustering>
</event>
<event>
 9    1  0.3197504E-005  0.9530552E+02  0.7546771E-02  0.1295427E+00
          1   -1    0    0  502    0 -0.00000000000E+00  0.00000000000E+00  0.14143429570E+03  0.14143429570E+03  0.00000000000E+00 0. -1.
         21   -1    0    0  501  502  0.00000000000E+00 -0.00000000000E+00 -0.22609746425E+03  0.22609746425E+03  0.00000000000E+00 0.  1.
        -24    2    1    2    0    0  0.32442473053E+02  0.11365864721E+02  0.99528710404E+02  0.13311675455E+03  0.81439604665E+02 0.  0.
         23    2    1    2    0    0 -0.11472784830E+02  0.27461075998E+02 -0.92569889161E+02  0.13272012764E+03  0.90331126502E+02 0.  0.
         13    1    3    3    0    0  0.58131986539E+02  0.38448581330E+01  0.83826574040E+02  0.10208332532E+03  0.00000000000E+00 0. -1.
        -14    1    3    3    0    0 -0.25689513486E+02  0.75210065878E+01  0.15702136364E+02  0.31033429228E+02  0.00000000000E+00 0.  1.
        -13    1    4    4    0    0 -0.30481584906E+02  0.54266603995E+02 -0.59949754770E+02  0.86417384967E+02  0.00000000000E+00 0.  1.
         13    1    4    4    0    0  0.19008800075E+02 -0.26805527997E+02 -0.32620134391E+02  0.46302742674E+02  0.00000000000E+00 0. -1.
          2    1    1    2  501    0 -0.20969688222E+02 -0.38826940719E+02 -0.91621989792E+02  0.10169487776E+03  0.00000000000E+00 0. -1.
<scales pt_clust_5="13000.00000" pt_clust_6="13000.00000" pt_clust_7="13000.00000" pt_clust_8="13000.00000" pt_clust_9="44.12776"></scales>
<clustering>
<clus scale="   44.128">  2  9  1 -1</clus>
<clus scale="   81.440">  5  6 -1 -1</clus>
<clus scale="   86.924">  1  5  2 -1</clus>
<clus scale="   90.331">  7  8 -1 -1</clus>
<clus scale="   44.128">  2  5  1 -1</clus>
</clustering>
</event>
<event>
 9    1  0.3197504E-005  0.8919384E+02  0.7546771E-02  0.1305927E+00
         21   -1    0    0  501  502  0.00000000000E+00  0.00000000000E+00  0.13369795773E+03  0.13369795773E+03  0.00000000000E+00 0.  1.
         -2   -1    0    0    0  501 -0.00000000000E+00 -0.00000000000E+00 -0.84681285717E+02  0.84681285717E+02  0.00000000000E+00 0.  1.
         23    2    1    2    0    0  0.15165064237E+02 -0.30324870757E+02 -0.17549663590E+02  0.92754760673E+02  0.84533295071E+02 0.  0.
        -24    2    1    2    0    0  0.28665215639E+01  0.20601447735E+02  0.47111100146E+02  0.97372239883E+02  0.82639341407E+02 0.  0.
         11    1    4    4    0    0  0.30982962036E+02 -0.15436376505E+02  0.45437342082E+01  0.34912335595E+02  0.00000000000E+00 0. -1.
        -12    1    4    4    0    0 -0.28116440472E+02  0.36037824241E+02  0.42567365938E+02  0.62459904288E+02  0.00000000000E+00 0.  1.
        -13    1    3    3    0    0  0.35065383888E+02  0.11832420028E+02 -0.26196467676E+02  0.45341396423E+02  0.00000000000E+00 0.  1.
         13    1    3    3    0    0 -0.19900319651E+02 -0.42157290785E+02  0.86468040865E+01  0.47413364249E+02  0.00000000000E+00 0. -1.
         -1    1    1    2    0  502 -0.18031585801E+02  0.97234230219E+01  0.19455235459E+02  0.28252242894E+02  0.00000000000E+00 0.  1.
<scales pt_clust_5="13000.00000" pt_clust_6="13000.00000" pt_clust_7="13000.00000" pt_clust_8="13000.00000" pt_clust_9="20.48617"></scales>
<clustering>
<clus scale="   20.486">  1  9  2 -1</clus>
<clus scale="   82.639">  5  6 -1 -1</clus>
<clus scale="   84.533">  7  8 -1 -1</clus>
<clus scale="   87.401">  1  5  2 -1</clus>
<clus scale="   20.486">  1  5  2 -1</clus>
</clustering>
</event>
<event>
 9    1  0.3197504E-005  0.1014806E+03  0.7546771E-02  0.1282885E+00
          1   -1    0    0  502    0 -0.00000000000E+00  0.00000000000E+00  0.85080851862E+02  0.85080851862E+02  0.00000000000E+00 0. -1.
         21   -1    0    0  501  502  0.00000000000E+00 -0.00000000000E+00 -0.23176482122E+03  0.23176482122E+03  0.00000000000E+00 0. -1.
        -24    2    1    2    0    0 -0.46387918781E+02  0.49070970562E+02 -0.16124157564E+02  0.10600721565E+03  0.80110811703E+02 0.  0.
         23    2    1    2    0    0  0.77335056940E+01  0.95167032780E+01 -0.93076594250E+02  0.13126666108E+03  0.91745894530E+02 0.  0.
         11    1    3    3    0    0 -0.13860606584E+01  0.54647985874E+02  0.69887468188E+01  0.55110489984E+02  0.00000000000E+00 0. -1.
        -12    1    3    3    0    0 -0.45001858123E+02 -0.55770153124E+01 -0.23112904383E+02  0.50896725664E+02  0.00000000000E+00 0.  1.
        -13    1    4    4    0    0  0.19169849594E+02 -0.26794098492E+02 -0.86593961468E+02  0.92649452293E+02  0.00000000000E+00 0. -1.
         13    1    4    4    0    0 -0.11436343900E+02  0.36310801770E+02 -0.64826327825E+01  0.38617208791E+02  0.00000000000E+00 0.  1.
          2    1    1    2  501    0  0.38654413087E+02 -0.58587673840E+02 -0.37483217545E+02  0.79571796351E+02  0.00000000000E+00 0. -1.
<scales pt_clust_5="13000.00000" pt_clust_6="13000.00000" pt_clust_7="13000.00000" pt_clust_8="13000.00000" pt_clust_9="70.19031"></scales>
<clustering>
<clus scale="   70.190">  2  9  1 -1</clus>
<clus scale="   80.111">  5  6 -1 -1</clus>
<clus scale="   91.097">  1  5  2 -1</clus>
<clus scale="   91.746">  7  8 -1 -1</clus>
<clus scale="   70.190">  2  5  1 -1</clus>
</clustering>
</event>
<event>
 9    1  0.3197504E-005  0.9977939E+02  0.7546771E-02  0.1288193E+00
         -2   -1    0    0    0  501 -0.00000000000E+00  0.00000000000E+00  0.22882815181E+03  0.22882815181E+03  0.00000000000E+00 0.  1.
         21   -1    0    0  501  502  0.00000000000E+00 -0.00000000000E+00 -0.85271012510E+02  0.85271012510E+02  0.00000000000E+00 0. -1.
        -24    2    1    2    0    0 -0.20465421967E+02  0.17557370493E+02  0.13983180302E+03  0.16340111802E+03  0.80124262734E+02 0.  0.
         23    2    1    2    0    0  0.39183006403E+02 -0.38977024607E+02  0.28689129996E+02  0.11285177110E+03  0.94116627772E+02 0.  0.
         13    1    3    3    0    0  0.83229189289E+00 -0.30213558719E+02  0.34990202491E+02  0.46237064252E+02  0.00000000000E+00 0. -1.
        -14    1    3    3    0    0 -0.21297713860E+02  0.47770929211E+02  0.10484160053E+03  0.11716405377E+03  0.00000000000E+00 0.  1.
        -13    1    4    4    0    0  0.55699458838E+02 -0.12648690580E+02 -0.15169076857E+02  0.59097546319E+02  0.00000000000E+00 0.  1.
         13    1    4    4    0    0 -0.16516452435E+02 -0.26328334027E+02  0.43858206853E+02  0.53754224784E+02  0.00000000000E+00 0. -1.
         -1    1    1    2    0  502 -0.18717584436E+02  0.21419654114E+02 -0.24963793719E+02  0.37846275198E+02  0.00000000000E+00 0.  1.
<scales pt_clust_5="13000.00000" pt_clust_6="13000.00000" pt_clust_7="13000.00000" pt_clust_8="13000.00000" pt_clust_9="28.44555"></scales>
<clustering>
<clus scale="   28.446">  2  9  1 -1</clus>
<clus scale="   80.124">  5  6 -1 -1</clus>
<clus scale="   86.706">  1  5  2 -1</clus>
<clus scale="   94.117">  7  8 -1 -1</clus>
<clus scale="   28.446">  2  5  1 -1</clus>
</clustering>
</event>
<event>
 9    1  0.3197504E-005  0.1065784E+03  0.7546771E-02  0.1272213E+00
         21   -1    0    0  501  502  0.00000000000E+00  0.00000000000E+00  0.25570827355E+02  0.25570827355E+02  0.00000000000E+00 0. -1.
          1   -1    0    0  502    0 -0.00000000000E+00 -0.00000000000E+00 -0.60046501405E+03  0.60046501405E+03  0.00000000000E+00 0. -1.
         23    2    1    2    0    0  0.51660349188E+02 -0.45274094555E+02 -0.29033370400E+03  0.31190394700E+03  0.90949860685E+02 0.  0.
        -24    2    1    2    0    0 -0.11069036669E+02  0.46644355890E+02 -0.18956001459E+03  0.21081383593E+03  0.78811514244E+02 0.  0.
         13    1    4    4    0    0 -0.38334066066E+01  0.66434710980E+02 -0.11046762431E+03  0.12896263742E+03  0.00000000000E+00 0. -1.
        -14    1    4    4    0    0 -0.72356300619E+01 -0.19790355090E+02 -0.79092390282E+02  0.81851198510E+02  0.00000000000E+00 0.  1.
        -11    1    3    3    0    0  0.50612518001E+02 -0.16593089594E+02 -0.27348555419E+03  0.27862395079E+03  0.00000000000E+00 0. -1.
         11    1    3    3    0    0  0.10478311872E+01 -0.28681004961E+02 -0.16848149805E+02  0.33279996208E+02  0.00000000000E+00 0.  1.
          2    1    1    2  501    0 -0.40591312519E+02 -0.13702613347E+01 -0.95000468103E+02  0.10331805848E+03  0.00000000000E+00 0. -1.
<scales pt_clust_5="13000.00000" pt_clust_6="13000.00000" pt_clust_7="13000.00000" pt_clust_8="13000.00000" pt_clust_9="40.61445"></scales>
<clustering>
<clus scale="   40.614">  1  9  2 -1</clus>
<clus scale="   78.812">  5  6 -1 -1</clus>
<clus scale="   90.950">  7  8 -1 -1</clus>
<clus scale="   96.428">  1  5  2 -1</clus>
<clus scale="   40.614">  1  5  2 -1</clus>
</clustering>
</event>
<event>
 9    1  0.3197504E-005  0.1484780E+03  0.7546771E-02  0.1205660E+00
         -2   -1    0    0    0  501 -0.00000000000E+00  0.00000000000E+00  0.21355871678E+03  0.21355871678E+03  0.00000000000E+00 0.  1.
         21   -1    0    0  501  502  0.00000000000E+00 -0.00000000000E+00 -0.11393119800E+03  0.11393119800E+03  0.00000000000E+00 0.  1.
         23    2    1    2    0    0  0.70977494389E+02 -0.10138744135E+03  0.70693974893E+02  0.17118707166E+03  0.94816440781E+02 0.  0.
        -24    2    1    2    0    0 -0.50494761315E+02  0.91717174635E+02  0.28986283945E+02  0.13365203312E+03  0.77851783902E+02 0.  0.
         13    1    4    4    0    0 -0.50320630778E+02  0.22536903988E+02 -0.71562006616E+01  0.55599362686E+02  0.00000000000E+00 0. -1.
        -14    1    4    4    0    0 -0.17413053794E+00  0.69180270647E+02  0.36142484607E+02  0.78052670433E+02  0.00000000000E+00 0.  1.
        -13    1    3    3    0    0  0.59405162920E+02 -0.59087226517E+02 -0.47514980567E+01  0.83921692385E+02  0.00000000000E+00 0.  1.
         13    1    3    3    0    0  0.11572331469E+02 -0.42300214833E+02  0.75445472950E+02  0.87265379270E+02  0.00000000000E+00 0. -1.
         -1    1    1    2    0  502 -0.20482733074E+02  0.96702667153E+01 -0.52740062864E-01  0.22650810008E+02  0.00000000000E+00 0.  1.
<scales pt_clust_5="13000.00000" pt_clust_6="13000.00000" pt_clust_7="13000.00000" pt_clust_8="13000.00000" pt_clust_9="22.65075"></scales>
<clustering>
<clus scale="   22.651">  2  9  1 -1</clus>
<clus scale="   77.852">  5  6 -1 -1</clus>
<clus scale="   94.816">  7  8 -1 -1</clus>
<clus scale="  138.262">  2  5  1 -1</clus>
<clus scale="   22.651">  2  5  1 -1</clus>
</clustering>
</event>
<event>
 9    1  0.3197504E-005  0.3740585E+03  0.7546771E-02  0.1108892E+00
         21   -1    0    0  501  502  0.00000000000E+00  0.00000000000E+00  0.45305513771E+03  0.45305513771E+03  0.00000000000E+00 0. -1.
          3   -1    0    0  502    0 -0.00000000000E+00 -0.00000000000E+00 -0.43611390471E+03  0.43611390471E+03  0.00000000000E+00 0. -1.
        -24    2    1    2    0    0 -0.15909974327E+02 -0.92067985663E+01  0.24960021959E+01  0.83532277699E+02  0.81446417771E+02 0.  0.
         23    2    1    2    0    0 -0.30000336101E+03 -0.19302642792E+03  0.16185056685E+03  0.40261338272E+03  0.92955427279E+02 0.  0.
         11    1    3    3    0    0 -0.27564467235E+02 -0.26093100708E+02 -0.27725686154E+02  0.47003866131E+02  0.00000000000E+00 0. -1.
        -12    1    3    3    0    0  0.11654492908E+02  0.16886302142E+02  0.30221688350E+02  0.36528411568E+02  0.00000000000E+00 0.  1.
        -13    1    4    4    0    0 -0.52391916012E+02 -0.68146256095E+02  0.10267761470E+02  0.86569347975E+02  0.00000000000E+00 0.  1.
         13    1    4    4    0    0 -0.24761144500E+03 -0.12488017182E+03  0.15158280538E+03  0.31604403475E+03  0.00000000000E+00 0. -1.
          4    1    1    2  501    0  0.31591333534E+03  0.20223322648E+03 -0.14740533606E+03  0.40302338200E+03  0.00000000000E+00 0. -1.
<scales pt_clust_5="13000.00000" pt_clust_6="13000.00000" pt_clust_7="13000.00000" pt_clust_8="13000.00000" pt_clust_9="362.32464"></scales>
<clustering>
<clus scale="   81.446">  5  6 -1 -1</clus>
<clus scale="   83.495">  2  5  1 -1</clus>
<clus scale="   92.955">  7  8 -1 -1</clus>
<clus scale="  362.325">  1  9  2 -1</clus>
<clus scale="  362.325">  1  5  2 -1</clus>
</clustering>
</event>
<event>
 9    1  0.3197504E-005  0.1005988E+03  0.7546771E-02  0.1285726E+00
          1   -1    0    0  502    0 -0.00000000000E+00  0.00000000000E+00  0.32980901716E+03  0.32980901716E+03  0.00000000000E+00 0. -1.
         21   -1    0    0  501  502  0.00000000000E+00 -0.00000000000E+00 -0.84793601843E+02  0.84793601843E+02  0.00000000000E+00 0. -1.
        -24    2    1    2    0    0 -0.45804349536E+02 -0.40626811016E+02  0.16297122668E+03  0.19148840881E+03  0.79747186631E+02 0.  0.
         23    2    1    2    0    0  0.24269062034E+02 -0.34135403380E+02  0.10054874828E+03  0.14314186474E+03  0.92872652187E+02 0.  0.
         13    1    3    3    0    0 -0.14126176909E+02 -0.61113250274E+02  0.10564207358E+03  0.12286018860E+03  0.00000000000E+00 0. -1.
        -14    1    3    3    0    0 -0.31678172628E+02  0.20486439258E+02  0.57329153095E+02  0.68628220210E+02  0.00000000000E+00 0.  1.
        -11    1    4    4    0    0 -0.31858337130E+02 -0.25705181332E+02  0.22725571484E+02  0.46820525320E+02  0.00000000000E+00 0.  1.
         11    1    4    4    0    0  0.56127399164E+02 -0.84302220486E+01  0.77823176797E+02  0.96321339419E+02  0.00000000000E+00 0. -1.
          2    1    1    2  501    0  0.21535287502E+02  0.74762214396E+02 -0.18504559642E+02  0.79972345450E+02  0.00000000000E+00 0. -1.
<scales pt_clust_5="13000.00000" pt_clust_6="13000.00000" pt_clust_7="13000.00000" pt_clust_8="13000.00000" pt_clust_9="77.80204"></scales>
<clustering>
<clus scale="   77.802">  2  9  1 -1</clus>
<clus scale="   79.747">  5  6 -1 -1</clus>
<clus scale="   88.625">  1  5  2 -1</clus>
<clus scale="   92.873">  7  8 -1 -1</clus>
<clus scale="   77.802">  2  5  1 -1</clus>
</clustering>
</event>
<event>
 9    1  0.3197504E-005  0.1260423E+03  0.7546771E-02  0.1243155E+00
         21   -1    0    0  501  502  0.00000000000E+00  0.00000000000E+00  0.16443966881E+03  0.16443966881E+03  0.00000000000E+00 0. -1.
         -2   -1    0    0    0  501 -0.00000000000E+00 -0.00000000000E+00 -0.11911884164E+03  0.11911884164E+03  0.00000000000E+00 0.  1.
         23    2    1    2    0    0  0.38984284099E+02 -0.75357145093E+02 -0.65471526454E+01  0.13672446127E+03  0.10701513621E+03 0.  0.
        -24    2    1    2    0    0 -0.29455117628E+02  0.42301957972E+02  0.13685009718E+02  0.95439597976E+02  0.79147822257E+02 0.  0.
         13    1    4    4    0    0 -0.47541128342E+01  0.34786675776E+02  0.43563675144E+02  0.55950944517E+02  0.00000000000E+00 0. -1.
        -14    1    4    4    0    0 -0.24701004794E+02  0.75152821967E+01 -0.29878665426E+02  0.39488653458E+02  0.00000000000E+00 0.  1.
        -13    1    3    3    0    0  0.30651317895E+02  0.22576982258E+02 -0.52412890251E+01  0.38427783272E+02  0.00000000000E+00 0.  1.
         13    1    3    3    0    0  0.83329662042E+01 -0.97934127351E+02 -0.13058636203E+01  0.98296677998E+02  0.00000000000E+00 0. -1.
         -1    1    1    2    0  502 -0.95291664707E+01  0.33055187121E+02  0.38182970103E+02  0.51394451209E+02  0.00000000000E+00 0.  1.
<scales pt_clust_5="13000.00000" pt_clust_6="13000.00000" pt_clust_7="13000.00000" pt_clust_8="13000.00000" pt_clust_9="34.40131"></scales>
<clustering>
<clus scale="   34.401">  1  9  2 -1</clus>
<clus scale="   79.148">  5  6 -1 -1</clus>
<clus scale="  103.435">  1  5  2 -1</clus>
<clus scale="  107.015">  7  8 -1 -1</clus>
<clus scale="   34.401">  1  5  2 -1</clus>
</clustering>
</event>
<event>
 9    1  0.3197504E-005  0.1774986E+03  0.7546771E-02  0.1179730E+00
         -2   -1    0    0    0  501 -0.00000000000E+00  0.00000000000E+00  0.94716840469E+03  0.94716840469E+03  0.00000000000E+00 0.  1.
         21   -1    0    0  501  502  0.00000000000E+00 -0.00000000000E+00 -0.69392446106E+02  0.69392446106E+02  0.00000000000E+00 0.  1.
         23    2    1    2    0    0 -0.76296193869E+02  0.79498957031E+02  0.23324931281E+03  0.27367521962E+03  0.91387584163E+02 0.  0.
        -24    2    1    2    0    0 -0.11836591764E+03 -0.89414650792E+02  0.23255064454E+03  0.28712705009E+03  0.79728729988E+02 0.  0.
         11    1    4    4    0    0  0.52071795788E+01 -0.23534113989E+02  0.14961529323E+02  0.28369289736E+02  0.00000000000E+00 0. -1.
        -12    1    4    4    0    0 -0.12357309721E+03 -0.65880536803E+02  0.21758911522E+03  0.25875776036E+03  0.00000000000E+00 0.  1.
        -13    1    3    3    0    0 -0.70497229110E+02  0.55839242229E+02  0.23251822382E+03  0.24930424122E+03  0.00000000000E+00 0.  1.
         13    1    3    3    0    0 -0.57989647586E+01  0.23659714802E+02  0.73108899242E+00  0.24370978395E+02  0.00000000000E+00 0. -1.
         -1    1    1    2    0  502  0.19466211150E+03  0.99156937615E+01  0.41197600124E+03  0.45575858109E+03  0.00000000000E+00 0.  1.
<scales pt_clust_5="13000.00000" pt_clust_6="13000.00000" pt_clust_7="13000.00000" pt_clust_8="13000.00000" pt_clust_9="158.58470"></scales>
<clustering>
<clus scale="   79.729">  5  6 -1 -1</clus>
<clus scale="   91.388">  7  8 -1 -1</clus>
<clus scale="  143.153">  1  7  2 -1</clus>
<clus scale="  158.585">  2  9  1 -1</clus>
<clus scale="  158.585">  2  5  1 -1</clus>
</clustering>
</event>
<event>
 9    1  0.3197504E-005  0.1023124E+03  0.7546771E-02  0.1280684E+00
         21   -1    0    0  501  502  0.00000000000E+00  0.00000000000E+00  0.25905380748E+03  0.25905380748E+03  0.00000000000E+00 0.  1.
          3   -1    0    0  502    0 -0.00000000000E+00 -0.00000000000E+00 -0.15370671251E+03  0.15370671251E+03  0.00000000000E+00 0. -1.
        -24    2    1    2    0    0 -0.44227915617E+02  0.15041589760E+02 -0.67292529546E+02  0.11490188626E+03  0.80571713349E+02 0.  0.
         23    2    1    2    0    0  0.48153018588E+02  0.15379188250E+02 -0.16879029238E+02  0.10587386796E+03  0.91483012945E+02 0.  0.
         11    1    3    3    0    0 -0.49156151813E+02  0.33216003877E+02 -0.74059897003E+02  0.94892036119E+02  0.00000000000E+00 0. -1.
        -12    1    3    3    0    0  0.49282361959E+01 -0.18174414118E+02  0.67673674575E+01  0.20009850145E+02  0.00000000000E+00 0.  1.
        -13    1    4    4    0    0  0.34373178259E+02 -0.19687518918E+02  0.27075508400E+02  0.47981214448E+02  0.00000000000E+00 0.  1.
         13    1    4    4    0    0  0.13779840329E+02  0.35066707169E+02 -0.43954537639E+02  0.57892653508E+02  0.00000000000E+00 0. -1.
          4    1    1    2  501    0 -0.39251029705E+01 -0.30420778010E+02  0.18951865376E+03  0.19198476577E+03  0.00000000000E+00 0. -1.
<scales pt_clust_5="13000.00000" pt_clust_6="13000.00000" pt_clust_7="13000.00000" pt_clust_8="13000.00000" pt_clust_9="30.67295"></scales>
<clustering>
<clus scale="   30.673">  1  9  2 -1</clus>
<clus scale="   80.572">  5  6 -1 -1</clus>
<clus scale="   91.483">  7  8 -1 -1</clus>
<clus scale="   92.685">  2  5  1 -1</clus>
<clus scale="   30.673">  1  5  2 -1</clus>
</clustering>
</event>
<event>
 9    1  0.3197504E-005  0.9737927E+02  0.7546771E-02  0.1287044E+00
         21   -1    0    0  501  502  0.00000000000E+00  0.00000000000E+00  0.42035395872E+02  0.42035395872E+02  0.00000000000E+00 0.  1.
         -2   -1    0    0    0  501 -0.00000000000E+00 -0.00000000000E+00 -0.46019330442E+03  0.46019330442E+03  0.00000000000E+00 0.  1.
        -24    2    1    2    0    0 -0.55274677790E+02  0.97009930359E+01 -0.34989127523E+03  0.36355203716E+03  0.81220563722E+02 0.  0.
         23    2    1    2    0    0  0.23339364012E+02 -0.15466191956E+02 -0.47921841797E+02  0.10037506621E+03  0.83634454555E+02 0.  0.
         13    1    3    3    0    0 -0.45453938177E+02  0.26912805757E+02 -0.10197012917E+03  0.11484017961E+03  0.00000000000E+00 0. -1.
        -14    1    3    3    0    0 -0.98207396129E+01 -0.17211812721E+02 -0.24792114606E+03  0.24871185756E+03  0.00000000000E+00 0.  1.
        -13    1    4    4    0    0  0.42222449917E+02 -0.24062641578E+02 -0.59333883306E+02  0.76695864979E+02  0.00000000000E+00 0. -1.
         13    1    4    4    0    0 -0.18883085905E+02  0.85964496219E+01  0.11412041509E+02  0.23679201228E+02  0.00000000000E+00 0.  1.
         -1    1    1    2    0  502  0.31935313778E+02  0.57651989204E+01 -0.20344791516E+02  0.38301596918E+02  0.00000000000E+00 0.  1.
<scales pt_clust_5="13000.00000" pt_clust_6="13000.00000" pt_clust_7="13000.00000" pt_clust_8="13000.00000" pt_clust_9="32.45153"></scales>
<clustering>
<clus scale="   32.452">  1  9  2 -1</clus>
<clus scale="   81.221">  5  6 -1 -1</clus>
<clus scale="   83.634">  7  8 -1 -1</clus>
<clus scale="   95.314">  2  5  1 -1</clus>
<clus scale="   32.452">  1  5  2 -1</clus>
</clustering>
</event>
<event>
 9    1  0.3306476E-005  0.9280220E+02  0.7546771E-02  0.1301688E+00
          3   -1    0    0  502    0 -0.00000000000E+00  0.00000000000E+00  0.25642039914E+03  0.25642039914E+03  0.00000000000E+00 0. -1.
         21   -1    0    0  501  502  0.00000000000E+00 -0.00000000000E+00 -0.49560114714E+03  0.49560114714E+03  0.00000000000E+00 0. -1.
         23    2    1    2    0    0 -0.20162914029E+02 -0.89546345192E+01  0.15053338247E+03  0.17779609577E+03  0.92002303518E+02 0.  0.
        -24    2    1    2    0    0 -0.25544108742E+02 -0.52927215612E+02  0.59942027963E+02  0.11803562585E+03  0.82979338456E+02 0.  0.
         13    1    4    4    0    0 -0.46578934769E+02 -0.61108958342E+02  0.56108581315E+02  0.95142392502E+02  0.00000000000E+00 0. -1.
        -14    1    4    4    0    0  0.21034826027E+02  0.81817427300E+01  0.38334466482E+01  0.22893233352E+02  0.00000000000E+00 0.  1.
        -13    1    3    3    0    0  0.27727816392E+02  0.98301195054E+01  0.10517541402E+03  0.10921231966E+03  0.00000000000E+00 0.  1.
         13    1    3    3    0    0 -0.47890730420E+02 -0.18784754025E+02  0.45357968452E+02  0.68583776114E+02  0.00000000000E+00 0. -1.
          4    1    1    2  501    0  0.45707022770E+02  0.61881850131E+02 -0.44965615843E+03  0.45618982466E+03  0.00000000000E+00 0. -1.
<scales pt_clust_5="13000.00000" pt_clust_6="13000.00000" pt_clust_7="13000.00000" pt_clust_8="13000.00000" pt_clust_9="76.93176"></scales>
<clustering>
<clus scale="   76.932">  2  9  1 -1</clus>
<clus scale="   82.979">  5  6 -1 -1</clus>
<clus scale="   83.865">  2  5  1 -1</clus>
<clus scale="   92.002">  7  8 -1 -1</clus>
<clus scale="   76.932">  2  5  1 -1</clus>
</clustering>
</event>
<event>
 9    1  0.3197504E-005  0.9637850E+02  0.7546771E-02  0.1298137E+00
          1   -1    0    0  502    0 -0.00000000000E+00  0.00000000000E+00  0.12350142198E+03  0.12350142198E+03  0.00000000000E+00 0. -1.
         21   -1    0    0  501  502  0.00000000000E+00 -0.00000000000E+00 -0.41833215421E+03  0.41833215421E+03  0.00000000000E+00 0. -1.
        -24    2    1    2    0    0 -0.92529941902E+01 -0.17013852709E+02  0.50526198871E+02  0.93483095036E+02  0.76230592282E+02 0.  0.
         23    2    1    2    0    0 -0.36032386463E+02  0.43169949069E+02 -0.10532266621E+02  0.10946633720E+03  0.93327235908E+02 0.  0.
         11    1    3    3    0    0 -0.29729059252E+02 -0.35403823671E+02  0.46671815317E+02  0.65692511290E+02  0.00000000000E+00 0. -1.
        -12    1    3    3    0    0  0.20476065062E+02  0.18389970962E+02  0.38543835542E+01  0.27790583747E+02  0.00000000000E+00 0.  1.
        -11    1    4    4    0    0  0.26504110518E+02  0.24633742150E+02  0.15333722662E+02  0.39299009877E+02  0.00000000000E+00 0.  1.
         11    1    4    4    0    0 -0.62536496981E+02  0.18536206920E+02 -0.25865989282E+02  0.70167327320E+02  0.00000000000E+00 0. -1.
          2    1    1    2  501    0  0.45285380653E+02 -0.26156096361E+02 -0.33482466448E+03  0.33888414395E+03  0.00000000000E+00 0. -1.
<scales pt_clust_5="13000.00000" pt_clust_6="13000.00000" pt_clust_7="13000.00000" pt_clust_8="13000.00000" pt_clust_9="52.29634"></scales>
<clustering>
<clus scale="   52.296">  2  9  1 -1</clus>
<clus scale="   76.231">  5  6 -1 -1</clus>
<clus scale="   79.937">  1  5  2 -1</clus>
<clus scale="   93.327">  7  8 -1 -1</clus>
<clus scale="   52.296">  2  5  1 -1</clus>
</clustering>
</event>
<event>
 9    1  0.3197504E-005  0.9826383E+02  0.7546771E-02  0.1286280E+00
          1   -1    0    0  502    0 -0.00000000000E+00  0.00000000000E+00  0.19842322757E+03  0.19842322757E+03  0.00000000000E+00 0. -1.
         21   -1    0    0  501  502  0.00000000000E+00 -0.00000000000E+00 -0.10391958830E+03  0.10391958830E+03  0.00000000000E+00 0. -1.
         23    2    1    2    0    0 -0.36427136743E+02  0.18250028818E+02  0.12064987800E+03  0.15405852431E+03  0.86704302132E+02 0.  0.
        -24    2    1    2    0    0  0.44103583718E+02 -0.54139833109E+02 -0.98444149092E+01  0.10812516619E+03  0.81962744181E+02 0.  0.
         11    1    4    4    0    0  0.62357196428E+02 -0.19837860768E+02 -0.19128122830E+02  0.68175110922E+02  0.00000000000E+00 0. -1.
        -12    1    4    4    0    0 -0.18253612710E+02 -0.34301972341E+02  0.92837079212E+01  0.39950055272E+02  0.00000000000E+00 0.  1.
        -11    1    3    3    0    0 -0.16313246441E+02  0.28231500794E+02  0.13180168970E+01  0.32632450338E+02  0.00000000000E+00 0.  1.
         11    1    3    3    0    0 -0.20113890302E+02 -0.99814719764E+01  0.11933186111E+03  0.12142607398E+03  0.00000000000E+00 0. -1.
          2    1    1    2  501    0 -0.76764469752E+01  0.35889804291E+02 -0.16301823821E+02  0.40159125365E+02  0.00000000000E+00 0. -1.
<scales pt_clust_5="13000.00000" pt_clust_6="13000.00000" pt_clust_7="13000.00000" pt_clust_8="13000.00000" pt_clust_9="36.70158"></scales>
<clustering>
<clus scale="   36.702">  2  9  1 -1</clus>
<clus scale="   81.963">  5  6 -1 -1</clus>
<clus scale="   86.704">  7  8 -1 -1</clus>
<clus scale="   94.107">  2  5  1 -1</clus>
<clus scale="   36.702">  2  5  1 -1</clus>
</clustering>
</event>
<event>
 9    1  0.3197504E-005  0.9356600E+02  0.7546771E-02  0.1299963E+00
         21   -1    0    0  501  502  0.00000000000E+00  0.00000000000E+00  0.42264447864E+03  0.42264447864E+03  0.00000000000E+00 0.  1.
          1   -1    0    0  502    0 -0.00000000000E+00 -0.00000000000E+00 -0.28864119703E+02  0.28864119703E+02  0.00000000000E+00 0. -1.
         23    2    1    2    0    0 -0.49355064877E+01 -0.25100128225E+02  0.13891119519E+03  0.16820339633E+03  0.91332834876E+02 0.  0.
        -24    2    1    2    0    0 -0.14197146006E+02  0.12169087876E+02  0.24340810729E+03  0.25752486045E+03  0.81987202667E+02 0.  0.
         11    1    4    4    0    0 -0.28170158871E+02  0.26542084020E+02  0.50740339683E+02  0.63817099167E+02  0.00000000000E+00 0. -1.
        -12    1    4    4    0    0  0.13973012865E+02 -0.14372996144E+02  0.19266776761E+03  0.19370776129E+03  0.00000000000E+00 0.  1.
        -11    1    3    3    0    0  0.31905864099E+02  0.18826356063E+02  0.62849179930E+02  0.72955022201E+02  0.00000000000E+00 0. -1.
         11    1    3    3    0    0 -0.36841370587E+02 -0.43926484288E+02  0.76062015261E+02  0.95248374129E+02  0.00000000000E+00 0.  1.
          2    1    1    2  501    0  0.19132652493E+02  0.12931040349E+02  0.11461056455E+02  0.25780341561E+02  0.00000000000E+00 0. -1.
<scales pt_clust_5="13000.00000" pt_clust_6="13000.00000" pt_clust_7="13000.00000" pt_clust_8="13000.00000" pt_clust_9="23.09266"></scales>
<clustering>
<clus scale="   23.093">  1  9  2 -1</clus>
<clus scale="   81.987">  5  6 -1 -1</clus>
<clus scale="   84.468">  1  5  2 -1</clus>
<clus scale="   91.333">  7  8 -1 -1</clus>
<clus scale="   23.093">  1  5  2 -1</clus>
</clustering>
</event>
<event>
 9    1  0.3197504E-005  0.2354048E+03  0.7546771E-02  0.1141577E+00
          1   -1    0    0  502    0 -0.00000000000E+00  0.00000000000E+00  0.56126507313E+03  0.56126507313E+03  0.00000000000E+00 0. -1.
         21   -1    0    0  501  502  0.00000000000E+00 -0.00000000000E+00 -0.22874946815E+03  0.22874946815E+03  0.00000000000E+00 0. -1.
        -24    2    1    2    0    0 -0.56332972418E+01 -0.12466803899E+03 -0.38342340824E+02  0.15389676484E+03  0.81487576637E+02 0.  0.
         23    2    1    2    0    0  0.21525703160E+03  0.34932467716E+01  0.59982446498E+02  0.24207587977E+03  0.93032495671E+02 0.  0.
         13    1    3    3    0    0  0.33686820369E+01 -0.11906875853E+03 -0.53428001847E+01  0.11923616394E+03  0.00000000000E+00 0. -1.
        -14    1    3    3    0    0 -0.90019792787E+01 -0.55992804545E+01 -0.32999540639E+02  0.34660600902E+02  0.00000000000E+00 0.  1.
        -11    1    4    4    0    0  0.17194881906E+02 -0.16567568983E+02 -0.16272653504E+02  0.28895459122E+02  0.00000000000E+00 0.  1.
         11    1    4    4    0    0  0.19806214969E+03  0.20060815755E+02  0.76255100003E+02  0.21318042064E+03  0.00000000000E+00 0. -1.
          2    1    1    2  501    0 -0.20962373436E+03  0.12117479221E+03  0.31087549930E+03  0.39404189668E+03  0.00000000000E+00 0. -1.
<scales pt_clust_5="13000.00000" pt_clust_6="13000.00000" pt_clust_7="13000.00000" pt_clust_8="13000.00000" pt_clust_9="216.24157"></scales>
<clustering>
<clus scale="   81.488">  5  6 -1 -1</clus>
<clus scale="   93.032">  7  8 -1 -1</clus>
<clus scale="  149.044">  1  5  2 -1</clus>
<clus scale="  216.242">  2  9  1 -1</clus>
<clus scale="  216.242">  2  5  1 -1</clus>
</clustering>
</event>
<event>
 9    1  0.3197504E-005  0.9120132E+02  0.7546771E-02  0.1305568E+00
          1   -1    0    0  502    0 -0.00000000000E+00  0.00000000000E+00  0.67127770483E+03  0.67127770483E+03  0.00000000000E+00 0. -1.
         21   -1    0    0  501  502  0.00000000000E+00 -0.00000000000E+00 -0.20941101469E+02  0.20941101469E+02  0.00000000000E+00 0.  1.
        -24    2    1    2    0    0 -0.46086945303E+01 -0.75024297294E+01  0.44031511945E+03  0.44782625392E+03  0.81199893843E+02 0.  0.
         23    2    1    2    0    0 -0.82598952854E+01  0.32508609512E+02  0.17201733147E+03  0.19711438371E+03  0.90216863026E+02 0.  0.
         13    1    3    3    0    0  0.21965580969E+02 -0.32957241569E+02  0.14814976650E+03  0.15335259969E+03  0.00000000000E+00 0. -1.
        -14    1    3    3    0    0 -0.26574275499E+02  0.25454811839E+02  0.29216535296E+03  0.29447365422E+03  0.00000000000E+00 0.  1.
        -13    1    4    4    0    0  0.13853050847E+02  0.25843232109E+02  0.17152524973E+03  0.17401347924E+03  0.00000000000E+00 0.  1.
         13    1    4    4    0    0 -0.22112946132E+02  0.66653774033E+01  0.49208174437E+00  0.23100904463E+02  0.00000000000E+00 0. -1.
          2    1    1    2  501    0  0.12868589816E+02 -0.25006179783E+02  0.38004152434E+02  0.47278168676E+02  0.00000000000E+00 0. -1.
<scales pt_clust_5="13000.00000" pt_clust_6="13000.00000" pt_clust_7="13000.00000" pt_clust_8="13000.00000" pt_clust_9="28.12312"></scales>
<clustering>
<clus scale="   28.123">  2  9  1 -1</clus>
<clus scale="   81.200">  5  6 -1 -1</clus>
<clus scale="   82.292">  1  5  2 -1</clus>
<clus scale="   90.217">  7  8 -1 -1</clus>
<clus scale="   28.123">  2  5  1 -1</clus>
</clustering>
</event>
<event>
 9    1  0.3197504E-005  0.1072654E+03  0.7546771E-02  0.1270418E+00
         21   -1    0    0  501  502  0.00000000000E+00  0.00000000000E+00  0.60088331466E+02  0.60088331466E+02  0.00000000000E+00 0. -1.
          1   -1    0    0  502    0 -0.00000000000E+00 -0.00000000000E+00 -0.87590012355E+03  0.87590012355E+03  0.00000000000E+00 0. -1.
         23    2    1    2    0    0  0.66087545874E+02 -0.16191893946E+02 -0.51188845996E+03  0.52427855558E+03  0.90600591850E+02 0.  0.
        -24    2    1    2    0    0 -0.40505802689E+02  0.26895913872E+02 -0.34767681029E+03  0.35990865931E+03  0.79315625171E+02 0.  0.
         13    1    4    4    0    0  0.54342227865E+01  0.40976173682E+02 -0.21155499299E+03  0.21555531226E+03  0.00000000000E+00 0. -1.
        -14    1    4    4    0    0 -0.45940025476E+02 -0.14080259811E+02 -0.13612181730E+03  0.14435334704E+03  0.00000000000E+00 0.  1.
        -11    1    3    3    0    0  0.24664553614E+02 -0.50156304078E+02 -0.19331536625E+03  0.20123326234E+03  0.00000000000E+00 0.  1.
         11    1    3    3    0    0  0.41422992260E+02  0.33964410132E+02 -0.31857309372E+03  0.32304529324E+03  0.00000000000E+00 0. -1.
          2    1    1    2  501    0 -0.25581743185E+02 -0.10704019926E+02  0.43753478172E+02  0.51801240131E+02  0.00000000000E+00 0. -1.
<scales pt_clust_5="13000.00000" pt_clust_6="13000.00000" pt_clust_7="13000.00000" pt_clust_8="13000.00000" pt_clust_9="27.73088"></scales>
<clustering>
<clus scale="   27.731">  1  9  2 -1</clus>
<clus scale="   79.316">  5  6 -1 -1</clus>
<clus scale="   90.601">  7  8 -1 -1</clus>
<clus scale="   97.920">  1  5  2 -1</clus>
<clus scale="   27.731">  1  5  2 -1</clus>
</clustering>
</event>
<event>
 9    1  0.3197504E-005  0.9318640E+02  0.7546771E-02  0.1303225E+00
          1   -1    0    0  502    0 -0.00000000000E+00  0.00000000000E+00  0.31692725280E+03  0.31692725280E+03  0.00000000000E+00 0. -1.
         21   -1    0    0  501  502  0.00000000000E+00 -0.00000000000E+00 -0.12535511241E+03  0.12535511241E+03  0.00000000000E+00 0. -1.
        -24    2    1    2    0    0  0.48843565024E+01 -0.84424913087E+01  0.16532904327E+03  0.18330056600E+03  0.78551081136E+02 0.  0.
         23    2    1    2    0    0 -0.28316938498E+02  0.18765621501E+02  0.12407491363E+03  0.15785456629E+03  0.91484874977E+02 0.  0.
         11    1    3    3    0    0  0.13909664332E+02 -0.41425315478E+02  0.10860525594E+03  0.11706680632E+03  0.00000000000E+00 0. -1.
        -12    1    3    3    0    0 -0.90253078291E+01  0.32982824170E+02  0.56723787336E+02  0.66233759680E+02  0.00000000000E+00 0.  1.
        -11    1    4    4    0    0 -0.23496100138E+01  0.36216396362E+02  0.73758767571E+01  0.37034464902E+02  0.00000000000E+00 0.  1.
         11    1    4    4    0    0 -0.25967328484E+02 -0.17450774861E+02  0.11669903687E+03  0.12082010139E+03  0.00000000000E+00 0. -1.
          2    1    1    2  501    0  0.23432581995E+02 -0.10323130192E+02 -0.97831816519E+02  0.10112723293E+03  0.00000000000E+00 0. -1.
<scales pt_clust_5="13000.00000" pt_clust_6="13000.00000" pt_clust_7="13000.00000" pt_clust_8="13000.00000" pt_clust_9="25.60572"></scales>
<clustering>
<clus scale="   25.606">  2  9  1 -1</clus>
<clus scale="   78.551">  5  6 -1 -1</clus>
<clus scale="   80.526">  1  5  2 -1</clus>
<clus scale="   91.485">  7  8 -1 -1</clus>
<clus scale="   25.606">  2  5  1 -1</clus>
</clustering>
</event>
<event>
 9    1  0.3197504E-005  0.1224935E+03  0.7546771E-02  0.1242621E+00
         21   -1    0    0  501  502  0.00000000000E+00  0.00000000000E+00  0.38870319767E+02  0.38870319767E+02  0.00000000000E+00 0.  1.
          1   -1    0    0  502    0 -0.00000000000E+00 -0.00000000000E+00 -0.98981805719E+03  0.98981805719E+03  0.00000000000E+00 0. -1.
        -24    2    1    2    0    0 -0.48756363696E+02 -0.87464377447E+02 -0.30372934937E+03  0.32994406917E+03  0.81144135899E+02 0.  0.
         23    2    1    2    0    0  0.50460936644E+02  0.18604442001E+02 -0.98217640834E+02  0.14543931348E+03  0.92808714810E+02 0.  0.
         11    1    3    3    0    0 -0.51759454767E+02 -0.10151719727E+03 -0.27848082400E+03  0.30089259186E+03  0.00000000000E+00 0. -1.
        -12    1    3    3    0    0  0.30030910712E+01  0.14052819820E+02 -0.25248525365E+02  0.29051477312E+02  0.00000000000E+00 0.  1.
        -11    1    4    4    0    0 -0.21406139360E+01  0.28517803699E+02 -0.85868802259E+02  0.90505792949E+02  0.00000000000E+00 0. -1.
         11    1    4    4    0    0  0.52601550580E+02 -0.99133616980E+01 -0.12348838575E+02  0.54933520529E+02  0.00000000000E+00 0.  1.
          2    1    1    2  501    0 -0.17045729477E+01  0.68859935445E+02 -0.54900074722E+03  0.55330499431E+03  0.00000000000E+00 0. -1.
<scales pt_clust_5="13000.00000" pt_clust_6="13000.00000" pt_clust_7="13000.00000" pt_clust_8="13000.00000" pt_clust_9="68.88106"></scales>
<clustering>
<clus scale="   68.881">  1  9  2 -1</clus>
<clus scale="   81.144">  5  6 -1 -1</clus>
<clus scale="   92.809">  7  8 -1 -1</clus>
<clus scale="  113.910">  2  5  1 -1</clus>
<clus scale="   68.881">  1  5  2 -1</clus>
</clustering>
</event>
<event>
 9    1  0.3197504E-005  0.1234038E+03  0.7546771E-02  0.1240988E+00
         21   -1    0    0  501  502  0.00000000000E+00  0.00000000000E+00  0.73175554674E+02  0.73175554674E+02  0.00000000000E+00 0. -1.
         -4   -1    0    0    0  501 -0.00000000000E+00 -0.00000000000E+00 -0.15452822627E+04  0.15452822627E+04  0.00000000000E+00 0.  1.
        -24    2    1    2    0    0  0.83779212188E+02  0.99205417515E+00 -0.14248112253E+04  0.14294399141E+04  0.78686083449E+02 0.  0.
         23    2    1    2    0    0 -0.88785507290E+02  0.25604046590E+02 -0.75718484648E+02  0.14977146895E+03  0.90331447941E+02 0.  0.
         11    1    3    3    0    0  0.30778814860E+02  0.19182855465E+01 -0.13247718380E+03  0.13601918796E+03  0.00000000000E+00 0. -1.
        -12    1    3    3    0    0  0.53000397328E+02 -0.92623137131E+00 -0.12923340415E+04  0.12934207261E+04  0.00000000000E+00 0.  1.
        -11    1    4    4    0    0 -0.17598000096E+02  0.35001539198E+02 -0.66764928240E+02  0.77410289991E+02  0.00000000000E+00 0.  1.
         11    1    4    4    0    0 -0.71187507193E+02 -0.93974926083E+01 -0.89535564085E+01  0.72361178957E+02  0.00000000000E+00 0. -1.
         -3    1    1    2    0  502  0.50062951016E+01 -0.26596100765E+02  0.28423001938E+02  0.39246434306E+02  0.00000000000E+00 0.  1.
<scales pt_clust_5="13000.00000" pt_clust_6="13000.00000" pt_clust_7="13000.00000" pt_clust_8="13000.00000" pt_clust_9="27.06318"></scales>
<clustering>
<clus scale="   27.063">  1  9  2 -1</clus>
<clus scale="   78.686">  5  6 -1 -1</clus>
<clus scale="   90.331">  7  8 -1 -1</clus>
<clus scale="  115.153">  2  5  1 -1</clus>
<clus scale="   27.063">  1  5  2 -1</clus>
</clustering>
</event>
<event>
 9    1  0.3197504E-005  0.1128757E+03  0.7546771E-02  0.1260167E+00
          1   -1    0    0  502    0 -0.00000000000E+00  0.00000000000E+00  0.30258218526E+03  0.30258218526E+03  0.00000000000E+00 0. -1.
         21   -1    0    0  501  502  0.00000000000E+00 -0.00000000000E+00 -0.12811565060E+03  0.12811565060E+03  0.00000000000E+00 0. -1.
         23    2    1    2    0    0  0.63132096342E+02 -0.79575840199E+01  0.18466969888E+03  0.21634744112E+03  0.93028666884E+02 0.  0.
        -24    2    1    2    0    0 -0.50329794084E+02  0.78182806095E+02 -0.50001899480E+02  0.13262267554E+03  0.80267956089E+02 0.  0.
         11    1    4    4    0    0 -0.40905256854E+02  0.88849968398E+02 -0.60431799628E+02  0.11497634247E+03  0.00000000000E+00 0. -1.
        -12    1    4    4    0    0 -0.94245372308E+01 -0.10667162303E+02  0.10429900148E+02  0.17646333067E+02  0.00000000000E+00 0.  1.
        -11    1    3    3    0    0  0.14605347799E+02 -0.22811224728E+02  0.24547301271E+01  0.27197313432E+02  0.00000000000E+00 0.  1.
         11    1    3    3    0    0  0.48526748543E+02  0.14853640708E+02  0.18221496875E+03  0.18915012768E+03  0.00000000000E+00 0. -1.
          2    1    1    2  501    0 -0.12802302258E+02 -0.70225222075E+02  0.39798735257E+02  0.81727719206E+02  0.00000000000E+00 0. -1.
<scales pt_clust_5="13000.00000" pt_clust_6="13000.00000" pt_clust_7="13000.00000" pt_clust_8="13000.00000" pt_clust_9="71.38267"></scales>
<clustering>
<clus scale="   71.383">  2  9  1 -1</clus>
<clus scale="   80.268">  5  6 -1 -1</clus>
<clus scale="   93.029">  7  8 -1 -1</clus>
<clus scale="  102.614">  2  5  1 -1</clus>
<clus scale="   71.383">  2  5  1 -1</clus>
</clustering>
</event>
<event>
 9    1  0.3197504E-005  0.1299146E+03  0.7546771E-02  0.1231851E+00
          3   -1    0    0  502    0 -0.00000000000E+00  0.00000000000E+00  0.35694885241E+03  0.35694885241E+03  0.00000000000E+00 0. -1.
         21   -1    0    0  501  502  0.00000000000E+00 -0.00000000000E+00 -0.24800304836E+03  0.24800304836E+03  0.00000000000E+00 0. -1.
        -24    2    1    2    0    0 -0.46042601788E+02 -0.78380294322E+02  0.32189303518E+03  0.34358161991E+03  0.78548149060E+02 0.  0.
         23    2    1    2    0    0  0.45425241560E+02  0.43221532216E+02 -0.18281232685E+03  0.21506010764E+03  0.94334244223E+02 0.  0.
         13    1    3    3    0    0 -0.12937241110E+02 -0.83063529120E+02  0.19481505511E+03  0.21217876372E+03  0.00000000000E+00 0. -1.
        -14    1    3    3    0    0 -0.33105360678E+02  0.46832347974E+01  0.12707798008E+03  0.13140285619E+03  0.00000000000E+00 0.  1.
        -11    1    4    4    0    0  0.68842219249E+02  0.37487440719E+02 -0.90862988483E+02  0.12000267513E+03  0.00000000000E+00 0.  1.
         11    1    4    4    0    0 -0.23416977689E+02  0.57340914962E+01 -0.91949338370E+02  0.95057432513E+02  0.00000000000E+00 0. -1.
          4    1    1    2  501    0  0.61736022801E+00  0.35158762107E+02 -0.30134904283E+02  0.46310173209E+02  0.00000000000E+00 0. -1.
<scales pt_clust_5="13000.00000" pt_clust_6="13000.00000" pt_clust_7="13000.00000" pt_clust_8="13000.00000" pt_clust_9="35.16418"></scales>
<clustering>
<clus scale="   35.164">  2  9  1 -1</clus>
<clus scale="   78.548">  5  6 -1 -1</clus>
<clus scale="   94.334">  7  8 -1 -1</clus>
<clus scale="  118.948">  1  5  2 -1</clus>
<clus scale="   35.164">  2  5  1 -1</clus>
</clustering>
</event>
<event>
 9    1  0.3197504E-005  0.1028394E+03  0.7546771E-02  0.1281341E+00
         21   -1    0    0  501  502  0.00000000000E+00  0.00000000000E+00  0.44816491387E+03  0.44816491387E+03  0.00000000000E+00 0. -1.
         -2   -1    0    0    0  501 -0.00000000000E+00 -0.00000000000E+00 -0.69406326765E+02  0.69406326765E+02  0.00000000000E+00 0.  1.
        -24    2    1    2    0    0  0.35617668946E+02 -0.24812176056E+02 -0.23317623129E+02  0.93773013578E+02  0.79783482660E+02 0.  0.
         23    2    1    2    0    0 -0.38746011997E+02 -0.39541995340E+01  0.26792018323E+03  0.28655708717E+03  0.93898085649E+02 0.  0.
         13    1    3    3    0    0  0.28429775914E+02  0.12790883551E+02  0.19157787664E+02  0.36590704950E+02  0.00000000000E+00 0. -1.
        -14    1    3    3    0    0  0.71878930318E+01 -0.37603059607E+02 -0.42475410793E+02  0.57182308628E+02  0.00000000000E+00 0.  1.
        -11    1    4    4    0    0 -0.48203399509E+02 -0.33168454610E+02  0.23216959402E+03  0.23942939354E+03  0.00000000000E+00 0.  1.
         11    1    4    4    0    0  0.94573875113E+01  0.29214255076E+02  0.35750589212E+02  0.47127693633E+02  0.00000000000E+00 0. -1.
         -1    1    1    2    0  502  0.31283430517E+01  0.28766375590E+02  0.13415602701E+03  0.13724113989E+03  0.00000000000E+00 0.  1.
<scales pt_clust_5="13000.00000" pt_clust_6="13000.00000" pt_clust_7="13000.00000" pt_clust_8="13000.00000" pt_clust_9="28.93598"></scales>
<clustering>
<clus scale="   28.936">  1  9  2 -1</clus>
<clus scale="   79.783">  5  6 -1 -1</clus>
<clus scale="   90.136">  2  5  1 -1</clus>
<clus scale="   93.898">  7  8 -1 -1</clus>
<clus scale="   28.936">  1  5  2 -1</clus>
</clustering>
</event>
<event>
 9    1  0.3197504E-005  0.9630762E+02  0.7546771E-02  0.1296163E+00
         -4   -1    0    0    0  501 -0.00000000000E+00  0.00000000000E+00  0.92407717857E+02  0.92407717857E+02  0.00000000000E+00 0.  1.
         21   -1    0    0  501  502  0.00000000000E+00 -0.00000000000E+00 -0.17520778572E+03  0.17520778572E+03  0.00000000000E+00 0. -1.
        -24    2    1    2    0    0 -0.96885667964E-02 -0.25002899909E+02 -0.31320848527E+02  0.90755366721E+02  0.81427243220E+02 0.  0.
         23    2    1    2    0    0 -0.21524504763E+02 -0.35090120760E+01 -0.83976740167E+02  0.12856169519E+03  0.94870433272E+02 0.  0.
         11    1    3    3    0    0  0.39220835211E+02 -0.45294013338E+01 -0.23112223715E+02  0.45748926502E+02  0.00000000000E+00 0. -1.
        -12    1    3    3    0    0 -0.39230523778E+02 -0.20473498575E+02 -0.82086248128E+01  0.45006440218E+02  0.00000000000E+00 0.  1.
        -13    1    4    4    0    0 -0.18686840804E+01  0.40777304043E+02 -0.64520243156E+02  0.76348819782E+02  0.00000000000E+00 0. -1.
         13    1    4    4    0    0 -0.19655820682E+02 -0.44286316119E+02 -0.19456497012E+02  0.52212875405E+02  0.00000000000E+00 0.  1.
         -3    1    1    2    0  502  0.21534193330E+02  0.28511911985E+02  0.32497520832E+02  0.48298441668E+02  0.00000000000E+00 0.  1.
<scales pt_clust_5="13000.00000" pt_clust_6="13000.00000" pt_clust_7="13000.00000" pt_clust_8="13000.00000" pt_clust_9="35.73027"></scales>
<clustering>
<clus scale="   35.730">  2  9  1 -1</clus>
<clus scale="   81.427">  5  6 -1 -1</clus>
<clus scale="   83.097">  1  5  2 -1</clus>
<clus scale="   94.870">  7  8 -1 -1</clus>
<clus scale="   35.730">  2  5  1 -1</clus>
</clustering>
</event>
<event>
 9    1  0.3197504E-005  0.1197720E+03  0.7546771E-02  0.1246699E+00
          1   -1    0    0  502    0 -0.00000000000E+00  0.00000000000E+00  0.83675989804E+03  0.83675989804E+03  0.00000000000E+00 0. -1.
         21   -1    0    0  501  502  0.00000000000E+00 -0.00000000000E+00 -0.20988336487E+02  0.20988336487E+02  0.00000000000E+00 0.  1.
         23    2    1    2    0    0 -0.44549703747E+02  0.52957492829E+02  0.36755027125E+03  0.38512600713E+03  0.91867661997E+02 0.  0.
        -24    2    1    2    0    0  0.35400788822E+02 -0.80145627492E+02  0.33417206658E+03  0.35502068513E+03  0.81805741460E+02 0.  0.
         13    1    4    4    0    0  0.42083074734E+02 -0.29431227754E+01  0.10834167798E+03  0.11626506930E+03  0.00000000000E+00 0. -1.
        -14    1    4    4    0    0 -0.66822859126E+01 -0.77202504716E+02  0.22583038860E+03  0.23875561584E+03  0.00000000000E+00 0.  1.
        -11    1    3    3    0    0 -0.16850531136E+02  0.74639442258E+02  0.20504286713E+03  0.21885512125E+03  0.00000000000E+00 0.  1.
         11    1    3    3    0    0 -0.27699172611E+02 -0.21681949429E+02  0.16250740412E+03  0.16627088587E+03  0.00000000000E+00 0. -1.
          2    1    1    2  501    0  0.91489149248E+01  0.27188134663E+02  0.11404922373E+03  0.11760154227E+03  0.00000000000E+00 0. -1.
<scales pt_clust_5="13000.00000" pt_clust_6="13000.00000" pt_clust_7="13000.00000" pt_clust_8="13000.00000" pt_clust_9="28.68620"></scales>
<clustering>
<clus scale="   28.686">  2  9  1 -1</clus>
<clus scale="   81.806">  5  6 -1 -1</clus>
<clus scale="   91.868">  7  8 -1 -1</clus>
<clus scale="  112.240">  2  5  1 -1</clus>
<clus scale="   28.686">  2  5  1 -1</clus>
</clustering>
</event>
<event>
 9    1  0.3197504E-005  0.1088933E+03  0.7546771E-02  0.1271360E+00
         21   -1    0    0  501  502  0.00000000000E+00  0.00000000000E+00  0.38106948131E+02  0.38106948131E+02  0.00000000000E+00 0.  1.
          3   -1    0    0  502    0 -0.00000000000E+00 -0.00000000000E+00 -0.39851875231E+03  0.39851875231E+03  0.00000000000E+00 0. -1.
         23    2    1    2    0    0 -0.28060309645E+02  0.40812525690E+02 -0.19416650075E+03  0.22505386864E+03  0.10244789185E+03 0.  0.
        -24    2    1    2    0    0  0.27445424086E+02 -0.43118918175E+01 -0.86413233915E+02  0.12378895374E+03  0.84170151237E+02 0.  0.
         11    1    4    4    0    0 -0.27334513965E+02 -0.10613288001E+02 -0.13260118934E+02  0.32181489866E+02  0.00000000000E+00 0. -1.
        -12    1    4    4    0    0  0.54779938051E+02  0.63013961833E+01 -0.73153114981E+02  0.91607463878E+02  0.00000000000E+00 0.  1.
        -11    1    3    3    0    0 -0.28478994568E+02 -0.28246260307E+02 -0.10408453738E+03  0.11154593348E+03  0.00000000000E+00 0.  1.
         11    1    3    3    0    0  0.41868492361E+00  0.69058785997E+02 -0.90081963367E+02  0.11350793516E+03  0.00000000000E+00 0. -1.
          4    1    1    2  501    0  0.61488555856E+00 -0.36500633872E+02 -0.79832069514E+02  0.87782878058E+02  0.00000000000E+00 0. -1.
<scales pt_clust_5="13000.00000" pt_clust_6="13000.00000" pt_clust_7="13000.00000" pt_clust_8="13000.00000" pt_clust_9="36.50583"></scales>
<clustering>
<clus scale="   36.506">  1  9  2 -1</clus>
<clus scale="   84.170">  5  6 -1 -1</clus>
<clus scale="   91.906">  1  5  2 -1</clus>
<clus scale="  102.448">  7  8 -1 -1</clus>
<clus scale="   36.506">  1  5  2 -1</clus>
</clustering>
</event>
<event>
 9    1  0.3197504E-005  0.1777481E+03  0.7546771E-02  0.1171160E+00
         21   -1    0    0  501  502  0.00000000000E+00  0.00000000000E+00  0.41521385971E+03  0.41521385971E+03  0.00000000000E+00 0. -1.
          1   -1    0    0  502    0 -0.00000000000E+00 -0.00000000000E+00 -0.13483488205E+03  0.13483488205E+03  0.00000000000E+00 0. -1.
         23    2    1    2    0    0 -0.18104611205E+02 -0.14394315958E+03  0.64522790640E+01  0.17028060890E+03  0.88918185570E+02 0.  0.
        -24    2    1    2    0    0  0.27539035780E+02  0.18258030703E+03  0.27427320437E+03  0.33999430232E+03  0.79223531639E+02 0.  0.
         13    1    4    4    0    0  0.52632205305E+02  0.12108698022E+03  0.20651857186E+03  0.24511655664E+03  0.00000000000E+00 0. -1.
        -14    1    4    4    0    0 -0.25093169524E+02  0.61493326804E+02  0.67754632511E+02  0.94877745677E+02  0.00000000000E+00 0.  1.
        -11    1    3    3    0    0 -0.48516231915E+02 -0.71793937121E+02  0.24264957389E+02  0.89983233569E+02  0.00000000000E+00 0.  1.
         11    1    3    3    0    0  0.30411620710E+02 -0.72149222459E+02 -0.17812678325E+02  0.80297375330E+02  0.00000000000E+00 0. -1.
          2    1    1    2  501    0 -0.94344245757E+01 -0.38637147445E+02 -0.34650578306E+00  0.39773830543E+02  0.00000000000E+00 0. -1.
<scales pt_clust_5="13000.00000" pt_clust_6="13000.00000" pt_clust_7="13000.00000" pt_clust_8="13000.00000" pt_clust_9="39.77234"></scales>
<clustering>
<clus scale="   39.772">  1  9  2 -1</clus>
<clus scale="   79.224">  5  6 -1 -1</clus>
<clus scale="   88.918">  7  8 -1 -1</clus>
<clus scale="  173.102">  1  5  2 -1</clus>
<clus scale="   39.772">  1  5  2 -1</clus>
</clustering>
</event>
<event>
 9    1  0.3197504E-005  0.1133047E+03  0.7546771E-02  0.1257850E+00
         21   -1    0    0  501  502  0.00000000000E+00  0.00000000000E+00  0.43131300355E+03  0.43131300355E+03  0.00000000000E+00 0. -1.
          3   -1    0    0  502    0 -0.00000000000E+00 -0.00000000000E+00 -0.53856277934E+02  0.53856277934E+02  0.00000000000E+00 0. -1.
         23    2    1    2    0    0 -0.30933394884E+02 -0.46884484883E+02  0.59933878381E+02  0.12166651393E+03  0.89753222734E+02 0.  0.
        -24    2    1    2    0    0  0.57669891467E+02  0.82187600175E+02  0.19937294505E+03  0.23732610733E+03  0.80582206476E+02 0.  0.
         11    1    4    4    0    0  0.78080529820E+02  0.62843696175E+02  0.14770226280E+03  0.17849890118E+03  0.00000000000E+00 0. -1.
        -12    1    4    4    0    0 -0.20410638353E+02  0.19343904000E+02  0.51670682244E+02  0.58827206151E+02  0.00000000000E+00 0.  1.
        -13    1    3    3    0    0 -0.37696668915E+02 -0.71206527639E+02  0.43780066191E+02  0.91695706668E+02  0.00000000000E+00 0.  1.
         13    1    3    3    0    0  0.67632740311E+01  0.24322042755E+02  0.16153812190E+02  0.29970807257E+02  0.00000000000E+00 0. -1.
          4    1    1    2  501    0 -0.26736496583E+02 -0.35303115291E+02  0.11814990219E+03  0.12617666022E+03  0.00000000000E+00 0. -1.
<scales pt_clust_5="13000.00000" pt_clust_6="13000.00000" pt_clust_7="13000.00000" pt_clust_8="13000.00000" pt_clust_9="44.28488"></scales>
<clustering>
<clus scale="   44.285">  1  9  2 -1</clus>
<clus scale="   80.582">  5  6 -1 -1</clus>
<clus scale="   89.753">  7  8 -1 -1</clus>
<clus scale="  106.188">  1  5  2 -1</clus>
<clus scale="   44.285">  1  5  2 -1</clus>
</clustering>
</event>
<event>
 9    1  0.3197504E-005  0.1041531E+03  0.7546771E-02  0.1275439E+00
         21   -1    0    0  501  502  0.00000000000E+00  0.00000000000E+00  0.21651582440E+03  0.21651582440E+03  0.00000000000E+00 0. -1.
         -4   -1    0    0    0  501 -0.00000000000E+00 -0.00000000000E+00 -0.31667689593E+03  0.31667689593E+03  0.00000000000E+00 0.  1.
         23    2    1    2    0    0 -0.49921354282E+02 -0.60464689370E+01 -0.21628114464E+03  0.23982358098E+03  0.90604166956E+02 0.  0.
        -24    2    1    2    0    0  0.58647342563E+02  0.69766752511E+02  0.16979961315E+03  0.20959616978E+03  0.82411984644E+02 0.  0.
         11    1    4    4    0    0  0.63524460368E+02  0.70279580621E+02  0.17707422894E+03  0.20082295454E+03  0.00000000000E+00 0. -1.
        -12    1    4    4    0    0 -0.48771178049E+01 -0.51282810979E+00 -0.72746157845E+01  0.87732152354E+01  0.00000000000E+00 0.  1.
        -13    1    3    3    0    0 -0.33221285818E+02  0.41539819547E+02 -0.11166545546E+03  0.12368663785E+03  0.00000000000E+00 0.  1.
         13    1    3    3    0    0 -0.16700068464E+02 -0.47586288484E+02 -0.10461568918E+03  0.11613694314E+03  0.00000000000E+00 0. -1.
         -3    1    1    2    0  502 -0.87259882807E+01 -0.63720283574E+02 -0.53679540048E+02  0.83772969567E+02  0.00000000000E+00 0.  1.
<scales pt_clust_5="13000.00000" pt_clust_6="13000.00000" pt_clust_7="13000.00000" pt_clust_8="13000.00000" pt_clust_9="64.31502"></scales>
<clustering>
<clus scale="   64.315">  1  9  2 -1</clus>
<clus scale="   82.412">  5  6 -1 -1</clus>
<clus scale="   90.604">  7  8 -1 -1</clus>
<clus scale="   97.111">  1  5  2 -1</clus>
<clus scale="   64.315">  1  5  2 -1</clus>
</clustering>
</event>
<event>
 9    1  0.3197504E-005  0.1674680E+03  0.7546771E-02  0.1196941E+00
         21   -1    0    0  501  502  0.00000000000E+00  0.00000000000E+00  0.40155336594E+03  0.40155336594E+03  0.00000000000E+00 0. -1.
          3   -1    0    0  502    0 -0.00000000000E+00 -0.00000000000E+00 -0.29091281983E+03  0.29091281983E+03  0.00000000000E+00 0. -1.
        -24    2    1    2    0    0  0.84053215536E+02  0.31152997680E+01 -0.16706138735E+03  0.20361462336E+03  0.80465890723E+02 0.  0.
         23    2    1    2    0    0  0.10176282102E+03  0.72835279596E+02  0.23862168072E+03  0.28434396817E+03  0.90832461325E+02 0.  0.
         11    1    3    3    0    0  0.11213778340E+02 -0.21815680536E+02 -0.95167136582E+02  0.98277447195E+02  0.00000000000E+00 0. -1.
        -12    1    3    3    0    0  0.72839437195E+02  0.24930980304E+02 -0.71894250769E+02  0.10533717617E+03  0.00000000000E+00 0.  1.
        -11    1    4    4    0    0  0.46306512017E+02  0.85962616848E+02  0.14996913323E+03  0.17895419937E+03  0.00000000000E+00 0. -1.
         11    1    4    4    0    0  0.55456309003E+02 -0.13127337252E+02  0.88652547490E+02  0.10538976880E+03  0.00000000000E+00 0.  1.
          4    1    1    2  501    0 -0.18581603655E+03 -0.75950579364E+02  0.39080252734E+02  0.20450759424E+03  0.00000000000E+00 0. -1.
<scales pt_clust_5="13000.00000" pt_clust_6="13000.00000" pt_clust_7="13000.00000" pt_clust_8="13000.00000" pt_clust_9="140.69472"></scales>
<clustering>
<clus scale="   80.466">  5  6 -1 -1</clus>
<clus scale="   90.832">  7  8 -1 -1</clus>
<clus scale="  116.402">  2  5  1 -1</clus>
<clus scale="  140.695">  1  9  2 -1</clus>
<clus scale="  140.695">  1  5  2 -1</clus>
</clustering>
</event>
<event>
 9    1  0.3197504E-005  0.9076970E+02  0.7546771E-02  0.1307711E+00
          3   -1    0    0  502    0 -0.00000000000E+00  0.00000000000E+00  0.26212146253E+03  0.26212146253E+03  0.00000000000E+00 0. -1.
         21   -1    0    0  501  502  0.00000000000E+00 -0.00000000000E+00 -0.64055223738E+02  0.64055223738E+02  0.00000000000E+00 0.  1.
        -24    2    1    2    0    0 -0.15619234665E+02  0.30118279893E+02  0.64045447152E+02  0.10788653966E+03  0.79916299113E+02 0.  0.
         23    2    1    2    0    0 -0.36489456765E+01  0.36761622862E+02  0.51881706547E+02  0.11062857748E+03  0.90455729293E+02 0.  0.
         11    1    3    3    0    0  0.24828477272E+02 -0.91923403801E+01  0.36568202406E+02  0.45146271523E+02  0.00000000000E+00 0. -1.
        -12    1    3    3    0    0 -0.40447711937E+02  0.39310620273E+02  0.27477244747E+02  0.62740268138E+02  0.00000000000E+00 0.  1.
        -11    1    4    4    0    0 -0.37102922344E+02 -0.11409622844E+01  0.46924071268E+02  0.59831405681E+02  0.00000000000E+00 0. -1.
         11    1    4    4    0    0  0.33453976667E+02  0.37902585146E+02  0.49576352793E+01  0.50797171803E+02  0.00000000000E+00 0.  1.
          4    1    1    2  501    0  0.19268180342E+02 -0.66879902755E+02  0.82139085098E+02  0.10766156913E+03  0.00000000000E+00 0. -1.
<scales pt_clust_5="13000.00000" pt_clust_6="13000.00000" pt_clust_7="13000.00000" pt_clust_8="13000.00000" pt_clust_9="69.60021"></scales>
<clustering>
<clus scale="   69.600">  2  9  1 -1</clus>
<clus scale="   79.916">  5  6 -1 -1</clus>
<clus scale="   80.272">  1  5  2 -1</clus>
<clus scale="   90.456">  7  8 -1 -1</clus>
<clus scale="   69.600">  2  5  1 -1</clus>
</clustering>
</event>
<event>
 9    1  0.3197504E-005  0.1035565E+03  0.7546771E-02  0.1275596E+00
         21   -1    0    0  501  502  0.00000000000E+00  0.00000000000E+00  0.34667945895E+02  0.34667945895E+02  0.00000000000E+00 0. -1.
         -4   -1    0    0    0  501 -0.00000000000E+00 -0.00000000000E+00 -0.68372973400E+03  0.68372973400E+03  0.00000000000E+00 0.  1.
        -24    2    1    2    0    0 -0.67555099600E+01 -0.54166456865E+02 -0.51282011886E+03  0.52183165677E+03  0.79650246285E+02 0.  0.
         23    2    1    2    0    0  0.11100162452E+01  0.73590921011E+02 -0.13529447370E+03  0.17631562595E+03  0.85823945070E+02 0.  0.
         13    1    3    3    0    0 -0.37409972183E+02 -0.17000953405E+02 -0.13982097621E+03  0.14573415462E+03  0.00000000000E+00 0. -1.
        -14    1    3    3    0    0  0.30654462223E+02 -0.37165503460E+02 -0.37299914265E+03  0.37609750215E+03  0.00000000000E+00 0.  1.
        -11    1    4    4    0    0 -0.29839704343E+02  0.34458776272E+02 -0.18285712817E+02  0.49113974699E+02  0.00000000000E+00 0. -1.
         11    1    4    4    0    0  0.30949720588E+02  0.39132144738E+02 -0.11700876089E+03  0.12720165125E+03  0.00000000000E+00 0.  1.
         -3    1    1    2    0  502  0.56454937147E+01 -0.19424464146E+02 -0.94719554371E+00  0.20250397182E+02  0.00000000000E+00 0.  1.
<scales pt_clust_5="13000.00000" pt_clust_6="13000.00000" pt_clust_7="13000.00000" pt_clust_8="13000.00000" pt_clust_9="20.22823"></scales>
<clustering>
<clus scale="   20.228">  1  9  2 -1</clus>
<clus scale="   79.650">  5  6 -1 -1</clus>
<clus scale="   85.824">  7  8 -1 -1</clus>
<clus scale="   98.501">  2  5  1 -1</clus>
<clus scale="   20.228">  1  5  2 -1</clus>
</clustering>
</event>
<event>
 9    1  0.3197504E-005  0.1003736E+03  0.7546771E-02  0.1284566E+00
         21   -1    0    0  501  502  0.00000000000E+00  0.00000000000E+00  0.10999354000E+03  0.10999354000E+03  0.00000000000E+00 0.  1.
         -4   -1    0    0    0  501 -0.00000000000E+00 -0.00000000000E+00 -0.16215421705E+03  0.16215421705E+03  0.00000000000E+00 0.  1.
        -24    2    1    2    0    0  0.32170980580E+02 -0.32129028315E+02 -0.53684912233E+02  0.10735198898E+03  0.81087195571E+02 0.  0.
         23    2    1    2    0    0  0.60426835157E+00  0.40691743696E+02  0.45059777522E+02  0.10963345770E+03  0.91284874715E+02 0.  0.
         11    1    3    3    0    0  0.24254723077E+02 -0.21344055582E+02  0.16238627065E+02  0.36160106598E+02  0.00000000000E+00 0. -1.
        -12    1    3    3    0    0  0.79162575031E+01 -0.10784972733E+02 -0.69923539298E+02  0.71191882386E+02  0.00000000000E+00 0.  1.
        -11    1    4    4    0    0 -0.26394851508E+02  0.24711440867E+01  0.55661825434E+02  0.61652522656E+02  0.00000000000E+00 0.  1.
         11    1    4    4    0    0  0.26999119859E+02  0.38220599610E+02 -0.10602047913E+02  0.47980935043E+02  0.00000000000E+00 0. -1.
         -3    1    1    2    0  502 -0.32775248931E+02 -0.85627153811E+01 -0.43535542342E+02  0.55162310360E+02  0.00000000000E+00 0.  1.
<scales pt_clust_5="13000.00000" pt_clust_6="13000.00000" pt_clust_7="13000.00000" pt_clust_8="13000.00000" pt_clust_9="33.87533"></scales>
<clustering>
<clus scale="   33.875">  1  9  2 -1</clus>
<clus scale="   81.087">  5  6 -1 -1</clus>
<clus scale="   91.198">  2  5  1 -1</clus>
<clus scale="   91.285">  7  8 -1 -1</clus>
<clus scale="   33.875">  1  5  2 -1</clus>
</clustering>
</event>
<event>
 9    1  0.3197504E-005  0.1717653E+03  0.7546771E-02  0.1176623E+00
         21   -1    0    0  501  502  0.00000000000E+00  0.00000000000E+00  0.96443970259E+02  0.96443970259E+02  0.00000000000E+00 0. -1.
          1   -1    0    0  502    0 -0.00000000000E+00 -0.00000000000E+00 -0.56000314345E+03  0.56000314345E+03  0.00000000000E+00 0. -1.
         23    2    1    2    0    0  0.16789212421E+03  0.16040847521E+02 -0.39539926024E+03  0.43939375936E+03  0.91001245104E+02 0.  0.
        -24    2    1    2    0    0 -0.93322845599E+02 -0.28617770094E+02 -0.41995386417E+02  0.13703248992E+03  0.86522601315E+02 0.  0.
         13    1    4    4    0    0 -0.59532549904E+02 -0.31015304607E+02 -0.67066054475E+02  0.94889036673E+02  0.00000000000E+00 0. -1.
        -14    1    4    4    0    0 -0.33790295695E+02  0.23975345135E+01  0.25070668058E+02  0.42143453249E+02  0.00000000000E+00 0.  1.
        -13    1    3    3    0    0  0.78723175322E+02  0.41623212275E+02 -0.12463212018E+03  0.15317635429E+03  0.00000000000E+00 0.  1.
         13    1    3    3    0    0  0.89168948888E+02 -0.25582364754E+02 -0.27076714006E+03  0.28621740508E+03  0.00000000000E+00 0. -1.
          2    1    1    2  501    0 -0.74569278612E+02  0.12576922573E+02 -0.26164526536E+02  0.80020864422E+02  0.00000000000E+00 0. -1.
<scales pt_clust_5="13000.00000" pt_clust_6="13000.00000" pt_clust_7="13000.00000" pt_clust_8="13000.00000" pt_clust_9="75.62246"></scales>
<clustering>
<clus scale="   75.622">  1  9  2 -1</clus>
<clus scale="   86.523">  5  6 -1 -1</clus>
<clus scale="   91.001">  7  8 -1 -1</clus>
<clus scale="  169.435">  1  5  2 -1</clus>
<clus scale="   75.622">  1  5  2 -1</clus>
</clustering>
</event>
<event>
 9    1  0.3197504E-005  0.9647199E+02  0.7546771E-02  0.1290239E+00
          1   -1    0    0  502    0 -0.00000000000E+00  0.00000000000E+00  0.22797535454E+03  0.22797535454E+03  0.00000000000E+00 0. -1.
         21   -1    0    0  501  502  0.00000000000E+00 -0.00000000000E+00 -0.68689599112E+02  0.68689599112E+02  0.00000000000E+00 0. -1.
        -24    2    1    2    0    0  0.35204896322E+02  0.11894762983E+02  0.87878080651E+02  0.12769708820E+03  0.84871191604E+02 0.  0.
         23    2    1    2    0    0 -0.38373641586E+02  0.15752283588E+02  0.69624323298E+01  0.98771074895E+02  0.89367661741E+02 0.  0.
         11    1    3    3    0    0  0.37056518049E+02 -0.30410742777E+02  0.60835082155E+02  0.77452605037E+02  0.00000000000E+00 0. -1.
        -12    1    3    3    0    0 -0.18516217270E+01  0.42305505760E+02  0.27042998496E+02  0.50244483163E+02  0.00000000000E+00 0.  1.
        -11    1    4    4    0    0 -0.36803870665E+01 -0.31856839927E+02  0.20845572545E+02  0.38248416880E+02  0.00000000000E+00 0.  1.
         11    1    4    4    0    0 -0.34693254519E+02  0.47609123515E+02 -0.13883140216E+02  0.60522658015E+02  0.00000000000E+00 0. -1.
          2    1    1    2  501    0  0.31687452633E+01 -0.27647046571E+02  0.64445242451E+02  0.70196790562E+02  0.00000000000E+00 0. -1.
<scales pt_clust_5="13000.00000" pt_clust_6="13000.00000" pt_clust_7="13000.00000" pt_clust_8="13000.00000" pt_clust_9="27.82806"></scales>
<clustering>
<clus scale="   27.828">  2  9  1 -1</clus>
<clus scale="   84.871">  5  6 -1 -1</clus>
<clus scale="   89.368">  7  8 -1 -1</clus>
<clus scale="   92.322">  1  5  2 -1</clus>
<clus scale="   27.828">  2  5  1 -1</clus>
</clustering>
</event>
<event>
 9    1  0.3197504E-005  0.1191310E+03  0.7546771E-02  0.1248133E+00
         21   -1    0    0  501  502  0.00000000000E+00  0.00000000000E+00  0.11014917764E+04  0.11014917764E+04  0.00000000000E+00 0. -1.
          1   -1    0    0  502    0 -0.00000000000E+00 -0.00000000000E+00 -0.28341392576E+02  0.28341392576E+02  0.00000000000E+00 0. -1.
         23    2    1    2    0    0  0.71401760195E+02 -0.38307395379E+02  0.13601752186E+03  0.18371407239E+03  0.93190269028E+02 0.  0.
        -24    2    1    2    0    0 -0.38009365425E+02  0.26561478079E+02  0.65641079700E+03  0.66317405535E+03  0.82307164298E+02 0.  0.
         13    1    4    4    0    0  0.18018327021E+02 -0.14739977008E+02  0.11723540139E+03  0.11952433380E+03  0.00000000000E+00 0. -1.
        -14    1    4    4    0    0 -0.56027692447E+02  0.41301455087E+02  0.53917539561E+03  0.54364972155E+03  0.00000000000E+00 0.  1.
        -11    1    3    3    0    0  0.76117033803E+02 -0.58376844895E+02  0.83070763413E+02  0.12689527410E+03  0.00000000000E+00 0. -1.
         11    1    3    3    0    0 -0.47152736085E+01  0.20069449516E+02  0.52946758448E+02  0.56818798290E+02  0.00000000000E+00 0.  1.
          2    1    1    2  501    0 -0.33392394769E+02  0.11745917300E+02  0.28072206494E+03  0.28294504121E+03  0.00000000000E+00 0. -1.
<scales pt_clust_5="13000.00000" pt_clust_6="13000.00000" pt_clust_7="13000.00000" pt_clust_8="13000.00000" pt_clust_9="35.39800"></scales>
<clustering>
<clus scale="   35.398">  1  9  2 -1</clus>
<clus scale="   82.307">  5  6 -1 -1</clus>
<clus scale="   93.190">  7  8 -1 -1</clus>
<clus scale="  110.825">  1  5  2 -1</clus>
<clus scale="   35.398">  1  5  2 -1</clus>
</clustering>
</event>
<event>
 9    1  0.3197504E-005  0.1187284E+03  0.7546771E-02  0.1247781E+00
         21   -1    0    0  501  502  0.00000000000E+00  0.00000000000E+00  0.24438876872E+03  0.24438876872E+03  0.00000000000E+00 0. -1.
         -4   -1    0    0    0  501 -0.00000000000E+00 -0.00000000000E+00 -0.14003886042E+03  0.14003886042E+03  0.00000000000E+00 0.  1.
        -24    2    1    2    0    0  0.54182236408E+01 -0.90881490377E+02 -0.69454044347E+02  0.14192387117E+03  0.83843416500E+02 0.  0.
         23    2    1    2    0    0 -0.26761523904E+02  0.26824031356E+02  0.83178429360E+02  0.12949101535E+03  0.91725482424E+02 0.  0.
         11    1    3    3    0    0  0.20501019521E+02  0.58516948081E+00  0.70946599497E+01  0.21701806942E+02  0.00000000000E+00 0. -1.
        -12    1    3    3    0    0 -0.15082795881E+02 -0.91466659858E+02 -0.76548704296E+02  0.12022206423E+03  0.00000000000E+00 0.  1.
        -11    1    4    4    0    0 -0.23824218522E+02 -0.48074878524E+01 -0.13447730871E+02  0.27776731146E+02  0.00000000000E+00 0.  1.
         11    1    4    4    0    0 -0.29373053827E+01  0.31631519209E+02  0.96626160231E+02  0.10171428420E+03  0.00000000000E+00 0. -1.
         -3    1    1    2    0  502  0.21343300263E+02  0.64057459020E+02  0.90625523289E+02  0.11301274262E+03  0.00000000000E+00 0.  1.
<scales pt_clust_5="13000.00000" pt_clust_6="13000.00000" pt_clust_7="13000.00000" pt_clust_8="13000.00000" pt_clust_9="67.51959"></scales>
<clustering>
<clus scale="   67.520">  1  9  2 -1</clus>
<clus scale="   83.843">  5  6 -1 -1</clus>
<clus scale="   91.725">  7  8 -1 -1</clus>
<clus scale="  112.750">  2  5  1 -1</clus>
<clus scale="   67.520">  1  5  2 -1</clus>
</clustering>
</event>
<event>
 9    1  0.3197504E-005  0.2287374E+03  0.7546771E-02  0.1127532E+00
         21   -1    0    0  501  502  0.00000000000E+00  0.00000000000E+00  0.10950079470E+03  0.10950079470E+03  0.00000000000E+00 0.  1.
          1   -1    0    0  502    0 -0.00000000000E+00 -0.00000000000E+00 -0.49024931946E+03  0.49024931946E+03  0.00000000000E+00 0. -1.
        -24    2    1    2    0    0 -0.66060303609E+02 -0.84464292732E+02 -0.26371344542E+03  0.29475374086E+03  0.76398992118E+02 0.  0.
         23    2    1    2    0    0 -0.15865408068E+02 -0.39603621471E+02 -0.12482575676E+03  0.15611600447E+03  0.83489995183E+02 0.  0.
         13    1    3    3    0    0 -0.50608242604E+02 -0.89214031718E+02 -0.25794539904E+03  0.27758992518E+03  0.00000000000E+00 0. -1.
        -14    1    3    3    0    0 -0.15452061004E+02  0.47497389857E+01 -0.57680463790E+01  0.17163815681E+02  0.00000000000E+00 0.  1.
        -13    1    4    4    0    0  0.15992621811E+02 -0.55773936456E+02 -0.76117779147E+02  0.95710042537E+02  0.00000000000E+00 0.  1.
         13    1    4    4    0    0 -0.31858029879E+02  0.16170314984E+02 -0.48707977609E+02  0.60405961935E+02  0.00000000000E+00 0. -1.
          2    1    1    2  501    0  0.81925711677E+02  0.12406791420E+03  0.77906774186E+01  0.14888036883E+03  0.00000000000E+00 0. -1.
<scales pt_clust_5="13000.00000" pt_clust_6="13000.00000" pt_clust_7="13000.00000" pt_clust_8="13000.00000" pt_clust_9="148.67639"></scales>
<clustering>
<clus scale="   76.399">  5  6 -1 -1</clus>
<clus scale="   83.490">  7  8 -1 -1</clus>
<clus scale="   84.481">  5  7 -1 -1</clus>
<clus scale="  148.676">  1  9  2 -1</clus>
<clus scale="  148.676">  1  5  2 -1</clus>
</clustering>
</event>
<event>
 9    1  0.3197504E-005  0.9752320E+02  0.7546771E-02  0.1286847E+00
          1   -1    0    0  502    0 -0.00000000000E+00  0.00000000000E+00  0.51855046128E+03  0.51855046128E+03  0.00000000000E+00 0. -1.
         21   -1    0    0  501  502  0.00000000000E+00 -0.00000000000E+00 -0.10645702892E+03  0.10645702892E+03  0.00000000000E+00 0. -1.
        -24    2    1    2    0    0 -0.36511936385E+02 -0.17309482201E+01  0.38139622532E+03  0.39296970614E+03  0.87326923503E+02 0.  0.
         23    2    1    2    0    0  0.41090159014E+02 -0.38158084279E+02  0.10403095856E+03  0.14843195802E+03  0.89806265132E+02 0.  0.
         11    1    3    3    0    0 -0.62660699870E+02  0.83023311775E+01  0.30782897431E+03  0.31425144301E+03  0.00000000000E+00 0. -1.
        -12    1    3    3    0    0  0.26148763485E+02 -0.10033279398E+02  0.73567251018E+02  0.78718263126E+02  0.00000000000E+00 0.  1.
        -13    1    4    4    0    0  0.33848416163E+01  0.28755671600E+02  0.25442518994E+02  0.38544358533E+02  0.00000000000E+00 0.  1.
         13    1    4    4    0    0  0.37705317398E+02 -0.66913755880E+02  0.78588439570E+02  0.10988759948E+03  0.00000000000E+00 0. -1.
          2    1    1    2  501    0 -0.45782226290E+01  0.39889032499E+02 -0.73333751523E+02  0.83605826045E+02  0.00000000000E+00 0. -1.
<scales pt_clust_5="13000.00000" pt_clust_6="13000.00000" pt_clust_7="13000.00000" pt_clust_8="13000.00000" pt_clust_9="40.15090"></scales>
<clustering>
<clus scale="   40.151">  2  9  1 -1</clus>
<clus scale="   87.327">  5  6 -1 -1</clus>
<clus scale="   89.806">  7  8 -1 -1</clus>
<clus scale="   95.245">  1  5  2 -1</clus>
<clus scale="   40.151">  2  5  1 -1</clus>
</clustering>
</event>
<event>
 9    1  0.3197504E-005  0.2216401E+03  0.7546771E-02  0.1151375E+00
         -4   -1    0    0    0  501 -0.00000000000E+00  0.00000000000E+00  0.73475046422E+03  0.73475046422E+03  0.00000000000E+00 0.  1.
         21   -1    0    0  501  502  0.00000000000E+00 -0.00000000000E+00 -0.12871648295E+03  0.12871648295E+03  0.00000000000E+00 0. -1.
        -24    2    1    2    0    0  0.79063988962E+02  0.86082232187E+02  0.60580976935E+02  0.15380464138E+03  0.79527026199E+02 0.  0.
         23    2    1    2    0    0 -0.23284541540E+03 -0.31382417219E+02  0.18110194274E+03  0.31042241179E+03  0.91445702424E+02 0.  0.
         13    1    3    3    0    0  0.14942821713E+02  0.59085649024E+02  0.58078081363E+02  0.84187085566E+02  0.00000000000E+00 0. -1.
        -14    1    3    3    0    0  0.64121167249E+02  0.26996583164E+02  0.25028955719E+01  0.69617555818E+02  0.00000000000E+00 0.  1.
        -11    1    4    4    0    0 -0.18716529970E+03  0.58815629559E+01  0.16431291499E+03  0.24912682759E+03  0.00000000000E+00 0.  1.
         11    1    4    4    0    0 -0.45680115699E+02 -0.37263980175E+02  0.16789027753E+02  0.61295584193E+02  0.00000000000E+00 0. -1.
         -3    1    1    2    0  502  0.15378142644E+03 -0.54699814968E+02  0.36435106159E+03  0.39923989400E+03  0.00000000000E+00 0.  1.
<scales pt_clust_5="13000.00000" pt_clust_6="13000.00000" pt_clust_7="13000.00000" pt_clust_8="13000.00000" pt_clust_9="201.89615"></scales>
<clustering>
<clus scale="   79.527">  5  6 -1 -1</clus>
<clus scale="   91.446">  7  8 -1 -1</clus>
<clus scale="  141.371">  1  5  2 -1</clus>
<clus scale="  201.896">  2  9  1 -1</clus>
<clus scale="  201.896">  2  5  1 -1</clus>
</clustering>
</event>
<event>
 9    1  0.3197504E-005  0.8182582E+02  0.7546771E-02  0.1327892E+00
         -2   -1    0    0    0  501 -0.00000000000E+00  0.00000000000E+00  0.18560668625E+03  0.18560668625E+03  0.00000000000E+00 0.  1.
         21   -1    0    0  501  502  0.00000000000E+00 -0.00000000000E+00 -0.75593845288E+02  0.75593845288E+02  0.00000000000E+00 0.  1.
        -24    2    1    2    0    0 -0.31102754812E+02 -0.11470418996E+02  0.11940055665E+03  0.14675311839E+03  0.78619545649E+02 0.  0.
         23    2    1    2    0    0 -0.83746636575E+01  0.51903973818E+01 -0.62989696478E+00  0.73525479800E+02  0.72859619772E+02 0.  0.
         11    1    3    3    0    0 -0.22211973716E+02 -0.40105054295E+02  0.36511334658E+02  0.58607718902E+02  0.00000000000E+00 0. -1.
        -12    1    3    3    0    0 -0.88907810965E+01  0.28634635299E+02  0.82889221995E+02  0.88145399484E+02  0.00000000000E+00 0.  1.
        -11    1    4    4    0    0  0.11510607271E+02 -0.17284951236E+02 -0.26664155189E+02  0.33797052992E+02  0.00000000000E+00 0.  1.
         11    1    4    4    0    0 -0.19885270929E+02  0.22475348618E+02  0.26034258224E+02  0.39728426808E+02  0.00000000000E+00 0. -1.
         -1    1    1    2    0  502  0.39477418470E+02  0.62800216139E+01 -0.87578187248E+01  0.40921933353E+02  0.00000000000E+00 0.  1.
<scales pt_clust_5="13000.00000" pt_clust_6="13000.00000" pt_clust_7="13000.00000" pt_clust_8="13000.00000" pt_clust_9="39.97381"></scales>
<clustering>
<clus scale="   39.974">  2  9  1 -1</clus>
<clus scale="   72.860">  7  8 -1 -1</clus>
<clus scale="   76.308">  2  7  1 -1</clus>
<clus scale="   78.620">  5  6 -1 -1</clus>
<clus scale="   39.974">  2  5  1 -1</clus>
</clustering>
</event>
<event>
 9    1  0.3197504E-005  0.1408633E+03  0.7546771E-02  0.1217833E+00
          1   -1    0    0  502    0 -0.00000000000E+00  0.00000000000E+00  0.54930760867E+03  0.54930760867E+03  0.00000000000E+00 0. -1.
         21   -1    0    0  501  502  0.00000000000E+00 -0.00000000000E+00 -0.12224197709E+03  0.12224197709E+03  0.00000000000E+00 0. -1.
         23    2    1    2    0    0  0.10565300337E+03 -0.49174746670E+02  0.47414017806E+03  0.49655217419E+03  0.90412611990E+02 0.  0.
        -24    2    1    2    0    0 -0.72472426666E+02  0.23773708368E+02  0.15236754987E+02  0.99971671262E+02  0.62807121538E+02 0.  0.
         11    1    4    4    0    0 -0.54875482950E+02  0.45059528542E+02  0.13676337378E+02  0.72309902126E+02  0.00000000000E+00 0. -1.
        -12    1    4    4    0    0 -0.17596943716E+02 -0.21285820173E+02  0.15604176093E+01  0.27661769136E+02  0.00000000000E+00 0.  1.
        -11    1    3    3    0    0  0.10054321334E+03 -0.26396651098E+01  0.33208804401E+03  0.34698468922E+03  0.00000000000E+00 0. -1.
         11    1    3    3    0    0  0.51097900299E+01 -0.46535081560E+02  0.14205213406E+03  0.14956748497E+03  0.00000000000E+00 0.  1.
          2    1    1    2  501    0 -0.33180576709E+02  0.25401038302E+02 -0.62311301471E+02  0.75025740307E+02  0.00000000000E+00 0. -1.
<scales pt_clust_5="13000.00000" pt_clust_6="13000.00000" pt_clust_7="13000.00000" pt_clust_8="13000.00000" pt_clust_9="41.78712"></scales>
<clustering>
<clus scale="   41.787">  2  9  1 -1</clus>
<clus scale="   62.807">  5  6 -1 -1</clus>
<clus scale="   90.413">  7  8 -1 -1</clus>
<clus scale="  124.951">  2  5  1 -1</clus>
<clus scale="   41.787">  2  5  1 -1</clus>
</clustering>
</event>
<event>
 9    1  0.3197504E-005  0.1050941E+03  0.7546771E-02  0.1273592E+00
          1   -1    0    0  502    0 -0.00000000000E+00  0.00000000000E+00  0.16324209779E+03  0.16324209779E+03  0.00000000000E+00 0. -1.
         21   -1    0    0  501  502  0.00000000000E+00 -0.00000000000E+00 -0.11645885880E+03  0.11645885880E+03  0.00000000000E+00 0. -1.
         23    2    1    2    0    0  0.30859064809E+02 -0.82173411702E-01  0.26018614305E+02  0.98722950049E+02  0.90094194833E+02 0.  0.
        -24    2    1    2    0    0 -0.88445541727E+02  0.11978851207E+02  0.12535350813E+02  0.12160247105E+03  0.81632831736E+02 0.  0.
         11    1    4    4    0    0 -0.86273294557E+02 -0.13044605174E+02  0.28559241987E+02  0.91808895979E+02  0.00000000000E+00 0. -1.
        -12    1    4    4    0    0 -0.21722471691E+01  0.25023456381E+02 -0.16023891174E+02  0.29793575068E+02  0.00000000000E+00 0.  1.
        -13    1    3    3    0    0  0.29816641996E+01  0.42660689065E+02  0.33854158154E+01  0.42898551877E+02  0.00000000000E+00 0. -1.
         13    1    3    3    0    0  0.27877400610E+02 -0.42742862476E+02  0.22633198490E+02  0.55824398172E+02  0.00000000000E+00 0.  1.
          2    1    1    2  501    0  0.57586476917E+02 -0.11896677795E+02  0.82292738765E+01  0.59375535491E+02  0.00000000000E+00 0. -1.
<scales pt_clust_5="13000.00000" pt_clust_6="13000.00000" pt_clust_7="13000.00000" pt_clust_8="13000.00000" pt_clust_9="58.80249"></scales>
<clustering>
<clus scale="   58.802">  2  9  1 -1</clus>
<clus scale="   81.633">  5  6 -1 -1</clus>
<clus scale="   90.094">  7  8 -1 -1</clus>
<clus scale="   97.937">  2  5  1 -1</clus>
<clus scale="   58.802">  2  5  1 -1</clus>
</clustering>
</event>
<event>
 9    1  0.3197504E-005  0.9163878E+02  0.7546771E-02  0.1308579E+00
          1   -1    0    0  502    0 -0.00000000000E+00  0.00000000000E+00  0.96170174197E+02  0.96170174197E+02  0.00000000000E+00 0. -1.
         21   -1    0    0  501  502  0.00000000000E+00 -0.00000000000E+00 -0.11596058211E+03  0.11596058211E+03  0.00000000000E+00 0. -1.
         23    2    1    2    0    0 -0.70328678124E+01  0.63972087321E+01 -0.13657413077E+02  0.92490003298E+02  0.90980713719E+02 0.  0.
        -24    2    1    2    0    0  0.48174615233E+01  0.25004937474E+02 -0.23708988437E+02  0.83586372383E+02  0.76000728167E+02 0.  0.
         13    1    4    4    0    0 -0.13784882384E+02 -0.22483555418E+02 -0.18718871787E+02  0.32340831893E+02  0.00000000000E+00 0. -1.
        -14    1    4    4    0    0  0.18602343907E+02  0.47488492892E+02 -0.49901166501E+01  0.51245540490E+02  0.00000000000E+00 0.  1.
        -11    1    3    3    0    0 -0.98150624392E+01  0.44982206081E+02  0.10041418461E+02  0.47122864931E+02  0.00000000000E+00 0. -1.
         11    1    3    3    0    0  0.27821946268E+01 -0.38584997348E+02 -0.23698831539E+02  0.45367138367E+02  0.00000000000E+00 0.  1.
          2    1    1    2  501    0  0.22154062892E+01 -0.31402146206E+02  0.17575993600E+02  0.36054380627E+02  0.00000000000E+00 0. -1.
<scales pt_clust_5="13000.00000" pt_clust_6="13000.00000" pt_clust_7="13000.00000" pt_clust_8="13000.00000" pt_clust_9="31.48021"></scales>
<clustering>
<clus scale="   31.480">  2  9  1 -1</clus>
<clus scale="   76.001">  5  6 -1 -1</clus>
<clus scale="   76.787">  2  5  1 -1</clus>
<clus scale="   90.981">  7  8 -1 -1</clus>
<clus scale="   31.480">  2  5  1 -1</clus>
</clustering>
</event>
<event>
 9    1  0.3197504E-005  0.2208593E+03  0.7546771E-02  0.1156178E+00
         21   -1    0    0  501  502  0.00000000000E+00  0.00000000000E+00  0.10062003675E+03  0.10062003675E+03  0.00000000000E+00 0.  1.
         -4   -1    0    0    0  501 -0.00000000000E+00 -0.00000000000E+00 -0.89791148698E+03  0.89791148698E+03  0.00000000000E+00 0.  1.
        -24    2    1    2    0    0  0.56164072800E+02 -0.78674580381E+02 -0.33363229043E+03  0.35720183524E+03  0.83297978413E+02 0.  0.
         23    2    1    2    0    0 -0.10116814252E+03 -0.14136792296E+03 -0.31885728143E+03  0.37410009890E+03  0.89783268920E+02 0.  0.
         13    1    3    3    0    0  0.81574600990E+01 -0.70422349195E+02 -0.25529173060E+03  0.26495229595E+03  0.00000000000E+00 0. -1.
        -14    1    3    3    0    0  0.48006612701E+02 -0.82522311857E+01 -0.78340559835E+02  0.92249539283E+02  0.00000000000E+00 0.  1.
        -13    1    4    4    0    0 -0.86580467229E+02 -0.71424054898E+02 -0.25363187340E+03  0.27735662986E+03  0.00000000000E+00 0.  1.
         13    1    4    4    0    0 -0.14587675286E+02 -0.69943868065E+02 -0.65225408029E+02  0.96743469044E+02  0.00000000000E+00 0. -1.
         -3    1    1    2    0  502  0.45004069715E+02  0.22004250334E+03 -0.14480187838E+03  0.26722958959E+03  0.00000000000E+00 0.  1.
<scales pt_clust_5="13000.00000" pt_clust_6="13000.00000" pt_clust_7="13000.00000" pt_clust_8="13000.00000" pt_clust_9="201.78647"></scales>
<clustering>
<clus scale="   83.298">  5  6 -1 -1</clus>
<clus scale="   89.783">  7  8 -1 -1</clus>
<clus scale="  127.603">  2  5  1 -1</clus>
<clus scale="  201.786">  1  9  2 -1</clus>
<clus scale="  201.786">  1  5  2 -1</clus>
</clustering>
</event>
<event>
 9    1  0.3197504E-005  0.1041601E+03  0.7546771E-02  0.1284877E+00
          1   -1    0    0  502    0 -0.00000000000E+00  0.00000000000E+00  0.19068138819E+03  0.19068138819E+03  0.00000000000E+00 0. -1.
         21   -1    0    0  501  502  0.00000000000E+00 -0.00000000000E+00 -0.24979252964E+03  0.24979252964E+03  0.00000000000E+00 0.  1.
        -24    2    1    2    0    0 -0.26983137588E+02 -0.52947681263E+02  0.14191159172E+03  0.16528836605E+03  0.60413553295E+02 0.  0.
         23    2    1    2    0    0 -0.29333891358E+02 -0.82478178982E+01 -0.15171528429E+03  0.17850193693E+03  0.88977021293E+02 0.  0.
         13    1    3    3    0    0 -0.36869047854E+02 -0.58004423737E+02  0.13673490171E+03  0.15303683611E+03  0.00000000000E+00 0. -1.
        -14    1    3    3    0    0  0.98859102662E+01  0.50567424742E+01  0.51766900078E+01  0.12251529932E+02  0.00000000000E+00 0.  1.
        -11    1    4    4    0    0 -0.23472740268E+02  0.19760730833E+02 -0.14616828312E+03  0.14935401906E+03  0.00000000000E+00 0.  1.
         11    1    4    4    0    0 -0.58611510895E+01 -0.28008548731E+02 -0.55470011674E+01  0.29147917869E+02  0.00000000000E+00 0. -1.
          2    1    1    2  501    0  0.56317028945E+02  0.61195499161E+02 -0.49307448875E+02  0.96683614855E+02  0.00000000000E+00 0. -1.
<scales pt_clust_5="13000.00000" pt_clust_6="13000.00000" pt_clust_7="13000.00000" pt_clust_8="13000.00000" pt_clust_9="83.16548"></scales>
<clustering>
<clus scale="   60.414">  5  6 -1 -1</clus>
<clus scale="   83.165">  2  9  1 -1</clus>
<clus scale="   81.131">  1  5  2 -1</clus>
<clus scale="   88.977">  7  8 -1 -1</clus>
<clus scale="   83.165">  2  5  1 -1</clus>
</clustering>
</event>
<event>
 9    1  0.3197504E-005  0.1058429E+03  0.7546771E-02  0.1273942E+00
         21   -1    0    0  501  502  0.00000000000E+00  0.00000000000E+00  0.63376551419E+02  0.63376551419E+02  0.00000000000E+00 0.  1.
         -2   -1    0    0    0  501 -0.00000000000E+00 -0.00000000000E+00 -0.32039862329E+03  0.32039862329E+03  0.00000000000E+00 0.  1.
        -24    2    1    2    0    0 -0.44528571021E+02 -0.20849405832E+02 -0.15407887737E+03  0.17985574935E+03  0.78678451704E+02 0.  0.
         23    2    1    2    0    0  0.63712553795E+02  0.25347300909E+01 -0.12646178243E+03  0.16847120226E+03  0.91237323540E+02 0.  0.
         13    1    3    3    0    0 -0.38173833931E+02 -0.49584938132E+02 -0.11514186342E+03  0.13104791642E+03  0.00000000000E+00 0. -1.
        -14    1    3    3    0    0 -0.63547370902E+01  0.28735532300E+02 -0.38937013949E+02  0.48807832930E+02  0.00000000000E+00 0.  1.
        -11    1    4    4    0    0  0.61018041804E+02  0.40504973908E+02 -0.84049628562E+02  0.11148181196E+03  0.00000000000E+00 0.  1.
         11    1    4    4    0    0  0.26945119907E+01 -0.37970243817E+02 -0.42412153870E+02  0.56989390296E+02  0.00000000000E+00 0. -1.
         -1    1    1    2    0  502 -0.19183982774E+02  0.18314675741E+02  0.23518587931E+02  0.35448223098E+02  0.00000000000E+00 0.  1.
<scales pt_clust_5="13000.00000" pt_clust_6="13000.00000" pt_clust_7="13000.00000" pt_clust_8="13000.00000" pt_clust_9="26.52268"></scales>
<clustering>
<clus scale="   26.523">  1  9  2 -1</clus>
<clus scale="   78.678">  5  6 -1 -1</clus>
<clus scale="   91.237">  7  8 -1 -1</clus>
<clus scale="   95.230">  2  5  1 -1</clus>
<clus scale="   26.523">  1  5  2 -1</clus>
</clustering>
</event>
<event>
 9    1  0.3197504E-005  0.3250086E+03  0.7546771E-02  0.1116582E+00
         21   -1    0    0  501  502  0.00000000000E+00  0.00000000000E+00  0.94735278085E+03  0.94735278085E+03  0.00000000000E+00 0. -1.
          1   -1    0    0  502    0 -0.00000000000E+00 -0.00000000000E+00 -0.25823488718E+03  0.25823488718E+03  0.00000000000E+00 0. -1.
        -24    2    1    2    0    0  0.44811836996E+02  0.49757888489E+02  0.34988430314E+02  0.11043764918E+03  0.80550207323E+02 0.  0.
         23    2    1    2    0    0  0.26692792387E+03 -0.10404062946E+03 -0.65978958360E+02  0.30858506063E+03  0.93789911933E+02 0.  0.
         11    1    3    3    0    0  0.16132509922E+02  0.51537878538E+02  0.53691515788E+02  0.76152410784E+02  0.00000000000E+00 0. -1.
        -12    1    3    3    0    0  0.28679327074E+02 -0.17799900490E+01 -0.18703085474E+02  0.34285238401E+02  0.00000000000E+00 0.  1.
        -11    1    4    4    0    0  0.17986974309E+03 -0.76153205700E+02  0.88074720204E+00  0.19532846933E+03  0.00000000000E+00 0.  1.
         11    1    4    4    0    0  0.87058180784E+02 -0.27887423758E+02 -0.66859705562E+02  0.11325659130E+03  0.00000000000E+00 0. -1.
          2    1    1    2  501    0 -0.31173976087E+03  0.54282740969E+02  0.72010842172E+03  0.78656495822E+03  0.00000000000E+00 0. -1.
<scales pt_clust_5="13000.00000" pt_clust_6="13000.00000" pt_clust_7="13000.00000" pt_clust_8="13000.00000" pt_clust_9="311.18164"></scales>
<clustering>
<clus scale="   80.550">  5  6 -1 -1</clus>
<clus scale="   93.790">  7  8 -1 -1</clus>
<clus scale="  104.749">  2  5  1 -1</clus>
<clus scale="  311.182">  1  9  2 -1</clus>
<clus scale="  311.182">  1  5  2 -1</clus>
</clustering>
</event>
<event>
 9    1  0.3197504E-005  0.9478553E+02  0.7546771E-02  0.1298338E+00
         -4   -1    0    0    0  501 -0.00000000000E+00  0.00000000000E+00  0.17966099049E+03  0.17966099049E+03  0.00000000000E+00 0.  1.
         21   -1    0    0  501  502  0.00000000000E+00 -0.00000000000E+00 -0.86071218245E+02  0.86071218245E+02  0.00000000000E+00 0.  1.
        -24    2    1    2    0    0 -0.27443925131E+02  0.14390912513E+02  0.10583787156E+03  0.13661169224E+03  0.80627737230E+02 0.  0.
         23    2    1    2    0    0 -0.31276561410E+01  0.51377515747E+01 -0.83621186290E+01  0.92636394628E+02  0.92061924037E+02 0.  0.
         11    1    3    3    0    0 -0.11701352339E+02 -0.19521797410E+02 -0.16372252344E+01  0.22818911612E+02  0.00000000000E+00 0. -1.
        -12    1    3    3    0    0 -0.15742572792E+02  0.33912709923E+02  0.10747509679E+03  0.11379278063E+03  0.00000000000E+00 0.  1.
        -11    1    4    4    0    0  0.41986936697E+02  0.91578515635E+01 -0.17551779314E+02  0.46420190171E+02  0.00000000000E+00 0. -1.
         11    1    4    4    0    0 -0.45114592838E+02 -0.40200999888E+01  0.91896606852E+01  0.46216204456E+02  0.00000000000E+00 0.  1.
         -3    1    1    2    0  502  0.30571581272E+02 -0.19528664087E+02 -0.38859806851E+01  0.36484121867E+02  0.00000000000E+00 0.  1.
<scales pt_clust_5="13000.00000" pt_clust_6="13000.00000" pt_clust_7="13000.00000" pt_clust_8="13000.00000" pt_clust_9="36.27658"></scales>
<clustering>
<clus scale="   36.277">  2  9  1 -1</clus>
<clus scale="   80.628">  5  6 -1 -1</clus>
<clus scale="   83.724">  1  5  2 -1</clus>
<clus scale="   92.062">  7  8 -1 -1</clus>
<clus scale="   36.277">  2  5  1 -1</clus>
</clustering>
</event>
<event>
 9    1  0.3197504E-005  0.1049637E+03  0.7546771E-02  0.1277643E+00
         21   -1    0    0  501  502  0.00000000000E+00  0.00000000000E+00  0.75863110703E+03  0.75863110703E+03  0.00000000000E+00 0.  1.
         -2   -1    0    0    0  501 -0.00000000000E+00 -0.00000000000E+00 -0.36087957655E+02  0.36087957655E+02  0.00000000000E+00 0.  1.
        -24    2    1    2    0    0 -0.63739914089E+02  0.55979760081E+01  0.10313247876E+03  0.14642765309E+03  0.81918468198E+02 0.  0.
         23    2    1    2    0    0 -0.15935287981E+02  0.26210572863E+02  0.27306191162E+03  0.29147579469E+03  0.97233758443E+02 0.  0.
         13    1    3    3    0    0  0.10871612433E+02  0.24570770826E+02  0.24036058455E+02  0.36050615000E+02  0.00000000000E+00 0. -1.
        -14    1    3    3    0    0 -0.74611526522E+02 -0.18972794818E+02  0.79096420303E+02  0.11037703809E+03  0.00000000000E+00 0.  1.
        -11    1    4    4    0    0 -0.17246575547E+02 -0.22068524408E+02  0.21471130665E+02  0.35291267896E+02  0.00000000000E+00 0. -1.
         11    1    4    4    0    0  0.13112875659E+01  0.48279097271E+02  0.25159078095E+03  0.25618452680E+03  0.00000000000E+00 0.  1.
         -1    1    1    2    0  502  0.79675202070E+02 -0.31808548872E+02  0.34634875900E+03  0.35681561691E+03  0.00000000000E+00 0.  1.
<scales pt_clust_5="13000.00000" pt_clust_6="13000.00000" pt_clust_7="13000.00000" pt_clust_8="13000.00000" pt_clust_9="85.78999"></scales>
<clustering>
<clus scale="   81.918">  5  6 -1 -1</clus>
<clus scale="   85.790">  1  9  2 -1</clus>
<clus scale="   90.959">  2  5  1 -1</clus>
<clus scale="   97.234">  7  8 -1 -1</clus>
<clus scale="   85.790">  1  5  2 -1</clus>
</clustering>
</event>
<event>
 9    1  0.3197504E-005  0.9263092E+02  0.7546771E-02  0.1305097E+00
         -2   -1    0    0    0  501 -0.00000000000E+00  0.00000000000E+00  0.50988289919E+02  0.50988289919E+02  0.00000000000E+00 0.  1.
         21   -1    0    0  501  502  0.00000000000E+00 -0.00000000000E+00 -0.35258476378E+03  0.35258476378E+03  0.00000000000E+00 0.  1.
         23    2    1    2    0    0  0.29379230458E+02 -0.86546796526E+00 -0.35740943198E+02  0.10191920333E+03  0.90808704266E+02 0.  0.
        -24    2    1    2    0    0  0.17998284554E+02 -0.29881701461E+02 -0.17989992426E+03  0.19880258091E+03  0.77081963512E+02 0.  0.
         13    1    4    4    0    0  0.77339209477E+01 -0.21786637858E+02 -0.53056853451E+01  0.23719642058E+02  0.00000000000E+00 0. -1.
        -14    1    4    4    0    0  0.10264363607E+02 -0.80950636033E+01 -0.17459423892E+03  0.17508293885E+03  0.00000000000E+00 0.  1.
        -11    1    3    3    0    0  0.60181812362E+02 -0.42026191370E+01 -0.90073794014E+01  0.60997093623E+02  0.00000000000E+00 0.  1.
         11    1    3    3    0    0 -0.30802581904E+02  0.33371511717E+01 -0.26733563796E+02  0.40922109710E+02  0.00000000000E+00 0. -1.
         -1    1    1    2    0  502 -0.47377515012E+02  0.30747169426E+02 -0.85955606403E+02  0.10285126946E+03  0.00000000000E+00 0.  1.
<scales pt_clust_5="13000.00000" pt_clust_6="13000.00000" pt_clust_7="13000.00000" pt_clust_8="13000.00000" pt_clust_9="56.48024"></scales>
<clustering>
<clus scale="   56.480">  2  9  1 -1</clus>
<clus scale="   77.082">  5  6 -1 -1</clus>
<clus scale="   79.221">  2  5  1 -1</clus>
<clus scale="   90.809">  7  8 -1 -1</clus>
<clus scale="   56.480">  2  5  1 -1</clus>
</clustering>
</event>
<event>
 9    1  0.3197504E-005  0.1471522E+03  0.7546771E-02  0.1226714E+00
         21   -1    0    0  501  502  0.00000000000E+00  0.00000000000E+00  0.11391916608E+03  0.11391916608E+03  0.00000000000E+00 0.  1.
          1   -1    0    0  502    0 -0.00000000000E+00 -0.00000000000E+00 -0.52743623136E+03  0.52743623136E+03  0.00000000000E+00 0. -1.
        -24    2    1    2    0    0 -0.14624738844E+02 -0.38557595758E+02 -0.32915807984E+03  0.34151217901E+03  0.81147740003E+02 0.  0.
         23    2    1    2    0    0 -0.84601961367E+02  0.95862512107E+02 -0.98273578556E+02  0.18441615326E+03  0.89467917409E+02 0.  0.
         11    1    3    3    0    0  0.19351317321E+02  0.13751723363E+02 -0.48398917702E+02  0.53907686022E+02  0.00000000000E+00 0. -1.
        -12    1    3    3    0    0 -0.33976056166E+02 -0.52309319120E+02 -0.28075916214E+03  0.28760449299E+03  0.00000000000E+00 0.  1.
        -13    1    4    4    0    0 -0.35032011874E+02  0.51185658323E+02 -0.99985530955E+02  0.11766188794E+03  0.00000000000E+00 0. -1.
         13    1    4    4    0    0 -0.49569949494E+02  0.44676853783E+02  0.17119523983E+01  0.66754265315E+02  0.00000000000E+00 0.  1.
          2    1    1    2  501    0  0.99226700212E+02 -0.57304916349E+02  0.13914593126E+02  0.11542706517E+03  0.00000000000E+00 0. -1.
<scales pt_clust_5="13000.00000" pt_clust_6="13000.00000" pt_clust_7="13000.00000" pt_clust_8="13000.00000" pt_clust_9="116.83004"></scales>
<clustering>
<clus scale="   81.148">  5  6 -1 -1</clus>
<clus scale="   89.468">  7  8 -1 -1</clus>
<clus scale="   91.025">  2  5  1 -1</clus>
<clus scale="  116.830">  1  9  2 -1</clus>
<clus scale="  116.830">  1  5  2 -1</clus>
</clustering>
</event>
<event>
 9    1  0.3197504E-005  0.9248178E+02  0.7546771E-02  0.1303168E+00
          3   -1    0    0  502    0 -0.00000000000E+00  0.00000000000E+00  0.97942710140E+02  0.97942710140E+02  0.00000000000E+00 0. -1.
         21   -1    0    0  501  502  0.00000000000E+00 -0.00000000000E+00 -0.15064962248E+03  0.15064962248E+03  0.00000000000E+00 0. -1.
         23    2    1    2    0    0 -0.41667724635E+01  0.95413648854E+01  0.76693730327E+01  0.92325028852E+02  0.91414944255E+02 0.  0.
        -24    2    1    2    0    0 -0.38105119696E+02  0.14004953273E+02 -0.19474449909E+02  0.92908783348E+02  0.81268991385E+02 0.  0.
         11    1    4    4    0    0 -0.34923782648E+02  0.44697498574E+02 -0.24240669108E+02  0.61685873683E+02  0.00000000000E+00 0. -1.
        -12    1    4    4    0    0 -0.31813370478E+01 -0.30692545301E+02  0.47662191996E+01  0.31222909665E+02  0.00000000000E+00 0.  1.
        -13    1    3    3    0    0  0.35143405691E+02  0.25887798701E+02  0.19984172398E+02  0.48006293666E+02  0.00000000000E+00 0.  1.
         13    1    3    3    0    0 -0.39310178154E+02 -0.16346433816E+02 -0.12314799365E+02  0.44318735185E+02  0.00000000000E+00 0. -1.
          4    1    1    2  501    0  0.42271892160E+02 -0.23546318158E+02 -0.40901835464E+02  0.63358520421E+02  0.00000000000E+00 0. -1.
<scales pt_clust_5="13000.00000" pt_clust_6="13000.00000" pt_clust_7="13000.00000" pt_clust_8="13000.00000" pt_clust_9="48.38742"></scales>
<clustering>
<clus scale="   48.387">  2  9  1 -1</clus>
<clus scale="   81.269">  5  6 -1 -1</clus>
<clus scale="   82.467">  2  5  1 -1</clus>
<clus scale="   91.415">  7  8 -1 -1</clus>
<clus scale="   48.387">  2  5  1 -1</clus>
</clustering>
</event>
<event>
 9    1  0.5545287E-005  0.1116690E+03  0.7546771E-02  0.1261447E+00
          1   -1    0    0  502    0 -0.00000000000E+00  0.00000000000E+00  0.31122321606E+03  0.31122321606E+03  0.00000000000E+00 0. -1.
         21   -1    0    0  501  502  0.00000000000E+00 -0.00000000000E+00 -0.23590555958E+03  0.23590555958E+03  0.00000000000E+00 0. -1.
         23    2    1    2    0    0  0.69158395863E+02 -0.42379960467E+02  0.22779987508E+03  0.25816624435E+03  0.90432747738E+02 0.  0.
        -24    2    1    2    0    0 -0.42184935103E+02 -0.42798701059E+02  0.13058720829E+02  0.10084880348E+03  0.79929052365E+02 0.  0.
         13    1    4    4    0    0  0.85336548388E+01 -0.41574334509E+02 -0.12221553251E+02  0.44165766365E+02  0.00000000000E+00 0. -1.
        -14    1    4    4    0    0 -0.50718589942E+02 -0.12243665497E+01  0.25280274080E+02  0.56683037116E+02  0.00000000000E+00 0.  1.
        -13    1    3    3    0    0  0.20150097371E+02  0.20783277596E+02  0.19108477188E+02  0.34685803323E+02  0.00000000000E+00 0.  1.
         13    1    3    3    0    0  0.49008298492E+02 -0.63163238063E+02  0.20869139790E+03  0.22348044102E+03  0.00000000000E+00 0. -1.
          2    1    1    2  501    0 -0.26973460760E+02  0.85178661525E+02 -0.16554093943E+03  0.18811372782E+03  0.00000000000E+00 0. -1.
<scales pt_clust_5="13000.00000" pt_clust_6="13000.00000" pt_clust_7="13000.00000" pt_clust_8="13000.00000" pt_clust_9="89.34748"></scales>
<clustering>
<clus scale="   79.929">  5  6 -1 -1</clus>
<clus scale="   89.347">  2  9  1 -1</clus>
<clus scale="   90.433">  7  8 -1 -1</clus>
<clus scale="  103.347">  2  5  1 -1</clus>
<clus scale="   89.347">  2  5  1 -1</clus>
</clustering>
</event>
<event>
 9    1  0.3197504E-005  0.9278400E+02  0.7546771E-02  0.1300031E+00
          1   -1    0    0  502    0 -0.00000000000E+00  0.00000000000E+00  0.21001756532E+03  0.21001756532E+03  0.00000000000E+00 0. -1.
         21   -1    0    0  501  502  0.00000000000E+00 -0.00000000000E+00 -0.74633130848E+02  0.74633130848E+02  0.00000000000E+00 0.  1.
         23    2    1    2    0    0  0.27876811642E+02 -0.26242585391E+02  0.12876740525E+03  0.16023407082E+03  0.87339125724E+02 0.  0.
        -24    2    1    2    0    0 -0.22094005243E+02  0.19145646886E+01  0.31276509675E+02  0.89297066444E+02  0.80646980057E+02 0.  0.
         11    1    4    4    0    0  0.15592153834E+02 -0.28402281683E+02  0.24143856892E+02  0.40407062398E+02  0.00000000000E+00 0. -1.
        -12    1    4    4    0    0 -0.37686159077E+02  0.30316846371E+02  0.71326527826E+01  0.48890004046E+02  0.00000000000E+00 0.  1.
        -11    1    3    3    0    0  0.39975093508E+02 -0.46627217388E+02  0.12028485593E+03  0.13505758797E+03  0.00000000000E+00 0. -1.
         11    1    3    3    0    0 -0.12098281866E+02  0.20384631997E+02  0.84825493177E+01  0.25176482850E+02  0.00000000000E+00 0.  1.
          2    1    1    2  501    0 -0.57828063991E+01  0.24328020702E+02 -0.24659480455E+02  0.35119558901E+02  0.00000000000E+00 0. -1.
<scales pt_clust_5="13000.00000" pt_clust_6="13000.00000" pt_clust_7="13000.00000" pt_clust_8="13000.00000" pt_clust_9="25.00587"></scales>
<clustering>
<clus scale="   25.006">  2  9  1 -1</clus>
<clus scale="   80.647">  5  6 -1 -1</clus>
<clus scale="   86.514">  2  5  1 -1</clus>
<clus scale="   87.339">  7  8 -1 -1</clus>
<clus scale="   25.006">  2  5  1 -1</clus>
</clustering>
</event>
<event>
 9    1  0.3478094E-005  0.9822083E+02  0.7546771E-02  0.1289730E+00
          1   -1    0    0  502    0 -0.00000000000E+00  0.00000000000E+00  0.27725883645E+03  0.27725883645E+03  0.00000000000E+00 0. -1.
         21   -1    0    0  501  502  0.00000000000E+00 -0.00000000000E+00 -0.21329706347E+03  0.21329706347E+03  0.00000000000E+00 0. -1.
        -24    2    1    2    0    0  0.25751942496E+02  0.34658930526E+02  0.21533457644E+03  0.23359912092E+03  0.79593752740E+02 0.  0.
         23    2    1    2    0    0 -0.10343243365E+02 -0.12610111132E+02  0.10816405483E+02  0.92552040799E+02  0.90459317057E+02 0.  0.
         13    1    3    3    0    0  0.40690776290E+02  0.34004415788E+02  0.21165911096E+03  0.21820086806E+03  0.00000000000E+00 0. -1.
        -14    1    3    3    0    0 -0.14938833794E+02  0.65451473850E+00  0.36754654792E+01  0.15398252860E+02  0.00000000000E+00 0.  1.
        -13    1    4    4    0    0 -0.49725455512E+02 -0.14802896453E+02  0.93750309685E+00  0.51890515331E+02  0.00000000000E+00 0.  1.
         13    1    4    4    0    0  0.39382212147E+02  0.21927853206E+01  0.98789023864E+01  0.40661525468E+02  0.00000000000E+00 0. -1.
          2    1    1    2  501    0 -0.15408699132E+02 -0.22048819394E+02 -0.16218920894E+03  0.16440473820E+03  0.00000000000E+00 0. -1.
<scales pt_clust_5="13000.00000" pt_clust_6="13000.00000" pt_clust_7="13000.00000" pt_clust_8="13000.00000" pt_clust_9="26.89941"></scales>
<clustering>
<clus scale="   26.899">  2  9  1 -1</clus>
<clus scale="   79.594">  5  6 -1 -1</clus>
<clus scale="   88.315">  1  5  2 -1</clus>
<clus scale="   90.459">  7  8 -1 -1</clus>
<clus scale="   26.899">  2  5  1 -1</clus>
</clustering>
</event>
<event>
 9    1  0.3197504E-005  0.9389555E+02  0.7546771E-02  0.1302779E+00
          1   -1    0    0  502    0 -0.00000000000E+00  0.00000000000E+00  0.63688016075E+03  0.63688016075E+03  0.00000000000E+00 0. -1.
         21   -1    0    0  501  502  0.00000000000E+00 -0.00000000000E+00 -0.18647012134E+02  0.18647012134E+02  0.00000000000E+00 0. -1.
         23    2    1    2    0    0 -0.16557315315E+02 -0.19810247976E+02  0.36173224624E+03  0.37446045555E+03  0.93294288046E+02 0.  0.
        -24    2    1    2    0    0 -0.15332463272E+01 -0.95001685388E+01  0.19663363255E+03  0.21199820836E+03  0.78650180223E+02 0.  0.
         11    1    4    4    0    0 -0.13175179995E+02 -0.31921231439E+02  0.37926777706E+02  0.51293185236E+02  0.00000000000E+00 0. -1.
        -12    1    4    4    0    0  0.11641933668E+02  0.22421062900E+02  0.15870685485E+03  0.16070502312E+03  0.00000000000E+00 0.  1.
        -13    1    3    3    0    0 -0.41678305211E+02  0.15117163563E+02  0.26372753286E+03  0.26742816110E+03  0.00000000000E+00 0.  1.
         13    1    3    3    0    0  0.25120989896E+02 -0.34927411539E+02  0.98004713384E+02  0.10703229445E+03  0.00000000000E+00 0. -1.
          2    1    1    2  501    0  0.18090561642E+02  0.29310416515E+02  0.59867269818E+02  0.69068508976E+02  0.00000000000E+00 0. -1.
<scales pt_clust_5="13000.00000" pt_clust_6="13000.00000" pt_clust_7="13000.00000" pt_clust_8="13000.00000" pt_clust_9="34.44371"></scales>
<clustering>
<clus scale="   34.444">  2  9  1 -1</clus>
<clus scale="   78.650">  5  6 -1 -1</clus>
<clus scale="   79.362">  2  5  1 -1</clus>
<clus scale="   93.294">  7  8 -1 -1</clus>
<clus scale="   34.444">  2  5  1 -1</clus>
</clustering>
</event>
<event>
 9    1  0.3197504E-005  0.1016180E+03  0.7546771E-02  0.1287606E+00
         -2   -1    0    0    0  501 -0.00000000000E+00  0.00000000000E+00  0.20330219852E+03  0.20330219852E+03  0.00000000000E+00 0.  1.
         21   -1    0    0  501  502  0.00000000000E+00 -0.00000000000E+00 -0.16016431492E+03  0.16016431492E+03  0.00000000000E+00 0.  1.
        -24    2    1    2    0    0  0.13786678066E+02  0.33238062099E+02  0.13620848588E+03  0.16141725891E+03  0.78790472671E+02 0.  0.
         23    2    1    2    0    0  0.21224095948E+02  0.31200609641E+02 -0.45462002818E+02  0.11461541979E+03  0.98213850671E+02 0.  0.
         11    1    3    3    0    0  0.19544111440E+02 -0.18905998059E+02  0.19503513145E+02  0.33463354279E+02  0.00000000000E+00 0. -1.
        -12    1    3    3    0    0 -0.57574333742E+01  0.52144060158E+02  0.11670497274E+03  0.12795390463E+03  0.00000000000E+00 0.  1.
        -13    1    4    4    0    0 -0.36048859196E+02  0.37967328301E+01 -0.34773105824E+02  0.50230511825E+02  0.00000000000E+00 0. -1.
         13    1    4    4    0    0  0.57272955145E+02  0.27403876811E+02 -0.10688896994E+02  0.64384907969E+02  0.00000000000E+00 0.  1.
         -1    1    1    2    0  502 -0.35010774015E+02 -0.64438671741E+02 -0.47608599463E+02  0.87433834730E+02  0.00000000000E+00 0.  1.
<scales pt_clust_5="13000.00000" pt_clust_6="13000.00000" pt_clust_7="13000.00000" pt_clust_8="13000.00000" pt_clust_9="73.33551"></scales>
<clustering>
<clus scale="   73.336">  2  9  1 -1</clus>
<clus scale="   78.790">  5  6 -1 -1</clus>
<clus scale="   82.995">  1  5  2 -1</clus>
<clus scale="   98.214">  7  8 -1 -1</clus>
<clus scale="   73.336">  2  5  1 -1</clus>
</clustering>
</event>
<event>
 9    1  0.3197504E-005  0.1478882E+03  0.7546771E-02  0.1223785E+00
          1   -1    0    0  502    0 -0.00000000000E+00  0.00000000000E+00  0.16502194843E+03  0.16502194843E+03  0.00000000000E+00 0. -1.
         21   -1    0    0  501  502  0.00000000000E+00 -0.00000000000E+00 -0.52902595819E+03  0.52902595819E+03  0.00000000000E+00 0. -1.
        -24    2    1    2    0    0 -0.36716326396E+00  0.52673691749E+02  0.11177209473E+03  0.14689051934E+03  0.79430289573E+02 0.  0.
         23    2    1    2    0    0  0.10997146395E+03  0.84170786114E+01 -0.27267902667E+03  0.30842404655E+03  0.92773761435E+02 0.  0.
         11    1    3    3    0    0 -0.10261612430E+02  0.44334960736E+02  0.12211915633E+03  0.13032259120E+03  0.00000000000E+00 0. -1.
        -12    1    3    3    0    0  0.98944491659E+01  0.83387310133E+01 -0.10347061604E+02  0.16567928146E+02  0.00000000000E+00 0.  1.
        -13    1    4    4    0    0  0.18369940993E+02 -0.35609110198E+02 -0.10453807691E+03  0.11195388776E+03  0.00000000000E+00 0.  1.
         13    1    4    4    0    0  0.91601522952E+02  0.44026188810E+02 -0.16814094977E+03  0.19647015879E+03  0.00000000000E+00 0. -1.
          2    1    1    2  501    0 -0.10960430068E+03 -0.61090770361E+02 -0.20309707782E+03  0.23873334071E+03  0.00000000000E+00 0. -1.
<scales pt_clust_5="13000.00000" pt_clust_6="13000.00000" pt_clust_7="13000.00000" pt_clust_8="13000.00000" pt_clust_9="115.16925"></scales>
<clustering>
<clus scale="   79.430">  5  6 -1 -1</clus>
<clus scale="   92.774">  7  8 -1 -1</clus>
<clus scale="   95.309">  1  5  2 -1</clus>
<clus scale="  115.169">  2  9  1 -1</clus>
<clus scale="  115.169">  2  5  1 -1</clus>
</clustering>
</event>
<event>
 9    1  0.3197504E-005  0.9418858E+02  0.7546771E-02  0.1307840E+00
         -2   -1    0    0    0  501 -0.00000000000E+00  0.00000000000E+00  0.73451211737E+03  0.73451211737E+03  0.00000000000E+00 0.  1.
         21   -1    0    0  501  502  0.00000000000E+00 -0.00000000000E+00 -0.19555006033E+02  0.19555006033E+02  0.00000000000E+00 0.  1.
         23    2    1    2    0    0  0.30418293387E+02 -0.35057174055E+02  0.15385608141E+03  0.16973224987E+03  0.54617440761E+02 0.  0.
        -24    2    1    2    0    0  0.16102034780E+02 -0.30119720714E+02  0.27134260206E+03  0.28371532150E+03  0.75505647863E+02 0.  0.
         13    1    4    4    0    0 -0.21635514527E+02  0.10416597069E+02  0.12408956051E+03  0.12639153457E+03  0.00000000000E+00 0. -1.
        -14    1    4    4    0    0  0.37737549307E+02 -0.40536317783E+02  0.14725304155E+03  0.15732378693E+03  0.00000000000E+00 0.  1.
        -13    1    3    3    0    0  0.28932376167E+00 -0.30436580790E+02  0.12160373468E+03  0.12535524499E+03  0.00000000000E+00 0.  1.
         13    1    3    3    0    0  0.30128969625E+02 -0.46205932650E+01  0.32252346726E+02  0.44377004880E+02  0.00000000000E+00 0. -1.
         -1    1    1    2    0  502 -0.46520328167E+02  0.65176894768E+02  0.28975842787E+03  0.30061955203E+03  0.00000000000E+00 0.  1.
<scales pt_clust_5="13000.00000" pt_clust_6="13000.00000" pt_clust_7="13000.00000" pt_clust_8="13000.00000" pt_clust_9="56.30621"></scales>
<clustering>
<clus scale="   54.617">  7  8 -1 -1</clus>
<clus scale="   71.675">  1  7  2 -1</clus>
<clus scale="   56.306">  2  9  1 -1</clus>
<clus scale="   75.506">  5  6 -1 -1</clus>
<clus scale="   56.306">  2  5  1 -1</clus>
</clustering>
</event>
<event>
 9    1  0.3197504E-005  0.1833103E+03  0.7546771E-02  0.1184055E+00
         -4   -1    0    0    0  501 -0.00000000000E+00  0.00000000000E+00  0.55981327322E+03  0.55981327322E+03  0.00000000000E+00 0.  1.
         21   -1    0    0  501  502  0.00000000000E+00 -0.00000000000E+00 -0.32323080219E+03  0.32323080219E+03  0.00000000000E+00 0.  1.
         23    2    1    2    0    0 -0.17898659564E+02  0.70750394832E+02 -0.99324134144E+02  0.15420874093E+03  0.92677245175E+02 0.  0.
        -24    2    1    2    0    0 -0.75213507209E+02  0.71636658353E+02  0.48517394804E+03  0.50250661744E+03  0.79562919939E+02 0.  0.
         11    1    4    4    0    0 -0.25193228015E+02 -0.71947559522E+01  0.41220346553E+02  0.48842401875E+02  0.00000000000E+00 0. -1.
        -12    1    4    4    0    0 -0.50020279195E+02  0.78831414305E+02  0.44395360148E+03  0.45366421556E+03  0.00000000000E+00 0.  1.
        -11    1    3    3    0    0 -0.47818261219E+02  0.10124490342E+02 -0.29867441092E+02  0.57281370865E+02  0.00000000000E+00 0. -1.
         11    1    3    3    0    0  0.29919601655E+02  0.60625904490E+02 -0.69456693051E+02  0.96927370067E+02  0.00000000000E+00 0.  1.
         -3    1    1    2    0  502  0.93112166774E+02 -0.14238705318E+03 -0.14926734286E+03  0.22632871704E+03  0.00000000000E+00 0.  1.
<scales pt_clust_5="13000.00000" pt_clust_6="13000.00000" pt_clust_7="13000.00000" pt_clust_8="13000.00000" pt_clust_9="165.14355"></scales>
<clustering>
<clus scale="   79.563">  5  6 -1 -1</clus>
<clus scale="   92.677">  7  8 -1 -1</clus>
<clus scale="  117.962">  1  7  2 -1</clus>
<clus scale="  165.144">  2  9  1 -1</clus>
<clus scale="  165.144">  2  5  1 -1</clus>
</clustering>
</event>
<event>
 9    1  0.3197504E-005  0.1865230E+03  0.7546771E-02  0.1162680E+00
         -2   -1    0    0    0  501 -0.00000000000E+00  0.00000000000E+00  0.65911283782E+02  0.65911283782E+02  0.00000000000E+00 0.  1.
         21   -1    0    0  501  502  0.00000000000E+00 -0.00000000000E+00 -0.65947397764E+03  0.65947397764E+03  0.00000000000E+00 0. -1.
         23    2    1    2    0    0  0.15969134270E+03  0.57399138321E+02 -0.23582018170E+03  0.30443441850E+03  0.90956973658E+02 0.  0.
        -24    2    1    2    0    0 -0.15589686170E+03 -0.23046937716E+02 -0.24124896230E+03  0.29943862572E+03  0.81409065425E+02 0.  0.
         13    1    4    4    0    0 -0.99967138333E+02  0.25252151795E+02 -0.13089832080E+03  0.16662974016E+03  0.00000000000E+00 0. -1.
        -14    1    4    4    0    0 -0.55929723368E+02 -0.48299089511E+02 -0.11035064150E+03  0.13280888556E+03  0.00000000000E+00 0.  1.
        -13    1    3    3    0    0  0.31404032743E+02  0.29956504122E+02 -0.12626616317E+03  0.13351685052E+03  0.00000000000E+00 0. -1.
         13    1    3    3    0    0  0.12828730995E+03  0.27442634200E+02 -0.10955401853E+03  0.17091756798E+03  0.00000000000E+00 0.  1.
         -1    1    1    2    0  502 -0.37944809946E+01 -0.34352200605E+02 -0.11649354985E+03  0.12151221720E+03  0.00000000000E+00 0.  1.
<scales pt_clust_5="13000.00000" pt_clust_6="13000.00000" pt_clust_7="13000.00000" pt_clust_8="13000.00000" pt_clust_9="34.56113"></scales>
<clustering>
<clus scale="   34.561">  2  9  1 -1</clus>
<clus scale="   81.409">  5  6 -1 -1</clus>
<clus scale="   90.957">  7  8 -1 -1</clus>
<clus scale="  182.058">  2  5  1 -1</clus>
<clus scale="   34.561">  2  5  1 -1</clus>
</clustering>
</event>
<event>
 9    1  0.3197504E-005  0.1050738E+03  0.7546771E-02  0.1277562E+00
          1   -1    0    0  502    0 -0.00000000000E+00  0.00000000000E+00  0.42425950331E+03  0.42425950331E+03  0.00000000000E+00 0. -1.
         21   -1    0    0  501  502  0.00000000000E+00 -0.00000000000E+00 -0.13429118600E+03  0.13429118600E+03  0.00000000000E+00 0. -1.
        -24    2    1    2    0    0 -0.41479701206E+02  0.86999657874E+01  0.34874387997E+03  0.36028407378E+03  0.79912858682E+02 0.  0.
         23    2    1    2    0    0  0.64560866203E+02  0.26357223806E+02 -0.87587995022E+02  0.14735588014E+03  0.95808610515E+02 0.  0.
         13    1    3    3    0    0 -0.48826061423E+02  0.30957977678E+02  0.16066269474E+03  0.17074800771E+03  0.00000000000E+00 0. -1.
        -14    1    3    3    0    0  0.73463602167E+01 -0.22258011890E+02  0.18808118524E+03  0.18953606607E+03  0.00000000000E+00 0.  1.
        -11    1    4    4    0    0  0.59445533044E+02  0.50221773992E+02 -0.94086018676E+02  0.12209904542E+03  0.00000000000E+00 0. -1.
         11    1    4    4    0    0  0.51153331593E+01 -0.23864550185E+02  0.64980236536E+01  0.25256834724E+02  0.00000000000E+00 0.  1.
          2    1    1    2  501    0 -0.23081164998E+02 -0.35057189594E+02  0.28812432361E+02  0.50910735394E+02  0.00000000000E+00 0. -1.
<scales pt_clust_5="13000.00000" pt_clust_6="13000.00000" pt_clust_7="13000.00000" pt_clust_8="13000.00000" pt_clust_9="41.97319"></scales>
<clustering>
<clus scale="   41.973">  2  9  1 -1</clus>
<clus scale="   79.913">  5  6 -1 -1</clus>
<clus scale="   90.814">  1  5  2 -1</clus>
<clus scale="   95.809">  7  8 -1 -1</clus>
<clus scale="   41.973">  2  5  1 -1</clus>
</clustering>
</event>
<event>
 9    1  0.3197504E-005  0.9451248E+02  0.7546771E-02  0.1299753E+00
         21   -1    0    0  501  502  0.00000000000E+00  0.00000000000E+00  0.94953522492E+02  0.94953522492E+02  0.00000000000E+00 0. -1.
          1   -1    0    0  502    0 -0.00000000000E+00 -0.00000000000E+00 -0.18525367288E+03  0.18525367288E+03  0.00000000000E+00 0. -1.
        -24    2    1    2    0    0 -0.39718165572E+02  0.22713435225E+02 -0.24011974726E+02  0.95244844220E+02  0.80009828172E+02 0.  0.
         23    2    1    2    0    0 -0.12123909346E+02  0.11371268111E+02  0.19004862000E+00  0.94029837511E+02  0.92548794199E+02 0.  0.
         11    1    3    3    0    0 -0.58851823994E+02  0.32294349664E+02 -0.29232476795E+02  0.73218849398E+02  0.00000000000E+00 0. -1.
        -12    1    3    3    0    0  0.19133658422E+02 -0.95809144388E+01  0.52205020684E+01  0.22025994823E+02  0.00000000000E+00 0.  1.
        -11    1    4    4    0    0  0.17208331484E+02  0.14251214525E+02  0.39210232113E+02  0.45129437070E+02  0.00000000000E+00 0. -1.
         11    1    4    4    0    0 -0.29332240831E+02 -0.28799464139E+01 -0.39020183493E+02  0.48900400441E+02  0.00000000000E+00 0.  1.
          2    1    1    2  501    0  0.51842074919E+02 -0.34084703336E+02 -0.66478224284E+02  0.90932513643E+02  0.00000000000E+00 0. -1.
<scales pt_clust_5="13000.00000" pt_clust_6="13000.00000" pt_clust_7="13000.00000" pt_clust_8="13000.00000" pt_clust_9="62.04330"></scales>
<clustering>
<clus scale="   62.043">  1  9  2 -1</clus>
<clus scale="   80.010">  5  6 -1 -1</clus>
<clus scale="   82.273">  2  5  1 -1</clus>
<clus scale="   92.549">  7  8 -1 -1</clus>
<clus scale="   62.043">  1  5  2 -1</clus>
</clustering>
</event>
<event>
 9    1  0.3197504E-005  0.9390327E+02  0.7546771E-02  0.1296714E+00
          1   -1    0    0  502    0 -0.00000000000E+00  0.00000000000E+00  0.25996470530E+03  0.25996470530E+03  0.00000000000E+00 0. -1.
         21   -1    0    0  501  502  0.00000000000E+00 -0.00000000000E+00 -0.76971653239E+02  0.76971653239E+02  0.00000000000E+00 0.  1.
         23    2    1    2    0    0 -0.38382874434E+02  0.34040317182E+02  0.17888266857E+03  0.20490037741E+03  0.85750611096E+02 0.  0.
        -24    2    1    2    0    0 -0.54033579111E+01 -0.93775402401E+01  0.10151046467E+02  0.81420012123E+02  0.80056480637E+02 0.  0.
         11    1    4    4    0    0 -0.35650657229E+02  0.12342862355E+02  0.20275625344E+02  0.42830089832E+02  0.00000000000E+00 0. -1.
        -12    1    4    4    0    0  0.30247299318E+02 -0.21720402595E+02 -0.10124578877E+02  0.38589922290E+02  0.00000000000E+00 0.  1.
        -11    1    3    3    0    0 -0.59848491567E+02  0.27783558687E+01  0.12904950818E+03  0.14227908056E+03  0.00000000000E+00 0. -1.
         11    1    3    3    0    0  0.21465617133E+02  0.31261961314E+02  0.49833160389E+02  0.62621296844E+02  0.00000000000E+00 0.  1.
          2    1    1    2  501    0  0.43786232345E+02 -0.24662776942E+02 -0.60406629769E+01  0.50615969009E+02  0.00000000000E+00 0. -1.
<scales pt_clust_5="13000.00000" pt_clust_6="13000.00000" pt_clust_7="13000.00000" pt_clust_8="13000.00000" pt_clust_9="50.25422"></scales>
<clustering>
<clus scale="   50.254">  2  9  1 -1</clus>
<clus scale="   80.056">  5  6 -1 -1</clus>
<clus scale="   85.751">  7  8 -1 -1</clus>
<clus scale="   88.734">  2  5  1 -1</clus>
<clus scale="   50.254">  2  5  1 -1</clus>
</clustering>
</event>
<event>
 9    1  0.3197504E-005  0.1036600E+03  0.7546771E-02  0.1278148E+00
         21   -1    0    0  501  502  0.00000000000E+00  0.00000000000E+00  0.34446944490E+03  0.34446944490E+03  0.00000000000E+00 0.  1.
          3   -1    0    0  502    0 -0.00000000000E+00 -0.00000000000E+00 -0.54945677275E+02  0.54945677275E+02  0.00000000000E+00 0. -1.
         23    2    1    2    0    0 -0.36803342713E+02 -0.41423453021E+02  0.25895296977E+02  0.11018215534E+03  0.91646890041E+02 0.  0.
        -24    2    1    2    0    0  0.19581188125E+02  0.25450505307E+02  0.14831326738E+03  0.17154977445E+03  0.80008428818E+02 0.  0.
         11    1    4    4    0    0  0.50922985150E+01  0.28790909913E+02  0.78113363505E+01  0.30263261116E+02  0.00000000000E+00 0. -1.
        -12    1    4    4    0    0  0.14488889610E+02 -0.33404046064E+01  0.14050193103E+03  0.14128651333E+03  0.00000000000E+00 0.  1.
        -11    1    3    3    0    0  0.24354897126E+02 -0.33289622699E+02  0.25482150228E+02  0.48484017714E+02  0.00000000000E+00 0.  1.
         11    1    3    3    0    0 -0.61158239839E+02 -0.81338303217E+01  0.41314674924E+00  0.61698137623E+02  0.00000000000E+00 0. -1.
          4    1    1    2  501    0  0.17222154588E+02  0.15972947714E+02  0.11531520327E+03  0.11768319240E+03  0.00000000000E+00 0. -1.
<scales pt_clust_5="13000.00000" pt_clust_6="13000.00000" pt_clust_7="13000.00000" pt_clust_8="13000.00000" pt_clust_9="23.48910"></scales>
<clustering>
<clus scale="   23.489">  1  9  2 -1</clus>
<clus scale="   80.008">  5  6 -1 -1</clus>
<clus scale="   91.647">  7  8 -1 -1</clus>
<clus scale="   93.529">  1  5  2 -1</clus>
<clus scale="   23.489">  1  5  2 -1</clus>
</clustering>
</event>
<event>
 9    1  0.3197504E-005  0.1657449E+03  0.7546771E-02  0.1182707E+00
         21   -1    0    0  501  502  0.00000000000E+00  0.00000000000E+00  0.38813605913E+03  0.38813605913E+03  0.00000000000E+00 0.  1.
          1   -1    0    0  502    0 -0.00000000000E+00 -0.00000000000E+00 -0.10806558183E+03  0.10806558183E+03  0.00000000000E+00 0. -1.
        -24    2    1    2    0    0 -0.27695591029E+02 -0.14552352929E+03  0.13474230268E+02  0.17354979605E+03  0.89408240603E+02 0.  0.
         23    2    1    2    0    0  0.28285024937E+02  0.10952131974E+03  0.20959247102E+03  0.25522828074E+03  0.91746985084E+02 0.  0.
         11    1    3    3    0    0 -0.11326705286E+01 -0.14643714511E+03  0.11916002858E+02  0.14692553058E+03  0.00000000000E+00 0. -1.
        -12    1    3    3    0    0 -0.26562920500E+02  0.91361581923E+00  0.15582274092E+01  0.26624265474E+02  0.00000000000E+00 0.  1.
        -13    1    4    4    0    0 -0.10216076784E+02  0.38717174884E+02  0.14930064843E+03  0.15457707294E+03  0.00000000000E+00 0.  1.
         13    1    4    4    0    0  0.38501101721E+02  0.70804144852E+02  0.60291822582E+02  0.10065120780E+03  0.00000000000E+00 0. -1.
          2    1    1    2  501    0 -0.58943390812E+00  0.36002209558E+02  0.57003776012E+02  0.67423564168E+02  0.00000000000E+00 0. -1.
<scales pt_clust_5="13000.00000" pt_clust_6="13000.00000" pt_clust_7="13000.00000" pt_clust_8="13000.00000" pt_clust_9="36.00703"></scales>
<clustering>
<clus scale="   36.007">  1  9  2 -1</clus>
<clus scale="   89.408">  5  6 -1 -1</clus>
<clus scale="   91.747">  7  8 -1 -1</clus>
<clus scale="  164.462">  2  5  1 -1</clus>
<clus scale="   36.007">  1  5  2 -1</clus>
</clustering>
</event>
<event>
 9    1  0.3197504E-005  0.1071185E+03  0.7546771E-02  0.1276196E+00
          1   -1    0    0  502    0 -0.00000000000E+00  0.00000000000E+00  0.13908931417E+03  0.13908931417E+03  0.00000000000E+00 0. -1.
         21   -1    0    0  501  502  0.00000000000E+00 -0.00000000000E+00 -0.23792872558E+03  0.23792872558E+03  0.00000000000E+00 0. -1.
        -24    2    1    2    0    0 -0.32165153034E+02 -0.10653290500E+02  0.82540039107E+02  0.12000772231E+03  0.80255253353E+02 0.  0.
         23    2    1    2    0    0  0.44669548279E+02  0.48900379415E+02 -0.18005296231E+03  0.21674917882E+03  0.10086883382E+03 0.  0.
         11    1    3    3    0    0 -0.48537235438E+02 -0.33341613601E+02  0.60121087258E+02  0.84155044737E+02  0.00000000000E+00 0. -1.
        -12    1    3    3    0    0  0.16372082404E+02  0.22688323101E+02  0.22418951849E+02  0.35852677576E+02  0.00000000000E+00 0.  1.
        -11    1    4    4    0    0  0.76584580185E+02  0.43904315883E+02 -0.12806674801E+03  0.15554381640E+03  0.00000000000E+00 0. -1.
         11    1    4    4    0    0 -0.31915031906E+02  0.49960635320E+01 -0.51986214298E+02  0.61205362424E+02  0.00000000000E+00 0.  1.
          2    1    1    2  501    0 -0.12504395245E+02 -0.38247088915E+02 -0.13264882083E+01  0.40261138606E+02  0.00000000000E+00 0. -1.
<scales pt_clust_5="13000.00000" pt_clust_6="13000.00000" pt_clust_7="13000.00000" pt_clust_8="13000.00000" pt_clust_9="40.23930"></scales>
<clustering>
<clus scale="   40.239">  2  9  1 -1</clus>
<clus scale="   80.255">  5  6 -1 -1</clus>
<clus scale="   87.982">  1  5  2 -1</clus>
<clus scale="  100.869">  7  8 -1 -1</clus>
<clus scale="   40.239">  2  5  1 -1</clus>
</clustering>
</event>
<event>
 9    1  0.3197504E-005  0.1056788E+03  0.7546771E-02  0.1276163E+00
         21   -1    0    0  501  502  0.00000000000E+00  0.00000000000E+00  0.10070358078E+03  0.10070358078E+03  0.00000000000E+00 0.  1.
         -4   -1    0    0    0  501 -0.00000000000E+00 -0.00000000000E+00 -0.34012336562E+03  0.34012336562E+03  0.00000000000E+00 0.  1.
        -24    2    1    2    0    0 -0.27563268109E+02  0.41803952296E+02 -0.26279717469E+03  0.27976084821E+03  0.81831980229E+02 0.  0.
         23    2    1    2    0    0 -0.36865236101E+01  0.29138346199E+01 -0.87383871733E+01  0.97760070974E+02  0.97255288689E+02 0.  0.
         13    1    3    3    0    0 -0.44725248111E+02  0.71721375782E+00 -0.80381806988E+02  0.91989657619E+02  0.00000000000E+00 0. -1.
        -14    1    3    3    0    0  0.17161980001E+02  0.41086738538E+02 -0.18241536770E+03  0.18777119059E+03  0.00000000000E+00 0.  1.
        -13    1    4    4    0    0 -0.26455706643E+02  0.97559734699E+01  0.36816736317E+02  0.46374082259E+02  0.00000000000E+00 0.  1.
         13    1    4    4    0    0  0.22769183033E+02 -0.68421388500E+01 -0.45555123490E+02  0.51385988715E+02  0.00000000000E+00 0. -1.
         -3    1    1    2    0  502  0.31249791719E+02 -0.44717786916E+02  0.32115777025E+02  0.63306027225E+02  0.00000000000E+00 0.  1.
<scales pt_clust_5="13000.00000" pt_clust_6="13000.00000" pt_clust_7="13000.00000" pt_clust_8="13000.00000" pt_clust_9="54.55483"></scales>
<clustering>
<clus scale="   54.555">  1  9  2 -1</clus>
<clus scale="   81.832">  5  6 -1 -1</clus>
<clus scale="   91.684">  2  5  1 -1</clus>
<clus scale="   97.255">  7  8 -1 -1</clus>
<clus scale="   54.555">  1  5  2 -1</clus>
</clustering>
</event>
<event>
 9    1  0.3197504E-005  0.1001844E+03  0.7546771E-02  0.1286323E+00
         21   -1    0    0  501  502  0.00000000000E+00  0.00000000000E+00  0.22958005152E+03  0.22958005152E+03  0.00000000000E+00 0. -1.
          3   -1    0    0  502    0 -0.00000000000E+00 -0.00000000000E+00 -0.85314316386E+02  0.85314316386E+02  0.00000000000E+00 0. -1.
        -24    2    1    2    0    0  0.98425555985E+01  0.29249557269E+02 -0.17731348084E+02  0.87809466769E+02  0.80272593382E+02 0.  0.
         23    2    1    2    0    0 -0.47547598695E+01 -0.58319102450E+02  0.69167551384E+02  0.12967727257E+03  0.92781029337E+02 0.  0.
         11    1    3    3    0    0  0.19507348173E+02  0.16941261453E+02 -0.47560036367E+02  0.54124855949E+02  0.00000000000E+00 0. -1.
        -12    1    3    3    0    0 -0.96647925742E+01  0.12308295816E+02  0.29828688283E+02  0.33684610820E+02  0.00000000000E+00 0.  1.
        -11    1    4    4    0    0  0.15260336706E+02 -0.51510822895E+02 -0.36550341738E+01  0.53847952854E+02  0.00000000000E+00 0. -1.
         11    1    4    4    0    0 -0.20015096575E+02 -0.68082795548E+01  0.72822585557E+02  0.75829319717E+02  0.00000000000E+00 0.  1.
          4    1    1    2  501    0 -0.50877957290E+01  0.29069545181E+02  0.92829531837E+02  0.97407628570E+02  0.00000000000E+00 0. -1.
<scales pt_clust_5="13000.00000" pt_clust_6="13000.00000" pt_clust_7="13000.00000" pt_clust_8="13000.00000" pt_clust_9="29.51142"></scales>
<clustering>
<clus scale="   29.511">  1  9  2 -1</clus>
<clus scale="   80.273">  5  6 -1 -1</clus>
<clus scale="   88.726">  2  5  1 -1</clus>
<clus scale="   92.781">  7  8 -1 -1</clus>
<clus scale="   29.511">  1  5  2 -1</clus>
</clustering>
</event>
<event>
 9    1  0.3197504E-005  0.2170232E+03  0.7546771E-02  0.1136122E+00
         21   -1    0    0  501  502  0.00000000000E+00  0.00000000000E+00  0.29451219276E+02  0.29451219276E+02  0.00000000000E+00 0. -1.
          1   -1    0    0  502    0 -0.00000000000E+00 -0.00000000000E+00 -0.99183796242E+03  0.99183796242E+03  0.00000000000E+00 0. -1.
        -24    2    1    2    0    0 -0.15061418244E+02 -0.68964855147E+02 -0.42741930453E+03  0.44057541707E+03  0.80227418491E+02 0.  0.
         23    2    1    2    0    0  0.34793800519E+02 -0.44194725423E+02 -0.31002575576E+03  0.32814057074E+03  0.91632323006E+02 0.  0.
         13    1    3    3    0    0  0.11369027635E+02 -0.56237496359E+02 -0.13497428633E+03  0.14666277222E+03  0.00000000000E+00 0. -1.
        -14    1    3    3    0    0 -0.26430445879E+02 -0.12727358788E+02 -0.29244501820E+03  0.29391264485E+03  0.00000000000E+00 0.  1.
        -11    1    4    4    0    0 -0.28635368938E+02 -0.71618618155E+01 -0.13747279960E+03  0.14060600005E+03  0.00000000000E+00 0.  1.
         11    1    4    4    0    0  0.63429169458E+02 -0.37032863607E+02 -0.17255295616E+03  0.18753457069E+03  0.00000000000E+00 0. -1.
          2    1    1    2  501    0 -0.19732382276E+02  0.11315958057E+03 -0.22494168286E+03  0.25257319389E+03  0.00000000000E+00 0. -1.
<scales pt_clust_5="13000.00000" pt_clust_6="13000.00000" pt_clust_7="13000.00000" pt_clust_8="13000.00000" pt_clust_9="114.86713"></scales>
<clustering>
<clus scale="   80.227">  5  6 -1 -1</clus>
<clus scale="   91.632">  7  8 -1 -1</clus>
<clus scale="  106.619">  5  7 -1 -1</clus>
<clus scale="  114.867">  1  9  2 -1</clus>
<clus scale="  114.867">  1  5  2 -1</clus>
</clustering>
</event>
<event>
 9    1  0.3197504E-005  0.1069937E+03  0.7546771E-02  0.1270487E+00
         -4   -1    0    0    0  501 -0.00000000000E+00  0.00000000000E+00  0.26642472936E+03  0.26642472936E+03  0.00000000000E+00 0.  1.
         21   -1    0    0  501  502  0.00000000000E+00 -0.00000000000E+00 -0.42007746060E+03  0.42007746060E+03  0.00000000000E+00 0.  1.
         23    2    1    2    0    0  0.49486414336E+02 -0.39824979215E+02  0.23201195979E+03  0.25736896282E+03  0.91511198023E+02 0.  0.
        -24    2    1    2    0    0  0.37082426857E+01 -0.24842699232E+02 -0.99778410280E+02  0.13123635624E+03  0.81463729802E+02 0.  0.
         11    1    4    4    0    0 -0.16718997217E+02 -0.49727537510E+02 -0.54181529661E+02  0.75418770947E+02  0.00000000000E+00 0. -1.
        -12    1    4    4    0    0  0.20427239902E+02  0.24884838278E+02 -0.45596880620E+02  0.55817585297E+02  0.00000000000E+00 0.  1.
        -11    1    3    3    0    0  0.73669479355E+02 -0.42143741681E+02  0.19933057814E+03  0.21664710137E+03  0.00000000000E+00 0.  1.
         11    1    3    3    0    0 -0.24183065019E+02  0.23187624663E+01  0.32681381647E+02  0.40721861444E+02  0.00000000000E+00 0. -1.
         -3    1    1    2    0  502 -0.53194657022E+02  0.64667678446E+02 -0.28588628075E+03  0.29789687090E+03  0.00000000000E+00 0.  1.
<scales pt_clust_5="13000.00000" pt_clust_6="13000.00000" pt_clust_7="13000.00000" pt_clust_8="13000.00000" pt_clust_9="83.73518"></scales>
<clustering>
<clus scale="   81.464">  5  6 -1 -1</clus>
<clus scale="   83.735">  2  9  1 -1</clus>
<clus scale="   91.511">  7  8 -1 -1</clus>
<clus scale="   98.538">  2  5  1 -1</clus>
<clus scale="   83.735">  2  5  1 -1</clus>
</clustering>
</event>
<event>
 9    1  0.3197504E-005  0.1256823E+03  0.7546771E-02  0.1240227E+00
         -4   -1    0    0    0  501 -0.00000000000E+00  0.00000000000E+00  0.17195545755E+03  0.17195545755E+03  0.00000000000E+00 0.  1.
         21   -1    0    0  501  502  0.00000000000E+00 -0.00000000000E+00 -0.24960320233E+03  0.24960320233E+03  0.00000000000E+00 0. -1.
         23    2    1    2    0    0 -0.51619500667E+02  0.54409004816E+02  0.10336493937E+03  0.16252308084E+03  0.10052128361E+03 0.  0.
        -24    2    1    2    0    0  0.35021232166E+02 -0.71193209342E+02 -0.46647162085E+02  0.12261232018E+03  0.81011502709E+02 0.  0.
         13    1    4    4    0    0  0.57783375444E+02 -0.66233272330E+02 -0.26477159313E+02  0.91797629635E+02  0.00000000000E+00 0. -1.
        -14    1    4    4    0    0 -0.22762143278E+02 -0.49599370119E+01 -0.20170002772E+02  0.30814690548E+02  0.00000000000E+00 0.  1.
        -11    1    3    3    0    0 -0.73612566886E+02  0.19053633770E+02  0.37954799978E+02  0.84984809259E+02  0.00000000000E+00 0. -1.
         11    1    3    3    0    0  0.21993066219E+02  0.35355371046E+02  0.65410139397E+02  0.77538271579E+02  0.00000000000E+00 0.  1.
         -3    1    1    2    0  502  0.16598268501E+02  0.16784204526E+02 -0.13436552207E+03  0.13642325887E+03  0.00000000000E+00 0.  1.
<scales pt_clust_5="13000.00000" pt_clust_6="13000.00000" pt_clust_7="13000.00000" pt_clust_8="13000.00000" pt_clust_9="23.60534"></scales>
<clustering>
<clus scale="   23.605">  2  9  1 -1</clus>
<clus scale="   81.012">  5  6 -1 -1</clus>
<clus scale="  100.521">  7  8 -1 -1</clus>
<clus scale="  110.699">  2  5  1 -1</clus>
<clus scale="   23.605">  2  5  1 -1</clus>
</clustering>
</event>
<event>
 9    1  0.3197504E-005  0.1426508E+03  0.7546771E-02  0.1223107E+00
         21   -1    0    0  501  502  0.00000000000E+00  0.00000000000E+00  0.49577494763E+03  0.49577494763E+03  0.00000000000E+00 0.  1.
         -4   -1    0    0    0  501 -0.00000000000E+00 -0.00000000000E+00 -0.33915052366E+03  0.33915052366E+03  0.00000000000E+00 0.  1.
         23    2    1    2    0    0 -0.48102994149E+02 -0.27117374863E+02  0.58538877346E+02  0.12258893084E+03  0.92477001136E+02 0.  0.
        -24    2    1    2    0    0  0.61181656080E+02 -0.84608877175E+02 -0.28335116469E+03  0.31465856579E+03  0.88432309463E+02 0.  0.
         13    1    4    4    0    0  0.21859906905E+02 -0.52344603064E+02 -0.49334234169E+02  0.75177653999E+02  0.00000000000E+00 0. -1.
        -14    1    4    4    0    0  0.39321749175E+02 -0.32264274111E+02 -0.23401693052E+03  0.23948091179E+03  0.00000000000E+00 0.  1.
        -11    1    3    3    0    0  0.21577969810E+02 -0.12864374021E+02  0.42979895324E+02  0.49783253230E+02  0.00000000000E+00 0.  1.
         11    1    3    3    0    0 -0.69680963960E+02 -0.14253000842E+02  0.15558982021E+02  0.72805677614E+02  0.00000000000E+00 0. -1.
         -3    1    1    2    0  502 -0.13078661930E+02  0.11172625204E+03  0.38143671131E+03  0.39767797466E+03  0.00000000000E+00 0.  1.
<scales pt_clust_5="13000.00000" pt_clust_6="13000.00000" pt_clust_7="13000.00000" pt_clust_8="13000.00000" pt_clust_9="111.93298"></scales>
<clustering>
<clus scale="   88.432">  5  6 -1 -1</clus>
<clus scale="   92.477">  7  8 -1 -1</clus>
<clus scale="  107.709">  2  7  1 -1</clus>
<clus scale="  111.933">  1  9  2 -1</clus>
<clus scale="  111.933">  1  5  2 -1</clus>
</clustering>
</event>
<event>
 9    1  0.3197504E-005  0.9856923E+02  0.7546771E-02  0.1286226E+00
         21   -1    0    0  501  502  0.00000000000E+00  0.00000000000E+00  0.98793628990E+02  0.98793628990E+02  0.00000000000E+00 0.  1.
          1   -1    0    0  502    0 -0.00000000000E+00 -0.00000000000E+00 -0.29503897913E+03  0.29503897913E+03  0.00000000000E+00 0. -1.
        -24    2    1    2    0    0  0.15360389871E+02  0.29409879583E+02 -0.18085264544E+03  0.20331113540E+03  0.86757453979E+02 0.  0.
         23    2    1    2    0    0 -0.55508676253E+02 -0.16253981645E+02  0.44086381075E+02  0.11756447035E+03  0.92370940420E+02 0.  0.
         13    1    3    3    0    0  0.41689091329E+02  0.30383750205E+02 -0.16427170332E+03  0.17218114044E+03  0.00000000000E+00 0. -1.
        -14    1    3    3    0    0 -0.26328701458E+02 -0.97387062259E+00 -0.16580942119E+02  0.31129994957E+02  0.00000000000E+00 0.  1.
        -11    1    4    4    0    0  0.21821341483E+02 -0.14170006183E+01  0.30703743593E+02  0.37694810061E+02  0.00000000000E+00 0. -1.
         11    1    4    4    0    0 -0.77330017736E+02 -0.14836981026E+02  0.13382637482E+02  0.79869660291E+02  0.00000000000E+00 0.  1.
          2    1    1    2  501    0  0.40148286382E+02 -0.13155897938E+02 -0.59479085777E+02  0.72957002370E+02  0.00000000000E+00 0. -1.
<scales pt_clust_5="13000.00000" pt_clust_6="13000.00000" pt_clust_7="13000.00000" pt_clust_8="13000.00000" pt_clust_9="42.24884"></scales>
<clustering>
<clus scale="   42.249">  1  9  2 -1</clus>
<clus scale="   86.757">  5  6 -1 -1</clus>
<clus scale="   92.371">  7  8 -1 -1</clus>
<clus scale="   93.329">  2  5  1 -1</clus>
<clus scale="   42.249">  1  5  2 -1</clus>
</clustering>
</event>
<event>
 9    1  0.3197504E-005  0.9052467E+02  0.7546771E-02  0.1307578E+00
          1   -1    0    0  502    0 -0.00000000000E+00  0.00000000000E+00  0.91121254624E+03  0.91121254624E+03  0.00000000000E+00 0. -1.
         21   -1    0    0  501  502  0.00000000000E+00 -0.00000000000E+00 -0.18802805674E+02  0.18802805674E+02  0.00000000000E+00 0. -1.
        -24    2    1    2    0    0 -0.20155056519E+02  0.30724587691E+02  0.36636481434E+03  0.37691014649E+03  0.80547220591E+02 0.  0.
         23    2    1    2    0    0 -0.36855566617E+01  0.36316903785E+02  0.34990431823E+03  0.36313560207E+03  0.90010736825E+02 0.  0.
         13    1    3    3    0    0 -0.11755247785E+02  0.58394932843E+02  0.24066043131E+03  0.24792256297E+03  0.00000000000E+00 0. -1.
        -14    1    3    3    0    0 -0.83998087334E+01 -0.27670345152E+02  0.12570438304E+03  0.12898758352E+03  0.00000000000E+00 0.  1.
        -13    1    4    4    0    0 -0.43523383261E+02  0.27357052126E+01  0.12907785465E+03  0.13624559271E+03  0.00000000000E+00 0.  1.
         13    1    4    4    0    0  0.39837826600E+02  0.33581198572E+02  0.22082646359E+03  0.22689000936E+03  0.00000000000E+00 0. -1.
          2    1    1    2  501    0  0.23840613180E+02 -0.67041491476E+02  0.17614060799E+03  0.18996960336E+03  0.00000000000E+00 0. -1.
<scales pt_clust_5="13000.00000" pt_clust_6="13000.00000" pt_clust_7="13000.00000" pt_clust_8="13000.00000" pt_clust_9="71.15431"></scales>
<clustering>
<clus scale="   71.154">  2  9  1 -1</clus>
<clus scale="   80.547">  5  6 -1 -1</clus>
<clus scale="   81.121">  1  5  2 -1</clus>
<clus scale="   90.011">  7  8 -1 -1</clus>
<clus scale="   71.154">  2  5  1 -1</clus>
</clustering>
</event>
<event>
 9    1  0.3197504E-005  0.1592002E+03  0.7546771E-02  0.1191002E+00
         21   -1    0    0  501  502  0.00000000000E+00  0.00000000000E+00  0.83342798438E+02  0.83342798438E+02  0.00000000000E+00 0.  1.
          1   -1    0    0  502    0 -0.00000000000E+00 -0.00000000000E+00 -0.52944516069E+03  0.52944516069E+03  0.00000000000E+00 0. -1.
         23    2    1    2    0    0  0.15373498731E+03 -0.53000383767E+02 -0.32137662377E+03  0.37152373057E+03  0.91123328913E+02 0.  0.
        -24    2    1    2    0    0 -0.90934670995E+02  0.30296132559E+02 -0.12007356479E+03  0.17432391580E+03  0.82366234715E+02 0.  0.
         11    1    4    4    0    0 -0.33000248689E+02  0.54395514238E+02 -0.61378885875E+02  0.88403936644E+02  0.00000000000E+00 0. -1.
        -12    1    4    4    0    0 -0.57934422306E+02 -0.24099381679E+02 -0.58694678913E+02  0.85919979154E+02  0.00000000000E+00 0.  1.
        -11    1    3    3    0    0  0.85690837107E+02 -0.53113781554E+02 -0.10882931568E+03  0.14835030605E+03  0.00000000000E+00 0. -1.
         11    1    3    3    0    0  0.68044150201E+02  0.11339778747E+00 -0.21254730809E+03  0.22317342452E+03  0.00000000000E+00 0.  1.
          2    1    1    2  501    0 -0.62800316314E+02  0.22704251208E+02 -0.46521736973E+01  0.66940312758E+02  0.00000000000E+00 0. -1.
<scales pt_clust_5="13000.00000" pt_clust_6="13000.00000" pt_clust_7="13000.00000" pt_clust_8="13000.00000" pt_clust_9="66.77846"></scales>
<clustering>
<clus scale="   66.778">  1  9  2 -1</clus>
<clus scale="   82.366">  5  6 -1 -1</clus>
<clus scale="   91.123">  7  8 -1 -1</clus>
<clus scale="  154.355">  1  5  2 -1</clus>
<clus scale="   66.778">  1  5  2 -1</clus>
</clustering>
</event>
<event>
 9    1  0.3197504E-005  0.1938950E+03  0.7546771E-02  0.1177446E+00
         21   -1    0    0  501  502  0.00000000000E+00  0.00000000000E+00  0.43093169553E+03  0.43093169553E+03  0.00000000000E+00 0.  1.
          1   -1    0    0  502    0 -0.00000000000E+00 -0.00000000000E+00 -0.68869263829E+03  0.68869263829E+03  0.00000000000E+00 0. -1.
         23    2    1    2    0    0 -0.47519206685E+02  0.20264058821E+02  0.36963574602E+03  0.38729665928E+03  0.10343795468E+03 0.  0.
        -24    2    1    2    0    0  0.28218963619E+01  0.16616837953E+03 -0.27834808292E+03  0.33409428458E+03  0.80755447318E+02 0.  0.
         11    1    4    4    0    0 -0.31134757785E+02  0.53205376579E+02 -0.60568320577E+02  0.86421679553E+02  0.00000000000E+00 0. -1.
        -12    1    4    4    0    0  0.33956654147E+02  0.11296300295E+03 -0.21777976234E+03  0.24767260503E+03  0.00000000000E+00 0.  1.
        -11    1    3    3    0    0 -0.78929485925E+02  0.46629121273E+01  0.28282468477E+03  0.29366887614E+03  0.00000000000E+00 0.  1.
         11    1    3    3    0    0  0.31410279240E+02  0.15601146694E+02  0.86811061255E+02  0.93627783143E+02  0.00000000000E+00 0. -1.
          2    1    1    2  501    0  0.44697310323E+02 -0.18643243835E+03 -0.34904860586E+03  0.39823338996E+03  0.00000000000E+00 0. -1.
<scales pt_clust_5="13000.00000" pt_clust_6="13000.00000" pt_clust_7="13000.00000" pt_clust_8="13000.00000" pt_clust_9="176.27782"></scales>
<clustering>
<clus scale="   80.755">  5  6 -1 -1</clus>
<clus scale="  103.438">  7  8 -1 -1</clus>
<clus scale="  115.621">  2  7  1 -1</clus>
<clus scale="  176.278">  1  9  2 -1</clus>
<clus scale="  176.278">  1  5  2 -1</clus>
</clustering>
</event>
<event>
 9    1  0.3197504E-005  0.1451999E+03  0.7546771E-02  0.1208216E+00
          1   -1    0    0  502    0 -0.00000000000E+00  0.00000000000E+00  0.38059577319E+03  0.38059577319E+03  0.00000000000E+00 0. -1.
         21   -1    0    0  501  502  0.00000000000E+00 -0.00000000000E+00 -0.10428286145E+03  0.10428286145E+03  0.00000000000E+00 0. -1.
         23    2    1    2    0    0 -0.11295021683E+03  0.37694988675E+01  0.23419691117E+03  0.27532004297E+03  0.90448727227E+02 0.  0.
        -24    2    1    2    0    0  0.11023073112E+03 -0.52374073985E+02  0.58618493280E+02  0.15815691281E+03  0.81753431757E+02 0.  0.
         13    1    4    4    0    0  0.57483623199E+02 -0.32790219289E+02 -0.12627952581E+02  0.67372328174E+02  0.00000000000E+00 0. -1.
        -14    1    4    4    0    0  0.52747107925E+02 -0.19583854695E+02  0.71246445860E+02  0.90784584633E+02  0.00000000000E+00 0.  1.
        -13    1    3    3    0    0 -0.34065513369E+02  0.16881779554E+01  0.70124239929E+01  0.34820729978E+02  0.00000000000E+00 0.  1.
         13    1    3    3    0    0 -0.78884703459E+02  0.20813209121E+01  0.22718448718E+03  0.24049931299E+03  0.00000000000E+00 0. -1.
          2    1    1    2  501    0  0.27194857047E+01  0.48604575117E+02 -0.16502492708E+02  0.51401678868E+02  0.00000000000E+00 0. -1.
<scales pt_clust_5="13000.00000" pt_clust_6="13000.00000" pt_clust_7="13000.00000" pt_clust_8="13000.00000" pt_clust_9="48.68059"></scales>
<clustering>
<clus scale="   48.681">  2  9  1 -1</clus>
<clus scale="   81.753">  5  6 -1 -1</clus>
<clus scale="   90.449">  7  8 -1 -1</clus>
<clus scale="  139.949">  2  5  1 -1</clus>
<clus scale="   48.681">  2  5  1 -1</clus>
</clustering>
</event>
<event>
 9    1  0.3197504E-005  0.2055837E+03  0.7546771E-02  0.1181010E+00
         21   -1    0    0  501  502  0.00000000000E+00  0.00000000000E+00  0.63557958135E+02  0.63557958135E+02  0.00000000000E+00 0. -1.
          1   -1    0    0  502    0 -0.00000000000E+00 -0.00000000000E+00 -0.10966709817E+04  0.10966709817E+04  0.00000000000E+00 0. -1.
        -24    2    1    2    0    0  0.14820723826E+02  0.38572546026E+02 -0.42972485892E+03  0.43895063794E+03  0.79414816040E+02 0.  0.
         23    2    1    2    0    0  0.95117792158E+02 -0.17502001201E+03 -0.35968157379E+03  0.42111619454E+03  0.91041835377E+02 0.  0.
         11    1    3    3    0    0  0.36918170351E+02  0.51159949009E+02 -0.27453605767E+03  0.28169192152E+03  0.00000000000E+00 0. -1.
        -12    1    3    3    0    0 -0.22097446524E+02 -0.12587402984E+02 -0.15518880125E+03  0.15725871642E+03  0.00000000000E+00 0.  1.
        -11    1    4    4    0    0  0.80224974026E+01 -0.18526465594E+02 -0.10079948003E+01  0.20214016065E+02  0.00000000000E+00 0.  1.
         11    1    4    4    0    0  0.87095294756E+02 -0.15649354642E+03 -0.35867357899E+03  0.40090217848E+03  0.00000000000E+00 0. -1.
          2    1    1    2  501    0 -0.10993851598E+03  0.13644746598E+03 -0.24370659085E+03  0.30016210736E+03  0.00000000000E+00 0. -1.
<scales pt_clust_5="13000.00000" pt_clust_6="13000.00000" pt_clust_7="13000.00000" pt_clust_8="13000.00000" pt_clust_9="184.32592"></scales>
<clustering>
<clus scale="   79.415">  5  6 -1 -1</clus>
<clus scale="   89.522">  2  5  1 -1</clus>
<clus scale="   91.042">  7  8 -1 -1</clus>
<clus scale="  184.326">  1  9  2 -1</clus>
<clus scale="  184.326">  1  5  2 -1</clus>
</clustering>
</event>
<event>
 9    1  0.3197504E-005  0.9620707E+02  0.7546771E-02  0.1294407E+00
         21   -1    0    0  501  502  0.00000000000E+00  0.00000000000E+00  0.50104308816E+02  0.50104308816E+02  0.00000000000E+00 0.  1.
          1   -1    0    0  502    0 -0.00000000000E+00 -0.00000000000E+00 -0.41871157030E+03  0.41871157030E+03  0.00000000000E+00 0. -1.
         23    2    1    2    0    0 -0.29353235222E+02  0.14187979653E+02 -0.22175361766E+03  0.24210555235E+03  0.91528795181E+02 0.  0.
        -24    2    1    2    0    0 -0.64310563418E+01 -0.42544775321E+02 -0.22614708814E+02  0.94347430322E+02  0.80861586435E+02 0.  0.
         11    1    4    4    0    0 -0.69547035187E+00  0.24379926800E+02 -0.48407065969E+01  0.24865577616E+02  0.00000000000E+00 0. -1.
        -12    1    4    4    0    0 -0.57355859899E+01 -0.66924702121E+02 -0.17774002217E+02  0.69481852706E+02  0.00000000000E+00 0.  1.
        -11    1    3    3    0    0 -0.53063942179E+01  0.39932932395E+02 -0.19143265019E+03  0.19562529608E+03  0.00000000000E+00 0.  1.
         11    1    3    3    0    0 -0.24046841004E+02 -0.25744952741E+02 -0.30320967470E+02  0.46480256263E+02  0.00000000000E+00 0. -1.
          2    1    1    2  501    0  0.35784291564E+02  0.28356795668E+02 -0.12423893502E+03  0.13236289645E+03  0.00000000000E+00 0. -1.
<scales pt_clust_5="13000.00000" pt_clust_6="13000.00000" pt_clust_7="13000.00000" pt_clust_8="13000.00000" pt_clust_9="45.65770"></scales>
<clustering>
<clus scale="   45.658">  1  9  2 -1</clus>
<clus scale="   80.862">  5  6 -1 -1</clus>
<clus scale="   86.121">  1  5  2 -1</clus>
<clus scale="   91.529">  7  8 -1 -1</clus>
<clus scale="   45.658">  1  5  2 -1</clus>
</clustering>
</event>
<event>
 9    1  0.3197504E-005  0.9156405E+02  0.7546771E-02  0.1306608E+00
         21   -1    0    0  501  502  0.00000000000E+00  0.00000000000E+00  0.31254132474E+02  0.31254132474E+02  0.00000000000E+00 0.  1.
         -2   -1    0    0    0  501 -0.00000000000E+00 -0.00000000000E+00 -0.54260815696E+03  0.54260815696E+03  0.00000000000E+00 0.  1.
         23    2    1    2    0    0 -0.48879422095E+01  0.11002496316E+02 -0.17134763856E+03  0.19442951028E+03  0.91092668869E+02 0.  0.
        -24    2    1    2    0    0 -0.29379532813E+02  0.71050217603E+01 -0.80129779931E+02  0.11668196108E+03  0.79248092267E+02 0.  0.
         11    1    4    4    0    0 -0.49605006371E+02 -0.16095968941E+02 -0.38094042343E+02  0.64582450676E+02  0.00000000000E+00 0. -1.
        -12    1    4    4    0    0  0.20225473558E+02  0.23200990701E+02 -0.42035737588E+02  0.52099510408E+02  0.00000000000E+00 0.  1.
        -13    1    3    3    0    0 -0.19715024022E+02 -0.28363805120E+02 -0.26328366585E+02  0.43432366964E+02  0.00000000000E+00 0.  1.
         13    1    3    3    0    0  0.14827081812E+02  0.39366301436E+02 -0.14501927198E+03  0.15099714331E+03  0.00000000000E+00 0. -1.
         -1    1    1    2    0  502  0.34267475023E+02 -0.18107518076E+02 -0.25987660600E+03  0.26275081808E+03  0.00000000000E+00 0.  1.
<scales pt_clust_5="13000.00000" pt_clust_6="13000.00000" pt_clust_7="13000.00000" pt_clust_8="13000.00000" pt_clust_9="38.75750"></scales>
<clustering>
<clus scale="   38.757">  1  9  2 -1</clus>
<clus scale="   79.248">  5  6 -1 -1</clus>
<clus scale="   79.789">  1  5  2 -1</clus>
<clus scale="   91.093">  7  8 -1 -1</clus>
<clus scale="   38.757">  1  5  2 -1</clus>
</clustering>
</event>
<event>
 9    1  0.3197504E-005  0.1340280E+03  0.7546771E-02  0.1234443E+00
         21   -1    0    0  501  502  0.00000000000E+00  0.00000000000E+00  0.30703507431E+03  0.30703507431E+03  0.00000000000E+00 0.  1.
         -2   -1    0    0    0  501 -0.00000000000E+00 -0.00000000000E+00 -0.54098280314E+03  0.54098280314E+03  0.00000000000E+00 0.  1.
        -24    2    1    2    0    0 -0.55439292720E+02 -0.24507774035E+02 -0.40834907846E+03  0.42045439833E+03  0.79741990390E+02 0.  0.
         23    2    1    2    0    0  0.10116141480E+03  0.11060215487E+02 -0.75816286289E+02  0.17284753027E+03  0.11735501372E+03 0.  0.
         13    1    3    3    0    0  0.90781891602E+00 -0.36837309386E+02 -0.96097931828E+02  0.10292047415E+03  0.00000000000E+00 0. -1.
        -14    1    3    3    0    0 -0.56347111636E+02  0.12329535351E+02 -0.31225114663E+03  0.31753392418E+03  0.00000000000E+00 0.  1.
        -11    1    4    4    0    0  0.12264374495E+03  0.29368411007E+02 -0.54057065644E+02  0.13720844758E+03  0.00000000000E+00 0. -1.
         11    1    4    4    0    0 -0.21482330156E+02 -0.18308195520E+02 -0.21759220645E+02  0.35639082693E+02  0.00000000000E+00 0.  1.
         -1    1    1    2    0  502 -0.45722122079E+02  0.13447558548E+02  0.25021763591E+03  0.25471594885E+03  0.00000000000E+00 0.  1.
<scales pt_clust_5="13000.00000" pt_clust_6="13000.00000" pt_clust_7="13000.00000" pt_clust_8="13000.00000" pt_clust_9="47.65867"></scales>
<clustering>
<clus scale="   47.659">  1  9  2 -1</clus>
<clus scale="   79.742">  5  6 -1 -1</clus>
<clus scale="  102.714">  2  5  1 -1</clus>
<clus scale="  117.355">  7  8 -1 -1</clus>
<clus scale="   47.659">  1  5  2 -1</clus>
</clustering>
</event>
<event>
 9    1  0.3197504E-005  0.9320564E+02  0.7546771E-02  0.1302185E+00
          1   -1    0    0  502    0 -0.00000000000E+00  0.00000000000E+00  0.15639273615E+03  0.15639273615E+03  0.00000000000E+00 0. -1.
         21   -1    0    0  501  502  0.00000000000E+00 -0.00000000000E+00 -0.22839502587E+03  0.22839502587E+03  0.00000000000E+00 0. -1.
         23    2    1    2    0    0 -0.92105778620E+00 -0.45533543606E+01  0.74345390880E+02  0.11842108094E+03  0.92058317836E+02 0.  0.
        -24    2    1    2    0    0  0.26685880209E+02 -0.34868014338E+02  0.19521787894E+02  0.93941187129E+02  0.80721321907E+02 0.  0.
         13    1    4    4    0    0  0.55048180418E+02 -0.14360293501E+02  0.11997928283E+02  0.58141813524E+02  0.00000000000E+00 0. -1.
        -14    1    4    4    0    0 -0.28362300209E+02 -0.20507720837E+02  0.75238596108E+01  0.35799373605E+02  0.00000000000E+00 0.  1.
        -13    1    3    3    0    0 -0.29340243837E+02  0.30421371551E+02  0.17166719193E+02  0.45618044711E+02  0.00000000000E+00 0.  1.
         13    1    3    3    0    0  0.28419186051E+02 -0.34974725911E+02  0.57178671688E+02  0.72803036230E+02  0.00000000000E+00 0. -1.
          2    1    1    2  501    0 -0.25764822422E+02  0.39421368698E+02 -0.16586946850E+03  0.17242549395E+03  0.00000000000E+00 0. -1.
<scales pt_clust_5="13000.00000" pt_clust_6="13000.00000" pt_clust_7="13000.00000" pt_clust_8="13000.00000" pt_clust_9="47.09427"></scales>
<clustering>
<clus scale="   47.094">  2  9  1 -1</clus>
<clus scale="   80.721">  5  6 -1 -1</clus>
<clus scale="   82.027">  2  5  1 -1</clus>
<clus scale="   92.058">  7  8 -1 -1</clus>
<clus scale="   47.094">  2  5  1 -1</clus>
</clustering>
</event>
<event>
 9    1  0.3197504E-005  0.1061116E+03  0.7546771E-02  0.1274335E+00
          1   -1    0    0  502    0 -0.00000000000E+00  0.00000000000E+00  0.71211340132E+02  0.71211340132E+02  0.00000000000E+00 0. -1.
         21   -1    0    0  501  502  0.00000000000E+00 -0.00000000000E+00 -0.20847406378E+03  0.20847406378E+03  0.00000000000E+00 0. -1.
        -24    2    1    2    0    0  0.37437830928E-01  0.55713925978E+02 -0.11506580959E+02  0.95208096694E+02  0.76342238120E+02 0.  0.
         23    2    1    2    0    0 -0.27074474345E+02 -0.49649754350E+02 -0.97304691049E+02  0.14476256661E+03  0.91048737082E+02 0.  0.
         11    1    3    3    0    0  0.10677397883E+02  0.44362936908E+02  0.27456598322E+02  0.53253561271E+02  0.00000000000E+00 0. -1.
        -12    1    3    3    0    0 -0.10639960052E+02  0.11350989070E+02 -0.38963179282E+02  0.41954535422E+02  0.00000000000E+00 0.  1.
        -13    1    4    4    0    0 -0.52683285149E+02 -0.30710872970E+02 -0.25287311588E+02  0.66016167565E+02  0.00000000000E+00 0. -1.
         13    1    4    4    0    0  0.25608810803E+02 -0.18938881380E+02 -0.72017379461E+02  0.78746399048E+02  0.00000000000E+00 0.  1.
          2    1    1    2  501    0  0.27037036514E+02 -0.60641716273E+01 -0.28451451645E+02  0.39714740610E+02  0.00000000000E+00 0. -1.
<scales pt_clust_5="13000.00000" pt_clust_6="13000.00000" pt_clust_7="13000.00000" pt_clust_8="13000.00000" pt_clust_9="27.70876"></scales>
<clustering>
<clus scale="   27.709">  2  9  1 -1</clus>
<clus scale="   76.342">  5  6 -1 -1</clus>
<clus scale="   91.049">  7  8 -1 -1</clus>
<clus scale="   93.797">  1  5  2 -1</clus>
<clus scale="   27.709">  2  5  1 -1</clus>
</clustering>
</event>
<event>
 9    1  0.3197504E-005  0.1033424E+03  0.7546771E-02  0.1277205E+00
         21   -1    0    0  501  502  0.00000000000E+00  0.00000000000E+00  0.85028408228E+02  0.85028408228E+02  0.00000000000E+00 0. -1.
          1   -1    0    0  502    0 -0.00000000000E+00 -0.00000000000E+00 -0.31831003174E+03  0.31831003174E+03  0.00000000000E+00 0. -1.
        -24    2    1    2    0    0 -0.63602642402E+01  0.70282693086E+02 -0.17143247816E+03  0.20237186368E+03  0.81149040240E+02 0.  0.
         23    2    1    2    0    0 -0.19128704175E+02 -0.27611854853E+02 -0.99926881406E+02  0.13835346321E+03  0.89598980487E+02 0.  0.
         11    1    3    3    0    0 -0.37770535520E+02  0.16557520454E+02 -0.96654109864E+02  0.10508464108E+03  0.00000000000E+00 0. -1.
        -12    1    3    3    0    0  0.31410271280E+02  0.53725172631E+02 -0.74778368299E+02  0.97287222602E+02  0.00000000000E+00 0.  1.
        -11    1    4    4    0    0 -0.45604801655E+02  0.10836932410E+02 -0.35543572984E+02  0.58826716877E+02  0.00000000000E+00 0. -1.
         11    1    4    4    0    0  0.26476097480E+02 -0.38448787263E+02 -0.64383308421E+02  0.79526746338E+02  0.00000000000E+00 0.  1.
          2    1    1    2  501    0  0.25488968415E+02 -0.42670838233E+02  0.38077736052E+02  0.62613113077E+02  0.00000000000E+00 0. -1.
<scales pt_clust_5="13000.00000" pt_clust_6="13000.00000" pt_clust_7="13000.00000" pt_clust_8="13000.00000" pt_clust_9="49.70400"></scales>
<clustering>
<clus scale="   49.704">  1  9  2 -1</clus>
<clus scale="   81.149">  5  6 -1 -1</clus>
<clus scale="   89.599">  7  8 -1 -1</clus>
<clus scale="   96.108">  2  5  1 -1</clus>
<clus scale="   49.704">  1  5  2 -1</clus>
</clustering>
</event>
<event>
 9    1  0.3197504E-005  0.9444668E+02  0.7546771E-02  0.1298627E+00
         21   -1    0    0  501  502  0.00000000000E+00  0.00000000000E+00  0.40678901494E+02  0.40678901494E+02  0.00000000000E+00 0. -1.
         -2   -1    0    0    0  501 -0.00000000000E+00 -0.00000000000E+00 -0.35601585678E+03  0.35601585678E+03  0.00000000000E+00 0.  1.
        -24    2    1    2    0    0  0.20105270505E+01 -0.26141420495E+02 -0.23989632901E+03  0.25400542650E+03  0.79253340187E+02 0.  0.
         23    2    1    2    0    0  0.16721965808E+02  0.36033113080E+02 -0.70043810112E+02  0.12082892246E+03  0.90085979978E+02 0.  0.
         13    1    3    3    0    0  0.25803729480E+02 -0.25864810150E+02 -0.21992836623E+03  0.22294238523E+03  0.00000000000E+00 0. -1.
        -14    1    3    3    0    0 -0.23793202429E+02 -0.27661034564E+00 -0.19967962789E+02  0.31063041272E+02  0.00000000000E+00 0.  1.
        -13    1    4    4    0    0 -0.24124453914E+02  0.26950774356E+02  0.33698563353E+01  0.36327530149E+02  0.00000000000E+00 0.  1.
         13    1    4    4    0    0  0.40846419722E+02  0.90823387241E+01 -0.73413666448E+02  0.84501392309E+02  0.00000000000E+00 0. -1.
         -1    1    1    2    0  502 -0.18732492859E+02 -0.98916925849E+01 -0.53968161584E+01  0.21860409318E+02  0.00000000000E+00 0.  1.
<scales pt_clust_5="13000.00000" pt_clust_6="13000.00000" pt_clust_7="13000.00000" pt_clust_8="13000.00000" pt_clust_9="21.18376"></scales>
<clustering>
<clus scale="   21.184">  1  9  2 -1</clus>
<clus scale="   79.253">  5  6 -1 -1</clus>
<clus scale="   84.177">  2  5  1 -1</clus>
<clus scale="   90.086">  7  8 -1 -1</clus>
<clus scale="   21.184">  1  5  2 -1</clus>
</clustering>
</event>
<event>
 9    1  0.3197504E-005  0.1377067E+03  0.7546771E-02  0.1220174E+00
         21   -1    0    0  501  502  0.00000000000E+00  0.00000000000E+00  0.40605176048E+02  0.40605176048E+02  0.00000000000E+00 0. -1.
          1   -1    0    0  502    0 -0.00000000000E+00 -0.00000000000E+00 -0.94340594392E+03  0.94340594392E+03  0.00000000000E+00 0. -1.
        -24    2    1    2    0    0 -0.10799204116E+03 -0.45636857016E+02 -0.30482149712E+03  0.33641632181E+03  0.80714266426E+02 0.  0.
         23    2    1    2    0    0  0.75379770787E+02 -0.62989757074E+00 -0.13894982117E+03  0.18508835675E+03  0.96271181487E+02 0.  0.
         13    1    3    3    0    0 -0.70263642922E+02  0.12704590547E+02 -0.13045407742E+03  0.14871668519E+03  0.00000000000E+00 0. -1.
        -14    1    3    3    0    0 -0.37728398242E+02 -0.58341447563E+02 -0.17436741970E+03  0.18769963663E+03  0.00000000000E+00 0.  1.
        -13    1    4    4    0    0  0.35087904510E+02  0.23241644746E+02 -0.13098861110E+03  0.13758397920E+03  0.00000000000E+00 0.  1.
         13    1    4    4    0    0  0.40291866277E+02 -0.23871542316E+02 -0.79612100708E+01  0.47504377550E+02  0.00000000000E+00 0. -1.
          2    1    1    2  501    0  0.32612270377E+02  0.46266754587E+02 -0.45902944958E+03  0.46250644141E+03  0.00000000000E+00 0. -1.
<scales pt_clust_5="13000.00000" pt_clust_6="13000.00000" pt_clust_7="13000.00000" pt_clust_8="13000.00000" pt_clust_9="56.60544"></scales>
<clustering>
<clus scale="   56.605">  1  9  2 -1</clus>
<clus scale="   80.714">  5  6 -1 -1</clus>
<clus scale="   96.271">  7  8 -1 -1</clus>
<clus scale="  127.318">  2  5  1 -1</clus>
<clus scale="   56.605">  1  5  2 -1</clus>
</clustering>
</event>
<event>
 9    1  0.3197504E-005  0.9882678E+02  0.7546771E-02  0.1285543E+00
         21   -1    0    0  501  502  0.00000000000E+00  0.00000000000E+00  0.91418070726E+02  0.91418070726E+02  0.00000000000E+00 0.  1.
         -4   -1    0    0    0  501 -0.00000000000E+00 -0.00000000000E+00 -0.33716351759E+03  0.33716351759E+03  0.00000000000E+00 0.  1.
        -24    2    1    2    0    0  0.12016466680E+02 -0.14903632641E+02 -0.11881206663E+01  0.87367199096E+02  0.85235568337E+02 0.  0.
         23    2    1    2    0    0 -0.32708646046E+02  0.51277067096E+02 -0.17857345392E+02  0.11068440350E+03  0.90735655929E+02 0.  0.
         11    1    3    3    0    0  0.24575161483E+02  0.10018749366E+02 -0.34745568013E+02  0.43721486678E+02  0.00000000000E+00 0. -1.
        -12    1    3    3    0    0 -0.12558694802E+02 -0.24922382007E+02  0.33557447347E+02  0.43645712418E+02  0.00000000000E+00 0.  1.
        -13    1    4    4    0    0 -0.26040771071E+02  0.52999761664E+01  0.32624740257E+02  0.42078321998E+02  0.00000000000E+00 0. -1.
         13    1    4    4    0    0 -0.66678749744E+01  0.45977090929E+02 -0.50482085649E+02  0.68606081498E+02  0.00000000000E+00 0.  1.
         -3    1    1    2    0  502  0.20692179365E+02 -0.36373434454E+02 -0.22669998081E+03  0.23052998573E+03  0.00000000000E+00 0.  1.
<scales pt_clust_5="13000.00000" pt_clust_6="13000.00000" pt_clust_7="13000.00000" pt_clust_8="13000.00000" pt_clust_9="41.84728"></scales>
<clustering>
<clus scale="   41.847">  1  9  2 -1</clus>
<clus scale="   85.236">  5  6 -1 -1</clus>
<clus scale="   90.736">  7  8 -1 -1</clus>
<clus scale="   93.802">  2  5  1 -1</clus>
<clus scale="   41.847">  1  5  2 -1</clus>
</clustering>
</event>
<event>
 9    1  0.3197504E-005  0.3584331E+03  0.7546771E-02  0.1095252E+00
         21   -1    0    0  501  502  0.00000000000E+00  0.00000000000E+00  0.55188180251E+03  0.55188180251E+03  0.00000000000E+00 0.  1.
         -2   -1    0    0    0  501 -0.00000000000E+00 -0.00000000000E+00 -0.46357348821E+03  0.46357348821E+03  0.00000000000E+00 0.  1.
        -24    2    1    2    0    0  0.10838474802E+03  0.59230046475E+01 -0.91026629802E+02  0.16283195412E+03  0.80287373617E+02 0.  0.
         23    2    1    2    0    0 -0.17459119216E+03  0.32933532083E+03 -0.11563064689E+03  0.40119655635E+03  0.92975224648E+02 0.  0.
         11    1    3    3    0    0  0.75367356372E+02  0.58439489346E+01 -0.10295419298E+03  0.12772609756E+03  0.00000000000E+00 0. -1.
        -12    1    3    3    0    0  0.33017391651E+02  0.79055712897E-01  0.11927563183E+02  0.35105856559E+02  0.00000000000E+00 0.  1.
        -11    1    4    4    0    0 -0.52276127864E+02  0.45209333793E+02  0.47179869399E+01  0.69274358945E+02  0.00000000000E+00 0. -1.
         11    1    4    4    0    0 -0.12231506430E+03  0.28412598704E+03 -0.12034863383E+03  0.33192219740E+03  0.00000000000E+00 0.  1.
         -1    1    1    2    0  502  0.66206444139E+02 -0.33525832548E+03  0.29496559100E+03  0.45142678024E+03  0.00000000000E+00 0.  1.
<scales pt_clust_5="13000.00000" pt_clust_6="13000.00000" pt_clust_7="13000.00000" pt_clust_8="13000.00000" pt_clust_9="346.16451"></scales>
<clustering>
<clus scale="   80.287">  5  6 -1 -1</clus>
<clus scale="   92.975">  7  8 -1 -1</clus>
<clus scale="  135.013">  2  5  1 -1</clus>
<clus scale="  346.165">  1  9  2 -1</clus>
<clus scale="  346.165">  1  5  2 -1</clus>
</clustering>
</event>
<event>
 9    1  0.3197504E-005  0.9662230E+02  0.7546771E-02  0.1291048E+00
         21   -1    0    0  501  502  0.00000000000E+00  0.00000000000E+00  0.38646697836E+03  0.38646697836E+03  0.00000000000E+00 0. -1.
          1   -1    0    0  502    0 -0.00000000000E+00 -0.00000000000E+00 -0.52621549733E+02  0.52621549733E+02  0.00000000000E+00 0. -1.
        -24    2    1    2    0    0 -0.35019989479E+02 -0.66404134071E+02  0.86965594664E+02  0.14106024322E+03  0.81847839786E+02 0.  0.
         23    2    1    2    0    0 -0.26160606056E+01  0.47937185646E+00  0.10738965587E+03  0.13922004729E+03  0.88558510654E+02 0.  0.
         13    1    3    3    0    0  0.48670230293E+01 -0.60244502476E+02  0.21495110940E+02  0.64149261774E+02  0.00000000000E+00 0. -1.
        -14    1    3    3    0    0 -0.39887012508E+02 -0.61596315947E+01  0.65470483724E+02  0.76910981448E+02  0.00000000000E+00 0.  1.
        -11    1    4    4    0    0 -0.44760634945E+02 -0.18669662871E+01  0.42117177501E+02  0.61488670863E+02  0.00000000000E+00 0.  1.
         11    1    4    4    0    0  0.42144574339E+02  0.23463381435E+01  0.65272478368E+02  0.77731376427E+02  0.00000000000E+00 0. -1.
          2    1    1    2  501    0  0.37636050084E+02  0.65924762215E+02  0.13949017809E+03  0.15880823758E+03  0.00000000000E+00 0. -1.
<scales pt_clust_5="13000.00000" pt_clust_6="13000.00000" pt_clust_7="13000.00000" pt_clust_8="13000.00000" pt_clust_9="75.91144"></scales>
<clustering>
<clus scale="   75.911">  1  9  2 -1</clus>
<clus scale="   81.848">  5  6 -1 -1</clus>
<clus scale="   88.559">  7  8 -1 -1</clus>
<clus scale="   90.511">  2  5  1 -1</clus>
<clus scale="   75.911">  1  5  2 -1</clus>
</clustering>
</event>
<event>
 9    1  0.3197504E-005  0.9241546E+02  0.7546771E-02  0.1301614E+00
         21   -1    0    0  501  502  0.00000000000E+00  0.00000000000E+00  0.34461588269E+03  0.34461588269E+03  0.00000000000E+00 0. -1.
          1   -1    0    0  502    0 -0.00000000000E+00 -0.00000000000E+00 -0.31710416477E+02  0.31710416477E+02  0.00000000000E+00 0. -1.
        -24    2    1    2    0    0  0.91707573561E+01 -0.24028740154E+02  0.13344872333E+03  0.15927064692E+03  0.83048745133E+02 0.  0.
         23    2    1    2    0    0  0.13932062143E+02  0.11447275939E+02  0.15838600939E+03  0.18335091489E+03  0.90588561844E+02 0.  0.
         11    1    3    3    0    0  0.43398516315E+02 -0.19257365394E+02  0.50011274379E+02  0.68959443917E+02  0.00000000000E+00 0. -1.
        -12    1    3    3    0    0 -0.34227758959E+02 -0.47713747599E+01  0.83437448954E+02  0.90311203006E+02  0.00000000000E+00 0.  1.
        -11    1    4    4    0    0 -0.19476684886E+02 -0.23156740712E+02  0.11383865791E+03  0.11779140856E+03  0.00000000000E+00 0.  1.
         11    1    4    4    0    0  0.33408747029E+02  0.34604016651E+02  0.44547351479E+02  0.65559506330E+02  0.00000000000E+00 0. -1.
          2    1    1    2  501    0 -0.23102819499E+02  0.12581464216E+02  0.21070733488E+02  0.33704737358E+02  0.00000000000E+00 0. -1.
<scales pt_clust_5="13000.00000" pt_clust_6="13000.00000" pt_clust_7="13000.00000" pt_clust_8="13000.00000" pt_clust_9="26.30654"></scales>
<clustering>
<clus scale="   26.307">  1  9  2 -1</clus>
<clus scale="   83.049">  5  6 -1 -1</clus>
<clus scale="   85.038">  2  5  1 -1</clus>
<clus scale="   90.589">  7  8 -1 -1</clus>
<clus scale="   26.307">  1  5  2 -1</clus>
</clustering>
</event>
<event>
 9    1  0.3197504E-005  0.1577060E+03  0.7546771E-02  0.1210492E+00
         21   -1    0    0  501  502  0.00000000000E+00  0.00000000000E+00  0.80073295072E+02  0.80073295072E+02  0.00000000000E+00 0.  1.
          1   -1    0    0  502    0 -0.00000000000E+00 -0.00000000000E+00 -0.60745442618E+03  0.60745442618E+03  0.00000000000E+00 0. -1.
         23    2    1    2    0    0 -0.46545383449E+02  0.17879841422E+01 -0.21135007053E+03  0.23556854638E+03  0.93026975239E+02 0.  0.
        -24    2    1    2    0    0  0.13247619685E+03  0.67170783443E+02 -0.71486652135E+02  0.18374026424E+03  0.81168259741E+02 0.  0.
         11    1    4    4    0    0  0.74866536101E+02 -0.21428663792E+01 -0.52951878356E+02  0.91725086675E+02  0.00000000000E+00 0. -1.
        -12    1    4    4    0    0  0.57609660752E+02  0.69313649823E+02 -0.18534773778E+02  0.92015177567E+02  0.00000000000E+00 0.  1.
        -13    1    3    3    0    0 -0.48078447686E+02 -0.39492745044E+02 -0.13820619983E+03  0.15156572078E+03  0.00000000000E+00 0. -1.
         13    1    3    3    0    0  0.15330642367E+01  0.41280729187E+02 -0.73143870701E+02  0.84002825603E+02  0.00000000000E+00 0.  1.
          2    1    1    2  501    0 -0.85930813404E+02 -0.68958767586E+02 -0.24454440844E+03  0.26821891063E+03  0.00000000000E+00 0. -1.
<scales pt_clust_5="13000.00000" pt_clust_6="13000.00000" pt_clust_7="13000.00000" pt_clust_8="13000.00000" pt_clust_9="135.21435"></scales>
<clustering>
<clus scale="   81.168">  5  6 -1 -1</clus>
<clus scale="   93.027">  7  8 -1 -1</clus>
<clus scale="  104.037">  2  7  1 -1</clus>
<clus scale="  135.214">  1  9  2 -1</clus>
<clus scale="  135.214">  1  5  2 -1</clus>
</clustering>
</event>
<event>
 9    1  0.3197504E-005  0.1027769E+03  0.7546771E-02  0.1280384E+00
         -4   -1    0    0    0  501 -0.00000000000E+00  0.00000000000E+00  0.27665572044E+03  0.27665572044E+03  0.00000000000E+00 0.  1.
         21   -1    0    0  501  502  0.00000000000E+00 -0.00000000000E+00 -0.17981553728E+03  0.17981553728E+03  0.00000000000E+00 0. -1.
        -24    2    1    2    0    0  0.32207154093E+02  0.39114821690E+02  0.22563521089E+03  0.24450885134E+03  0.79410704187E+02 0.  0.
         23    2    1    2    0    0 -0.11400203544E+02 -0.17715090170E+02 -0.16219472816E+02  0.95497247360E+02  0.91721665348E+02 0.  0.
         13    1    3    3    0    0  0.19697998242E+02 -0.22573235601E+02  0.54930811014E+02  0.62569610027E+02  0.00000000000E+00 0. -1.
        -14    1    3    3    0    0  0.12509155851E+02  0.61688057291E+02  0.17070439988E+03  0.18193924132E+03  0.00000000000E+00 0.  1.
        -11    1    4    4    0    0 -0.23817270216E+02 -0.52185271542E+02 -0.12123171239E+02  0.58630505774E+02  0.00000000000E+00 0. -1.
         11    1    4    4    0    0  0.12417066672E+02  0.34470181372E+02 -0.40963015769E+01  0.36866741586E+02  0.00000000000E+00 0.  1.
         -3    1    1    2    0  502 -0.20806950549E+02 -0.21399731520E+02 -0.11257555492E+03  0.11646515902E+03  0.00000000000E+00 0.  1.
<scales pt_clust_5="13000.00000" pt_clust_6="13000.00000" pt_clust_7="13000.00000" pt_clust_8="13000.00000" pt_clust_9="29.84757"></scales>
<clustering>
<clus scale="   29.848">  2  9  1 -1</clus>
<clus scale="   79.411">  5  6 -1 -1</clus>
<clus scale="   91.722">  7  8 -1 -1</clus>
<clus scale="   91.958">  1  5  2 -1</clus>
<clus scale="   29.848">  2  5  1 -1</clus>
</clustering>
</event>
<event>
 9    1  0.3197504E-005  0.1123673E+03  0.7546771E-02  0.1256269E+00
          1   -1    0    0  502    0 -0.00000000000E+00  0.00000000000E+00  0.16538879038E+03  0.16538879038E+03  0.00000000000E+00 0. -1.
         21   -1    0    0  501  502  0.00000000000E+00 -0.00000000000E+00 -0.14693502202E+03  0.14693502202E+03  0.00000000000E+00 0. -1.
        -24    2    1    2    0    0 -0.39065320835E+02  0.85441794491E+02  0.40412116394E+02  0.13671257287E+03  0.90723695322E+02 0.  0.
         23    2    1    2    0    0  0.76293439249E+01 -0.23294656443E+02 -0.42222606652E+02  0.10307760878E+03  0.90782140381E+02 0.  0.
         13    1    3    3    0    0 -0.25065083960E+02  0.10388378243E+03  0.38056402642E+02  0.11343891955E+03  0.00000000000E+00 0. -1.
        -14    1    3    3    0    0 -0.14000236875E+02 -0.18441987943E+02  0.23557137522E+01  0.23273653325E+02  0.00000000000E+00 0.  1.
        -11    1    4    4    0    0  0.11625798490E+02 -0.43199290004E+02 -0.60849849536E+02  0.75525108646E+02  0.00000000000E+00 0. -1.
         11    1    4    4    0    0 -0.39964545656E+01  0.19904633561E+02  0.18627242884E+02  0.27552500136E+02  0.00000000000E+00 0.  1.
          2    1    1    2  501    0  0.31435976910E+02 -0.62147138047E+02  0.20264258624E+02  0.72533630747E+02  0.00000000000E+00 0. -1.
<scales pt_clust_5="13000.00000" pt_clust_6="13000.00000" pt_clust_7="13000.00000" pt_clust_8="13000.00000" pt_clust_9="69.64548"></scales>
<clustering>
<clus scale="   69.645">  2  9  1 -1</clus>
<clus scale="   90.724">  5  6 -1 -1</clus>
<clus scale="   90.782">  7  8 -1 -1</clus>
<clus scale="  112.320">  1  5  2 -1</clus>
<clus scale="   69.645">  2  5  1 -1</clus>
</clustering>
</event>
<event>
 9    1  0.3197504E-005  0.9322301E+02  0.7546771E-02  0.1303444E+00
         -2   -1    0    0    0  501 -0.00000000000E+00  0.00000000000E+00  0.17044837915E+03  0.17044837915E+03  0.00000000000E+00 0.  1.
         21   -1    0    0  501  502  0.00000000000E+00 -0.00000000000E+00 -0.78783095851E+02  0.78783095851E+02  0.00000000000E+00 0.  1.
         23    2    1    2    0    0 -0.43658507840E+01  0.24119513047E+02  0.45821482219E+02  0.10670040541E+03  0.93190969089E+02 0.  0.
        -24    2    1    2    0    0 -0.83567022104E+01  0.24659649111E+02  0.33597699605E+02  0.90653935731E+02  0.80071205053E+02 0.  0.
         11    1    4    4    0    0 -0.36089173942E+02  0.10500655623E+02 -0.82618989264E+01  0.38483129008E+02  0.00000000000E+00 0. -1.
        -12    1    4    4    0    0  0.27732471732E+02  0.14158993488E+02  0.41859598532E+02  0.52170806723E+02  0.00000000000E+00 0.  1.
        -11    1    3    3    0    0  0.12339035140E+02  0.49800313060E+02 -0.32879423384E+00  0.51307222441E+02  0.00000000000E+00 0.  1.
         11    1    3    3    0    0 -0.16704885924E+02 -0.25680800012E+02  0.46150276453E+02  0.55393182971E+02  0.00000000000E+00 0. -1.
         -1    1    1    2    0  502  0.12722552994E+02 -0.48779162159E+02  0.12246101470E+02  0.51877133853E+02  0.00000000000E+00 0.  1.
<scales pt_clust_5="13000.00000" pt_clust_6="13000.00000" pt_clust_7="13000.00000" pt_clust_8="13000.00000" pt_clust_9="50.41101"></scales>
<clustering>
<clus scale="   50.411">  2  9  1 -1</clus>
<clus scale="   80.071">  5  6 -1 -1</clus>
<clus scale="   80.108">  2  5  1 -1</clus>
<clus scale="   93.191">  7  8 -1 -1</clus>
<clus scale="   50.411">  2  5  1 -1</clus>
</clustering>
</event>
<event>
 9    1  0.3197504E-005  0.1271078E+03  0.7546771E-02  0.1239251E+00
         21   -1    0    0  501  502  0.00000000000E+00  0.00000000000E+00  0.13086242594E+03  0.13086242594E+03  0.00000000000E+00 0. -1.
          1   -1    0    0  502    0 -0.00000000000E+00 -0.00000000000E+00 -0.49773503267E+03  0.49773503267E+03  0.00000000000E+00 0. -1.
        -24    2    1    2    0    0  0.37065792417E+02  0.80579360198E+02 -0.40017634348E+03  0.41741092090E+03  0.78891474487E+02 0.  0.
         23    2    1    2    0    0 -0.29779166443E+02  0.84200241026E+01 -0.17730163983E+02  0.10833497308E+03  0.10229570918E+03 0.  0.
         13    1    3    3    0    0  0.62037265855E+02  0.54873517717E+02 -0.28441982797E+03  0.29623363050E+03  0.00000000000E+00 0. -1.
        -14    1    3    3    0    0 -0.24971473438E+02  0.25705842481E+02 -0.11575651552E+03  0.12117729040E+03  0.00000000000E+00 0.  1.
        -11    1    4    4    0    0 -0.45809096028E+02  0.23687226329E+02 -0.48256038907E+02  0.70627213317E+02  0.00000000000E+00 0. -1.
         11    1    4    4    0    0  0.16029929585E+02 -0.15267202226E+02  0.30525874924E+02  0.37707759761E+02  0.00000000000E+00 0.  1.
          2    1    1    2  501    0 -0.72866259737E+01 -0.88999384301E+02  0.51033900737E+02  0.10285156464E+03  0.00000000000E+00 0. -1.
<scales pt_clust_5="13000.00000" pt_clust_6="13000.00000" pt_clust_7="13000.00000" pt_clust_8="13000.00000" pt_clust_9="89.29717"></scales>
<clustering>
<clus scale="   78.891">  5  6 -1 -1</clus>
<clus scale="   89.297">  1  9  2 -1</clus>
<clus scale="  102.296">  7  8 -1 -1</clus>
<clus scale="  109.160">  2  5  1 -1</clus>
<clus scale="   89.297">  1  5  2 -1</clus>
</clustering>
</event>
<event>
 9    1  0.3197504E-005  0.9802140E+02  0.7546771E-02  0.1291880E+00
          1   -1    0    0  502    0 -0.00000000000E+00  0.00000000000E+00  0.15976025751E+03  0.15976025751E+03  0.00000000000E+00 0. -1.
         21   -1    0    0  501  502  0.00000000000E+00 -0.00000000000E+00 -0.81087367770E+02  0.81087367770E+02  0.00000000000E+00 0.  1.
        -24    2    1    2    0    0 -0.42337379997E+02 -0.16022914960E+01  0.41297063037E+02  0.98079996324E+02  0.78225425409E+02 0.  0.
         23    2    1    2    0    0  0.19262635092E+02 -0.17618575624E+02  0.90323421686E+00  0.95522146759E+02  0.91881452817E+02 0.  0.
         11    1    3    3    0    0 -0.42603161666E+02  0.25561959083E+02  0.49063566246E+02  0.69826045777E+02  0.00000000000E+00 0. -1.
        -12    1    3    3    0    0  0.26578166912E+00 -0.27164250579E+02 -0.77665032091E+01  0.28253950547E+02  0.00000000000E+00 0.  1.
        -13    1    4    4    0    0 -0.27729971718E+02 -0.19641666631E+02 -0.24661700396E+02  0.41987448910E+02  0.00000000000E+00 0.  1.
         13    1    4    4    0    0  0.46992606810E+02  0.20230910078E+01  0.25564934613E+02  0.53534697849E+02  0.00000000000E+00 0. -1.
          2    1    1    2  501    0  0.23074744905E+02  0.19220867120E+02  0.36472592486E+02  0.47245482196E+02  0.00000000000E+00 0. -1.
<scales pt_clust_5="13000.00000" pt_clust_6="13000.00000" pt_clust_7="13000.00000" pt_clust_8="13000.00000" pt_clust_9="30.03142"></scales>
<clustering>
<clus scale="   30.031">  2  9  1 -1</clus>
<clus scale="   78.225">  5  6 -1 -1</clus>
<clus scale="   85.353">  1  5  2 -1</clus>
<clus scale="   91.881">  7  8 -1 -1</clus>
<clus scale="   30.031">  2  5  1 -1</clus>
</clustering>
</event>
<event>
 9    1  0.3197504E-005  0.1132787E+03  0.7546771E-02  0.1258614E+00
         21   -1    0    0  501  502  0.00000000000E+00  0.00000000000E+00  0.71466912968E+02  0.71466912968E+02  0.00000000000E+00 0.  1.
          1   -1    0    0  502    0 -0.00000000000E+00 -0.00000000000E+00 -0.30479995663E+03  0.30479995663E+03  0.00000000000E+00 0. -1.
        -24    2    1    2    0    0  0.58547698600E+02  0.33225062192E+02 -0.20888966333E+03  0.23364858726E+03  0.80156304264E+02 0.  0.
         23    2    1    2    0    0 -0.69565057434E+02 -0.12123587014E+02 -0.12383329705E+02  0.11593309409E+03  0.91109038377E+02 0.  0.
         13    1    3    3    0    0  0.20776496981E+02  0.47127656710E+02 -0.17019167999E+03  0.17781419177E+03  0.00000000000E+00 0. -1.
        -14    1    3    3    0    0  0.37771201619E+02 -0.13902594518E+02 -0.38697983340E+02  0.55834395498E+02  0.00000000000E+00 0.  1.
        -13    1    4    4    0    0 -0.15420641082E+02  0.38135544122E+02 -0.71369379452E+00  0.41141527144E+02  0.00000000000E+00 0. -1.
         13    1    4    4    0    0 -0.54144416352E+02 -0.50259131136E+02 -0.11669635910E+02  0.74791566951E+02  0.00000000000E+00 0.  1.
          2    1    1    2  501    0  0.11017358834E+02 -0.21101475178E+02 -0.12060050622E+02  0.26685188239E+02  0.00000000000E+00 0. -1.
<scales pt_clust_5="13000.00000" pt_clust_6="13000.00000" pt_clust_7="13000.00000" pt_clust_8="13000.00000" pt_clust_9="23.80450"></scales>
<clustering>
<clus scale="   23.805">  1  9  2 -1</clus>
<clus scale="   80.156">  5  6 -1 -1</clus>
<clus scale="   91.109">  7  8 -1 -1</clus>
<clus scale="  104.672">  2  5  1 -1</clus>
<clus scale="   23.805">  1  5  2 -1</clus>
</clustering>
</event>
<event>
 9    1  0.3197504E-005  0.1367066E+03  0.7546771E-02  0.1246200E+00
          1   -1    0    0  502    0 -0.00000000000E+00  0.00000000000E+00  0.30608214265E+03  0.30608214265E+03  0.00000000000E+00 0. -1.
         21   -1    0    0  501  502  0.00000000000E+00 -0.00000000000E+00 -0.13664154795E+03  0.13664154795E+03  0.00000000000E+00 0. -1.
        -24    2    1    2    0    0 -0.84619378036E+01 -0.54064639354E+01  0.47059743798E+02  0.89596632133E+02  0.75578454335E+02 0.  0.
         23    2    1    2    0    0 -0.21332665564E+02  0.94024469054E+02  0.19184893991E+03  0.23665094671E+03  0.99508650029E+02 0.  0.
         11    1    3    3    0    0 -0.31058781708E+02  0.16645535877E+02  0.29640331102E+01  0.35362512327E+02  0.00000000000E+00 0. -1.
        -12    1    3    3    0    0  0.22596843904E+02 -0.22051999812E+02  0.44095710687E+02  0.54234119806E+02  0.00000000000E+00 0.  1.
        -11    1    4    4    0    0  0.22436796228E+02  0.80213357826E+02  0.78884153632E+02  0.11471836075E+03  0.00000000000E+00 0. -1.
         11    1    4    4    0    0 -0.43769461792E+02  0.13811111229E+02  0.11296478628E+03  0.12193258596E+03  0.00000000000E+00 0.  1.
          2    1    1    2  501    0  0.29794603368E+02 -0.88618005119E+02 -0.69468089006E+02  0.11647611176E+03  0.00000000000E+00 0. -1.
<scales pt_clust_5="13000.00000" pt_clust_6="13000.00000" pt_clust_7="13000.00000" pt_clust_8="13000.00000" pt_clust_9="93.73758"></scales>
<clustering>
<clus scale="   75.578">  5  6 -1 -1</clus>
<clus scale="   76.243">  1  5  2 -1</clus>
<clus scale="   93.738">  2  9  1 -1</clus>
<clus scale="   99.509">  7  8 -1 -1</clus>
<clus scale="   93.738">  2  5  1 -1</clus>
</clustering>
</event>
<event>
 9    1  0.3197504E-005  0.9575995E+02  0.7546771E-02  0.1294821E+00
         21   -1    0    0  501  502  0.00000000000E+00  0.00000000000E+00  0.26132301626E+03  0.26132301626E+03  0.00000000000E+00 0.  1.
         -2   -1    0    0    0  501 -0.00000000000E+00 -0.00000000000E+00 -0.12008261336E+03  0.12008261336E+03  0.00000000000E+00 0.  1.
         23    2    1    2    0    0 -0.22963931800E+02  0.80275648920E+01  0.16101046131E+02  0.95613293167E+02  0.91054237584E+02 0.  0.
        -24    2    1    2    0    0  0.39052342611E+02  0.77129412007E+02  0.15664703968E+03  0.19357909576E+03  0.73895464090E+02 0.  0.
         13    1    4    4    0    0  0.27343973262E+02  0.48205009902E+02  0.29747554042E+02  0.62899386522E+02  0.00000000000E+00 0. -1.
        -14    1    4    4    0    0  0.11708369349E+02  0.28924402105E+02  0.12689948564E+03  0.13067970924E+03  0.00000000000E+00 0.  1.
        -13    1    3    3    0    0 -0.53947041717E+02 -0.68900469775E+01  0.25351040989E+02  0.60003594364E+02  0.00000000000E+00 0. -1.
         13    1    3    3    0    0  0.30983109917E+02  0.14917611869E+02 -0.92499948575E+01  0.35609698803E+02  0.00000000000E+00 0.  1.
         -1    1    1    2    0  502 -0.16088410810E+02 -0.85156976898E+02 -0.31507682909E+02  0.92213240694E+02  0.00000000000E+00 0.  1.
<scales pt_clust_5="13000.00000" pt_clust_6="13000.00000" pt_clust_7="13000.00000" pt_clust_8="13000.00000" pt_clust_9="86.66346"></scales>
<clustering>
<clus scale="   73.895">  5  6 -1 -1</clus>
<clus scale="   86.663">  1  9  2 -1</clus>
<clus scale="   86.663">  1  5  2 -1</clus>
<clus scale="   91.054">  7  8 -1 -1</clus>
<clus scale="   86.663">  1  5  2 -1</clus>
</clustering>
</event>
<event>
 9    1  0.3197504E-005  0.1043486E+03  0.7546771E-02  0.1279594E+00
         -2   -1    0    0    0  501 -0.00000000000E+00  0.00000000000E+00  0.19875545017E+03  0.19875545017E+03  0.00000000000E+00 0.  1.
         21   -1    0    0  501  502  0.00000000000E+00 -0.00000000000E+00 -0.19365433346E+03  0.19365433346E+03  0.00000000000E+00 0. -1.
        -24    2    1    2    0    0 -0.12872781127E+02 -0.50762350417E+02  0.16191770908E+03  0.18536991741E+03  0.73499231646E+02 0.  0.
         23    2    1    2    0    0 -0.56731758371E+01  0.27373257319E+02 -0.14761792470E+03  0.17580498695E+03  0.91295463215E+02 0.  0.
         13    1    3    3    0    0 -0.17630518404E+01 -0.68820403986E+02  0.11832442743E+03  0.13689421640E+03  0.00000000000E+00 0. -1.
        -14    1    3    3    0    0 -0.11109729286E+02  0.18058053568E+02  0.43593281649E+02  0.48475701010E+02  0.00000000000E+00 0.  1.
        -13    1    4    4    0    0  0.18420876874E+01 -0.30000803911E+02 -0.86805593637E+02  0.91862139148E+02  0.00000000000E+00 0. -1.
         13    1    4    4    0    0 -0.75152635245E+01  0.57374061230E+02 -0.60812331066E+02  0.83942847804E+02  0.00000000000E+00 0.  1.
         -1    1    1    2    0  502  0.18545956964E+02  0.23389093099E+02 -0.91986676704E+01  0.31234879263E+02  0.00000000000E+00 0.  1.
<scales pt_clust_5="13000.00000" pt_clust_6="13000.00000" pt_clust_7="13000.00000" pt_clust_8="13000.00000" pt_clust_9="29.84966"></scales>
<clustering>
<clus scale="   29.850">  2  9  1 -1</clus>
<clus scale="   73.499">  5  6 -1 -1</clus>
<clus scale="   89.196">  1  5  2 -1</clus>
<clus scale="   91.295">  7  8 -1 -1</clus>
<clus scale="   29.850">  2  5  1 -1</clus>
</clustering>
</event>
<event>
 9    1  0.3197504E-005  0.4359882E+03  0.7546771E-02  0.1031985E+00
         21   -1    0    0  501  502  0.00000000000E+00  0.00000000000E+00  0.12146624682E+04  0.12146624682E+04  0.00000000000E+00 0. -1.
         -4   -1    0    0    0  501 -0.00000000000E+00 -0.00000000000E+00 -0.14308847320E+03  0.14308847320E+03  0.00000000000E+00 0.  1.
        -24    2    1    2    0    0  0.12455057890E+03  0.41568293599E+02  0.14168068515E+03  0.20909692165E+03  0.80045839128E+02 0.  0.
         23    2    1    2    0    0  0.26429816869E+03  0.19549223819E+02  0.35334182427E+03  0.45054921748E+03  0.88929514015E+02 0.  0.
         11    1    3    3    0    0  0.11018489974E+02  0.38599357674E+02  0.39745956265E+02  0.56489455419E+02  0.00000000000E+00 0. -1.
        -12    1    3    3    0    0  0.11353208893E+03  0.29689359255E+01  0.10193472889E+03  0.15260746623E+03  0.00000000000E+00 0.  1.
        -11    1    4    4    0    0  0.10648507967E+03  0.39319658533E+01  0.75358017411E+02  0.13051192795E+03  0.00000000000E+00 0.  1.
         11    1    4    4    0    0  0.15781308902E+03  0.15617257966E+02  0.27798380686E+03  0.32003728953E+03  0.00000000000E+00 0. -1.
         -3    1    1    2    0  502 -0.38884874759E+03 -0.61117517419E+02  0.57655148559E+03  0.69810480229E+03  0.00000000000E+00 0.  1.
<scales pt_clust_5="13000.00000" pt_clust_6="13000.00000" pt_clust_7="13000.00000" pt_clust_8="13000.00000" pt_clust_9="393.62253"></scales>
<clustering>
<clus scale="   80.046">  5  6 -1 -1</clus>
<clus scale="   88.930">  7  8 -1 -1</clus>
<clus scale="  101.231">  5  7 -1 -1</clus>
<clus scale="  393.623">  1  9  2 -1</clus>
<clus scale="  393.623">  1  5  2 -1</clus>
</clustering>
</event>
<event>
 9    1  0.3197504E-005  0.1633438E+03  0.7546771E-02  0.1187055E+00
         21   -1    0    0  501  502  0.00000000000E+00  0.00000000000E+00  0.61673928459E+02  0.61673928459E+02  0.00000000000E+00 0.  1.
         -4   -1    0    0    0  501 -0.00000000000E+00 -0.00000000000E+00 -0.49318479688E+03  0.49318479688E+03  0.00000000000E+00 0.  1.
         23    2    1    2    0    0 -0.13454167438E+03  0.43315836249E+02 -0.28247060948E+03  0.32946955691E+03  0.93716700185E+02 0.  0.
        -24    2    1    2    0    0  0.11979788842E+03 -0.27761405748E+02 -0.12183297473E+03  0.19075456367E+03  0.80136134869E+02 0.  0.
         13    1    4    4    0    0  0.89438011924E+02 -0.52948355348E+02 -0.10538354641E+03  0.14801479036E+03  0.00000000000E+00 0. -1.
        -14    1    4    4    0    0  0.30359876491E+02  0.25186949600E+02 -0.16449428320E+02  0.42739773312E+02  0.00000000000E+00 0.  1.
        -11    1    3    3    0    0 -0.11771937076E+03  0.58021710219E+02 -0.27692096516E+03  0.30644671650E+03  0.00000000000E+00 0.  1.
         11    1    3    3    0    0 -0.16822303617E+02 -0.14705873970E+02 -0.55496443186E+01  0.23022840404E+02  0.00000000000E+00 0. -1.
         -3    1    1    2    0  502  0.14743785964E+02 -0.15554430502E+02 -0.27207284211E+02  0.34634604760E+02  0.00000000000E+00 0.  1.
<scales pt_clust_5="13000.00000" pt_clust_6="13000.00000" pt_clust_7="13000.00000" pt_clust_8="13000.00000" pt_clust_9="21.43175"></scales>
<clustering>
<clus scale="   21.432">  1  9  2 -1</clus>
<clus scale="   80.136">  5  6 -1 -1</clus>
<clus scale="   93.717">  7  8 -1 -1</clus>
<clus scale="  155.949">  1  5  2 -1</clus>
<clus scale="   21.432">  1  5  2 -1</clus>
</clustering>
</event>
<event>
 9    1  0.3197504E-005  0.1170873E+03  0.7546771E-02  0.1254131E+00
         21   -1    0    0  501  502  0.00000000000E+00  0.00000000000E+00  0.69640819861E+03  0.69640819861E+03  0.00000000000E+00 0.  1.
         -2   -1    0    0    0  501 -0.00000000000E+00 -0.00000000000E+00 -0.40288970797E+02  0.40288970797E+02  0.00000000000E+00 0.  1.
         23    2    1    2    0    0 -0.22594731641E+02  0.10410341166E+03  0.16213845283E+03  0.21533536333E+03  0.93447303854E+02 0.  0.
        -24    2    1    2    0    0 -0.98262864554E+01 -0.35042896680E+02  0.18703533621E+03  0.20507715655E+03  0.75827848657E+02 0.  0.
         13    1    4    4    0    0 -0.32385638275E+02 -0.44226928304E+02  0.15765708857E+03  0.16691497336E+03  0.00000000000E+00 0. -1.
        -14    1    4    4    0    0  0.22559351819E+02  0.91840316238E+01  0.29378247637E+02  0.38162183187E+02  0.00000000000E+00 0.  1.
        -11    1    3    3    0    0 -0.25872377768E+02 -0.39011041054E+01  0.64878387840E+02  0.69955727095E+02  0.00000000000E+00 0. -1.
         11    1    3    3    0    0  0.32776461273E+01  0.10800451577E+03  0.97260064986E+02  0.14537963624E+03  0.00000000000E+00 0.  1.
         -1    1    1    2    0  502  0.32421018096E+02 -0.69060514985E+02  0.30694543877E+03  0.31628464953E+03  0.00000000000E+00 0.  1.
<scales pt_clust_5="13000.00000" pt_clust_6="13000.00000" pt_clust_7="13000.00000" pt_clust_8="13000.00000" pt_clust_9="76.29205"></scales>
<clustering>
<clus scale="   75.828">  5  6 -1 -1</clus>
<clus scale="   76.292">  1  9  2 -1</clus>
<clus scale="   93.447">  7  8 -1 -1</clus>
<clus scale="  103.571">  1  5  2 -1</clus>
<clus scale="   76.292">  1  5  2 -1</clus>
</clustering>
</event>
<event>
 9    1  0.3197504E-005  0.1817911E+03  0.7546771E-02  0.1196658E+00
         21   -1    0    0  501  502  0.00000000000E+00  0.00000000000E+00  0.10456295700E+03  0.10456295700E+03  0.00000000000E+00 0. -1.
          1   -1    0    0  502    0 -0.00000000000E+00 -0.00000000000E+00 -0.50874810425E+03  0.50874810425E+03  0.00000000000E+00 0. -1.
         23    2    1    2    0    0  0.53969613158E+01  0.77762628109E+01 -0.14917036496E+03  0.17503059992E+03  0.91073133652E+02 0.  0.
        -24    2    1    2    0    0  0.89360100706E+02 -0.13787647157E+03 -0.77815057912E+02  0.19889644465E+03  0.80681245936E+02 0.  0.
         13    1    4    4    0    0  0.89343882781E+02 -0.14049669710E+03 -0.88039403543E+02  0.18834167851E+03  0.00000000000E+00 0. -1.
        -14    1    4    4    0    0  0.16217925364E-01  0.26202255263E+01  0.10224345631E+02  0.10554766147E+02  0.00000000000E+00 0.  1.
        -13    1    3    3    0    0  0.32074029682E+02  0.26496097879E+02 -0.29495761782E+02  0.50997907270E+02  0.00000000000E+00 0. -1.
         13    1    3    3    0    0 -0.26677068366E+02 -0.18719835068E+02 -0.11967460317E+03  0.12403269265E+03  0.00000000000E+00 0.  1.
          2    1    1    2  501    0 -0.94757062022E+02  0.13010020876E+03 -0.17719972438E+03  0.23938401668E+03  0.00000000000E+00 0. -1.
<scales pt_clust_5="13000.00000" pt_clust_6="13000.00000" pt_clust_7="13000.00000" pt_clust_8="13000.00000" pt_clust_9="162.90662"></scales>
<clustering>
<clus scale="   80.681">  5  6 -1 -1</clus>
<clus scale="   91.073">  7  8 -1 -1</clus>
<clus scale="   91.564">  2  7  1 -1</clus>
<clus scale="  162.907">  1  9  2 -1</clus>
<clus scale="  162.907">  1  5  2 -1</clus>
</clustering>
</event>
<event>
 9    1  0.3197504E-005  0.1041604E+03  0.7546771E-02  0.1277545E+00
          1   -1    0    0  502    0 -0.00000000000E+00  0.00000000000E+00  0.29092707877E+03  0.29092707877E+03  0.00000000000E+00 0. -1.
         21   -1    0    0  501  502  0.00000000000E+00 -0.00000000000E+00 -0.29043063602E+03  0.29043063602E+03  0.00000000000E+00 0. -1.
        -24    2    1    2    0    0  0.56995836768E+02  0.57286895777E+01  0.25004413704E+03  0.26814139310E+03  0.78079401431E+02 0.  0.
         23    2    1    2    0    0  0.13940880409E+02 -0.21867038124E+02 -0.64487054619E+02  0.11436988724E+03  0.90826072198E+02 0.  0.
         13    1    3    3    0    0  0.42419399225E+02 -0.16546522664E+02  0.23091325828E+03  0.23535956682E+03  0.00000000000E+00 0. -1.
        -14    1    3    3    0    0  0.14576437543E+02  0.22275212241E+02  0.19130878764E+02  0.32781826278E+02  0.00000000000E+00 0.  1.
        -11    1    4    4    0    0 -0.11289057786E+02 -0.52937461445E+02 -0.41575139547E+02  0.68251812271E+02  0.00000000000E+00 0.  1.
         11    1    4    4    0    0  0.25229938195E+02  0.31070423320E+02 -0.22911915073E+02  0.46118074970E+02  0.00000000000E+00 0. -1.
          2    1    1    2  501    0 -0.70936717177E+02  0.16138348546E+02 -0.18506063968E+03  0.19884643446E+03  0.00000000000E+00 0. -1.
<scales pt_clust_5="13000.00000" pt_clust_6="13000.00000" pt_clust_7="13000.00000" pt_clust_8="13000.00000" pt_clust_9="72.74932"></scales>
<clustering>
<clus scale="   72.749">  2  9  1 -1</clus>
<clus scale="   78.079">  5  6 -1 -1</clus>
<clus scale="   90.826">  7  8 -1 -1</clus>
<clus scale="   93.255">  1  5  2 -1</clus>
<clus scale="   72.749">  2  5  1 -1</clus>
</clustering>
</event>
<event>
 9    1  0.3197504E-005  0.1009577E+03  0.7546771E-02  0.1282172E+00
         -2   -1    0    0    0  501 -0.00000000000E+00  0.00000000000E+00  0.23876787617E+03  0.23876787617E+03  0.00000000000E+00 0.  1.
         21   -1    0    0  501  502  0.00000000000E+00 -0.00000000000E+00 -0.23095057138E+03  0.23095057138E+03  0.00000000000E+00 0.  1.
         23    2    1    2    0    0 -0.20695783696E+02 -0.48098065331E+02  0.19301721343E+03  0.21881832005E+03  0.88792303469E+02 0.  0.
        -24    2    1    2    0    0 -0.18389904034E+02  0.34247961500E+02 -0.36607878940E+02  0.96630533431E+02  0.80537021011E+02 0.  0.
         11    1    4    4    0    0  0.24392832195E+01  0.57480483189E+02 -0.17914569752E+02  0.60256849068E+02  0.00000000000E+00 0. -1.
        -12    1    4    4    0    0 -0.20829187254E+02 -0.23232521689E+02 -0.18693309188E+02  0.36373684362E+02  0.00000000000E+00 0.  1.
        -13    1    3    3    0    0  0.10710664191E+02  0.20490435438E+02  0.22057474494E+02  0.31954787637E+02  0.00000000000E+00 0. -1.
         13    1    3    3    0    0 -0.31406447887E+02 -0.68588500769E+02  0.17095973894E+03  0.18686353241E+03  0.00000000000E+00 0.  1.
         -1    1    1    2    0  502  0.39085687731E+02  0.13850103831E+02 -0.14859202971E+03  0.15426959407E+03  0.00000000000E+00 0.  1.
<scales pt_clust_5="13000.00000" pt_clust_6="13000.00000" pt_clust_7="13000.00000" pt_clust_8="13000.00000" pt_clust_9="41.46705"></scales>
<clustering>
<clus scale="   41.467">  2  9  1 -1</clus>
<clus scale="   80.537">  5  6 -1 -1</clus>
<clus scale="   88.792">  7  8 -1 -1</clus>
<clus scale="   93.780">  2  5  1 -1</clus>
<clus scale="   41.467">  2  5  1 -1</clus>
</clustering>
</event>
<event>
 9    1  0.3197504E-005  0.1084933E+03  0.7546771E-02  0.1267830E+00
         21   -1    0    0  501  502  0.00000000000E+00  0.00000000000E+00  0.14377818845E+03  0.14377818845E+03  0.00000000000E+00 0. -1.
          3   -1    0    0  502    0 -0.00000000000E+00 -0.00000000000E+00 -0.13685947665E+03  0.13685947665E+03  0.00000000000E+00 0. -1.
         23    2    1    2    0    0  0.34200300159E+02  0.38728417958E+02 -0.53937097466E+02  0.11892440814E+03  0.92543251946E+02 0.  0.
        -24    2    1    2    0    0 -0.16452481600E+02 -0.71286512077E+02  0.30830926039E+02  0.11400048960E+03  0.81811458083E+02 0.  0.
         11    1    4    4    0    0  0.17675586479E+02 -0.61760437142E+02 -0.39349590850E+01  0.64360405968E+02  0.00000000000E+00 0. -1.
        -12    1    4    4    0    0 -0.34128068079E+02 -0.95260749353E+01  0.34765885124E+02  0.49640083632E+02  0.00000000000E+00 0.  1.
        -11    1    3    3    0    0  0.58425898726E+02  0.33406847001E+02 -0.94124347592E+01  0.67957317462E+02  0.00000000000E+00 0. -1.
         11    1    3    3    0    0 -0.24225598567E+02  0.53215709570E+01 -0.44524662707E+02  0.50967090682E+02  0.00000000000E+00 0.  1.
          4    1    1    2  501    0 -0.17747818559E+02  0.32558094120E+02  0.30024883224E+02  0.47712767358E+02  0.00000000000E+00 0. -1.
<scales pt_clust_5="13000.00000" pt_clust_6="13000.00000" pt_clust_7="13000.00000" pt_clust_8="13000.00000" pt_clust_9="37.08119"></scales>
<clustering>
<clus scale="   37.081">  1  9  2 -1</clus>
<clus scale="   81.811">  5  6 -1 -1</clus>
<clus scale="   92.543">  7  8 -1 -1</clus>
<clus scale="   99.497">  1  5  2 -1</clus>
<clus scale="   37.081">  1  5  2 -1</clus>
</clustering>
</event>
<event>
 9    1  0.3197504E-005  0.1327737E+03  0.7546771E-02  0.1225682E+00
          1   -1    0    0  502    0 -0.00000000000E+00  0.00000000000E+00  0.88267051193E+02  0.88267051193E+02  0.00000000000E+00 0. -1.
         21   -1    0    0  501  502  0.00000000000E+00 -0.00000000000E+00 -0.38645040965E+03  0.38645040965E+03  0.00000000000E+00 0. -1.
         23    2    1    2    0    0 -0.16975815621E+02 -0.94639822189E+02  0.40706183540E+01  0.13227575422E+03  0.90749275265E+02 0.  0.
        -24    2    1    2    0    0  0.39329790607E+02  0.94637470676E+02 -0.28680390752E+03  0.31526810097E+03  0.81451892761E+02 0.  0.
         11    1    4    4    0    0  0.45749295870E+02  0.10506824974E+03 -0.27633969529E+03  0.29915875780E+03  0.00000000000E+00 0. -1.
        -12    1    4    4    0    0 -0.64195052631E+01 -0.10430779062E+02 -0.10464212225E+02  0.16109343164E+02  0.00000000000E+00 0.  1.
        -11    1    3    3    0    0 -0.41605029264E+02 -0.98820617423E+02  0.39339321502E+01  0.10729384283E+03  0.00000000000E+00 0. -1.
         11    1    3    3    0    0  0.24629213643E+02  0.41807952341E+01  0.13668620378E+00  0.24981911388E+02  0.00000000000E+00 0.  1.
          2    1    1    2  501    0 -0.22353974986E+02  0.23515129990E-02 -0.15450069294E+02  0.27173605657E+02  0.00000000000E+00 0. -1.
<scales pt_clust_5="13000.00000" pt_clust_6="13000.00000" pt_clust_7="13000.00000" pt_clust_8="13000.00000" pt_clust_9="22.35399"></scales>
<clustering>
<clus scale="   22.354">  2  9  1 -1</clus>
<clus scale="   81.452">  5  6 -1 -1</clus>
<clus scale="   90.749">  7  8 -1 -1</clus>
<clus scale="  126.601">  2  5  1 -1</clus>
<clus scale="   22.354">  2  5  1 -1</clus>
</clustering>
</event>
<event>
 9    1  0.3197504E-005  0.1291196E+03  0.7546771E-02  0.1231616E+00
          3   -1    0    0  502    0 -0.00000000000E+00  0.00000000000E+00  0.19280923701E+03  0.19280923701E+03  0.00000000000E+00 0. -1.
         21   -1    0    0  501  502  0.00000000000E+00 -0.00000000000E+00 -0.50664124497E+03  0.50664124497E+03  0.00000000000E+00 0.  1.
        -24    2    1    2    0    0 -0.44413640775E+02  0.76034314264E+02  0.12985172767E+03  0.17577216955E+03  0.79250211215E+02 0.  0.
         23    2    1    2    0    0  0.11157494737E+03 -0.81114256322E+02 -0.15157427178E+03  0.22390442133E+03  0.90166171956E+02 0.  0.
         13    1    3    3    0    0  0.28098386205E+01  0.40612750071E+02  0.10332237092E+03  0.11105315391E+03  0.00000000000E+00 0. -1.
        -14    1    3    3    0    0 -0.47223479396E+02  0.35421564193E+02  0.26529356755E+02  0.64719015644E+02  0.00000000000E+00 0.  1.
        -13    1    4    4    0    0  0.10168262500E+03 -0.99909945270E+02 -0.12287967471E+03  0.18820405906E+03  0.00000000000E+00 0.  1.
         13    1    4    4    0    0  0.98923223712E+01  0.18795688948E+02 -0.28694597067E+02  0.35700362264E+02  0.00000000000E+00 0. -1.
          4    1    1    2  501    0 -0.67161306599E+02  0.50799420587E+01 -0.29210946386E+03  0.29977389111E+03  0.00000000000E+00 0. -1.
<scales pt_clust_5="13000.00000" pt_clust_6="13000.00000" pt_clust_7="13000.00000" pt_clust_8="13000.00000" pt_clust_9="67.35315"></scales>
<clustering>
<clus scale="   67.353">  2  9  1 -1</clus>
<clus scale="   79.250">  5  6 -1 -1</clus>
<clus scale="   90.166">  7  8 -1 -1</clus>
<clus scale="  121.748">  1  5  2 -1</clus>
<clus scale="   67.353">  2  5  1 -1</clus>
</clustering>
</event>
<event>
 9    1  0.3197504E-005  0.9580622E+02  0.7546771E-02  0.1290323E+00
         21   -1    0    0  501  502  0.00000000000E+00  0.00000000000E+00  0.15137556740E+03  0.15137556740E+03  0.00000000000E+00 0.  1.
          3   -1    0    0  502    0 -0.00000000000E+00 -0.00000000000E+00 -0.27279312247E+03  0.27279312247E+03  0.00000000000E+00 0. -1.
        -24    2    1    2    0    0 -0.27305740756E+02  0.97232549187E+01 -0.20773315872E+03  0.22799746890E+03  0.89384760601E+02 0.  0.
         23    2    1    2    0    0  0.38341290517E+02  0.23649789849E+02 -0.13731641119E+01  0.10169972543E+03  0.91167875125E+02 0.  0.
         13    1    3    3    0    0 -0.44011659737E+02 -0.27419280317E+02 -0.13535694216E+03  0.14494945643E+03  0.00000000000E+00 0. -1.
        -14    1    3    3    0    0  0.16705918981E+02  0.37142535236E+02 -0.72376216559E+02  0.83048012476E+02  0.00000000000E+00 0.  1.
        -13    1    4    4    0    0  0.31856135548E+02  0.58288647184E+02  0.15434549910E+00  0.66425925550E+02  0.00000000000E+00 0. -1.
         13    1    4    4    0    0  0.64851549691E+01 -0.34638857335E+02 -0.15275096110E+01  0.35273799881E+02  0.00000000000E+00 0.  1.
          4    1    1    2  501    0 -0.11035549761E+02 -0.33373044768E+02  0.87688767766E+02  0.94471495532E+02  0.00000000000E+00 0. -1.
<scales pt_clust_5="13000.00000" pt_clust_6="13000.00000" pt_clust_7="13000.00000" pt_clust_8="13000.00000" pt_clust_9="35.15030"></scales>
<clustering>
<clus scale="   35.150">  1  9  2 -1</clus>
<clus scale="   89.385">  5  6 -1 -1</clus>
<clus scale="   91.168">  7  8 -1 -1</clus>
<clus scale="   94.111">  2  5  1 -1</clus>
<clus scale="   35.150">  1  5  2 -1</clus>
</clustering>
</event>
<event>
 9    1  0.3197504E-005  0.1212262E+03  0.7546771E-02  0.1244288E+00
         21   -1    0    0  501  502  0.00000000000E+00  0.00000000000E+00  0.50067205226E+03  0.50067205226E+03  0.00000000000E+00 0.  1.
          1   -1    0    0  502    0 -0.00000000000E+00 -0.00000000000E+00 -0.47130114704E+02  0.47130114704E+02  0.00000000000E+00 0. -1.
        -24    2    1    2    0    0 -0.44909802735E+02 -0.65994584232E+02  0.88646544201E+02  0.14281679722E+03  0.78525487832E+02 0.  0.
         23    2    1    2    0    0  0.73837843329E+02  0.56145795740E+02  0.34577615699E+03  0.36893852014E+03  0.89163352413E+02 0.  0.
         13    1    3    3    0    0 -0.58310985569E+02 -0.18304116135E+02  0.37974134402E+02  0.71953086029E+02  0.00000000000E+00 0. -1.
        -14    1    3    3    0    0  0.13401182834E+02 -0.47690468097E+02  0.50672409799E+02  0.70863711189E+02  0.00000000000E+00 0.  1.
        -11    1    4    4    0    0 -0.76422558450E+01  0.20212089834E+02  0.14798711869E+02  0.26190351713E+02  0.00000000000E+00 0. -1.
         11    1    4    4    0    0  0.81480099174E+02  0.35933705906E+02  0.33097744512E+03  0.34274816843E+03  0.00000000000E+00 0.  1.
          2    1    1    2  501    0 -0.28928040594E+02  0.98487884917E+01  0.19119236365E+02  0.36046849606E+02  0.00000000000E+00 0. -1.
<scales pt_clust_5="13000.00000" pt_clust_6="13000.00000" pt_clust_7="13000.00000" pt_clust_8="13000.00000" pt_clust_9="30.55865"></scales>
<clustering>
<clus scale="   30.559">  1  9  2 -1</clus>
<clus scale="   78.525">  5  6 -1 -1</clus>
<clus scale="   89.163">  7  8 -1 -1</clus>
<clus scale="  113.631">  2  5  1 -1</clus>
<clus scale="   30.559">  1  5  2 -1</clus>
</clustering>
</event>
<event>
 9    1  0.3197504E-005  0.1018184E+03  0.7546771E-02  0.1281423E+00
         21   -1    0    0  501  502  0.00000000000E+00  0.00000000000E+00  0.58760815603E+03  0.58760815603E+03  0.00000000000E+00 0.  1.
         -2   -1    0    0    0  501 -0.00000000000E+00 -0.00000000000E+00 -0.75778113801E+02  0.75778113801E+02  0.00000000000E+00 0.  1.
         23    2    1    2    0    0 -0.11357795169E+02  0.51223637872E+02 -0.26721613364E+02  0.10817821503E+03  0.90750322302E+02 0.  0.
        -24    2    1    2    0    0 -0.43898848548E+01  0.51909018964E+00  0.30241854172E+03  0.31295994479E+03  0.80420222133E+02 0.  0.
         11    1    4    4    0    0 -0.39766090537E+02 -0.26286912985E+01  0.21392281065E+03  0.21760335680E+03  0.00000000000E+00 0. -1.
        -12    1    4    4    0    0  0.35376205682E+02  0.31477814881E+01  0.88495731068E+02  0.95356587995E+02  0.00000000000E+00 0.  1.
        -13    1    3    3    0    0  0.11166486140E+02  0.21967204691E+02 -0.55917887342E+02  0.61106944118E+02  0.00000000000E+00 0.  1.
         13    1    3    3    0    0 -0.22524281309E+02  0.29256433182E+02  0.29196273977E+02  0.47071270911E+02  0.00000000000E+00 0. -1.
         -1    1    1    2    0  502  0.15747680024E+02 -0.51742728062E+02  0.23613311388E+03  0.24224811001E+03  0.00000000000E+00 0.  1.
<scales pt_clust_5="13000.00000" pt_clust_6="13000.00000" pt_clust_7="13000.00000" pt_clust_8="13000.00000" pt_clust_9="54.08604"></scales>
<clustering>
<clus scale="   54.086">  1  9  2 -1</clus>
<clus scale="   80.420">  5  6 -1 -1</clus>
<clus scale="   90.750">  7  8 -1 -1</clus>
<clus scale="   92.730">  1  5  2 -1</clus>
<clus scale="   54.086">  1  5  2 -1</clus>
</clustering>
</event>
<event>
 9    1  0.3197504E-005  0.1166571E+03  0.7546771E-02  0.1252441E+00
          1   -1    0    0  502    0 -0.00000000000E+00  0.00000000000E+00  0.36407329363E+03  0.36407329363E+03  0.00000000000E+00 0. -1.
         21   -1    0    0  501  502  0.00000000000E+00 -0.00000000000E+00 -0.16731508781E+03  0.16731508781E+03  0.00000000000E+00 0.  1.
        -24    2    1    2    0    0 -0.41459194037E+02 -0.62540072300E+02  0.30884414555E+03  0.32771217905E+03  0.79877660467E+02 0.  0.
         23    2    1    2    0    0  0.54417626125E+02  0.33555250161E+02 -0.29164898771E+02  0.11488464925E+03  0.90888164618E+02 0.  0.
         13    1    3    3    0    0 -0.25974673845E+02 -0.66587601337E+02  0.30193554317E+03  0.31027997770E+03  0.00000000000E+00 0. -1.
        -14    1    3    3    0    0 -0.15484520192E+02  0.40475290377E+01  0.69086023795E+01  0.17432201345E+02  0.00000000000E+00 0.  1.
        -11    1    4    4    0    0  0.55568720390E+02 -0.17709818594E+02 -0.60432151835E+01  0.58634808861E+02  0.00000000000E+00 0. -1.
         11    1    4    4    0    0 -0.11510942644E+01  0.51265068754E+02 -0.23121683588E+02  0.56249840394E+02  0.00000000000E+00 0.  1.
          2    1    1    2  501    0 -0.12958432088E+02  0.28984822139E+02 -0.82921040956E+02  0.88791553145E+02  0.00000000000E+00 0. -1.
<scales pt_clust_5="13000.00000" pt_clust_6="13000.00000" pt_clust_7="13000.00000" pt_clust_8="13000.00000" pt_clust_9="31.74966"></scales>
<clustering>
<clus scale="   31.750">  2  9  1 -1</clus>
<clus scale="   79.878">  5  6 -1 -1</clus>
<clus scale="   90.888">  7  8 -1 -1</clus>
<clus scale="  108.299">  1  5  2 -1</clus>
<clus scale="   31.750">  2  5  1 -1</clus>
</clustering>
</event>
<event>
 9    1  0.3197504E-005  0.1580976E+03  0.7546771E-02  0.1192279E+00
         21   -1    0    0  501  502  0.00000000000E+00  0.00000000000E+00  0.40520614443E+03  0.40520614443E+03  0.00000000000E+00 0.  1.
          3   -1    0    0  502    0 -0.00000000000E+00 -0.00000000000E+00 -0.78869051263E+02  0.78869051263E+02  0.00000000000E+00 0. -1.
        -24    2    1    2    0    0  0.78682842712E+02  0.80252086978E+02  0.12597789332E+03  0.18754274770E+03  0.81672917221E+02 0.  0.
         23    2    1    2    0    0 -0.93992263867E+02 -0.11704750872E+03  0.14054820623E+03  0.22466008617E+03  0.90463755607E+02 0.  0.
         11    1    3    3    0    0  0.87417103681E+02  0.84961178725E+02  0.93637944594E+02  0.15371472465E+03  0.00000000000E+00 0. -1.
        -12    1    3    3    0    0 -0.87342609683E+01 -0.47090917476E+01  0.32339948728E+02  0.33828023051E+02  0.00000000000E+00 0.  1.
        -11    1    4    4    0    0 -0.36908003485E+02 -0.98274020838E+02  0.50724052366E+02  0.11658865031E+03  0.00000000000E+00 0.  1.
         11    1    4    4    0    0 -0.57084260382E+02 -0.18773487879E+02  0.89824153867E+02  0.10807143586E+03  0.00000000000E+00 0. -1.
          4    1    1    2  501    0  0.15309421155E+02  0.36795421740E+02  0.59810993608E+02  0.71872361819E+02  0.00000000000E+00 0. -1.
<scales pt_clust_5="13000.00000" pt_clust_6="13000.00000" pt_clust_7="13000.00000" pt_clust_8="13000.00000" pt_clust_9="39.85325"></scales>
<clustering>
<clus scale="   39.853">  1  9  2 -1</clus>
<clus scale="   81.673">  5  6 -1 -1</clus>
<clus scale="   90.464">  7  8 -1 -1</clus>
<clus scale="  153.237">  2  5  1 -1</clus>
<clus scale="   39.853">  1  5  2 -1</clus>
</clustering>
</event>
<event>
 9    1  0.3197504E-005  0.1319890E+03  0.7546771E-02  0.1224724E+00
         21   -1    0    0  501  502  0.00000000000E+00  0.00000000000E+00  0.15846060175E+03  0.15846060175E+03  0.00000000000E+00 0.  1.
          1   -1    0    0  502    0 -0.00000000000E+00 -0.00000000000E+00 -0.83729559441E+03  0.83729559441E+03  0.00000000000E+00 0. -1.
        -24    2    1    2    0    0  0.96363420271E+02 -0.67168076717E+02 -0.12405285449E+03  0.18958122801E+03  0.82185594893E+02 0.  0.
         23    2    1    2    0    0 -0.11489227903E+02  0.66882406511E+02  0.10014067946E+03  0.14577538671E+03  0.81345245899E+02 0.  0.
         13    1    3    3    0    0  0.15572637568E+02 -0.60290493418E+02 -0.54833551990E+02  0.82970892855E+02  0.00000000000E+00 0. -1.
        -14    1    3    3    0    0  0.80790782703E+02 -0.68775832990E+01 -0.69219302504E+02  0.10661033515E+03  0.00000000000E+00 0.  1.
        -13    1    4    4    0    0  0.20570826454E+02  0.25258099443E+02 -0.12816376427E+00  0.32575250028E+02  0.00000000000E+00 0. -1.
         13    1    4    4    0    0 -0.32060054357E+02  0.41624307068E+02  0.10026884322E+03  0.11320013668E+03  0.00000000000E+00 0.  1.
          2    1    1    2  501    0 -0.84874192368E+02  0.28567020591E+00 -0.65492281762E+03  0.66039958145E+03  0.00000000000E+00 0. -1.
<scales pt_clust_5="13000.00000" pt_clust_6="13000.00000" pt_clust_7="13000.00000" pt_clust_8="13000.00000" pt_clust_9="84.87472"></scales>
<clustering>
<clus scale="   81.345">  7  8 -1 -1</clus>
<clus scale="   82.186">  5  6 -1 -1</clus>
<clus scale="   84.875">  1  9  2 -1</clus>
<clus scale="  131.467">  1  7  2 -1</clus>
<clus scale="   84.875">  1  5  2 -1</clus>
</clustering>
</event>
<event>
 9    1  0.3197504E-005  0.9999387E+02  0.7546771E-02  0.1288878E+00
          1   -1    0    0  502    0 -0.00000000000E+00  0.00000000000E+00  0.37612861175E+03  0.37612861175E+03  0.00000000000E+00 0. -1.
         21   -1    0    0  501  502  0.00000000000E+00 -0.00000000000E+00 -0.64065601889E+02  0.64065601889E+02  0.00000000000E+00 0.  1.
        -24    2    1    2    0    0  0.23005070881E+02  0.11798942937E+02  0.28968768979E+03  0.30204404214E+03  0.81505812296E+02 0.  0.
         23    2    1    2    0    0 -0.49893913933E+01 -0.22955894027E+02  0.42915980855E+02  0.10863812293E+03  0.96997903300E+02 0.  0.
         11    1    3    3    0    0 -0.19547904464E+02  0.27218509937E+02  0.18470752195E+03  0.18772276505E+03  0.00000000000E+00 0. -1.
        -12    1    3    3    0    0  0.42552975345E+02 -0.15419567001E+02  0.10498016784E+03  0.11432127709E+03  0.00000000000E+00 0.  1.
        -13    1    4    4    0    0  0.29539834800E+02 -0.48461972577E+02  0.27049559334E+02  0.62871641351E+02  0.00000000000E+00 0.  1.
         13    1    4    4    0    0 -0.34529226193E+02  0.25506078550E+02  0.15866421521E+02  0.45766481582E+02  0.00000000000E+00 0. -1.
          2    1    1    2  501    0 -0.18015679488E+02  0.11156951090E+02 -0.20540660782E+02  0.29512048563E+02  0.00000000000E+00 0. -1.
<scales pt_clust_5="13000.00000" pt_clust_6="13000.00000" pt_clust_7="13000.00000" pt_clust_8="13000.00000" pt_clust_9="21.19062"></scales>
<clustering>
<clus scale="   21.191">  2  9  1 -1</clus>
<clus scale="   81.506">  5  6 -1 -1</clus>
<clus scale="   85.049">  1  5  2 -1</clus>
<clus scale="   96.998">  7  8 -1 -1</clus>
<clus scale="   21.191">  2  5  1 -1</clus>
</clustering>
</event>
<event>
 9    1  0.3197504E-005  0.2900395E+03  0.7546771E-02  0.1090770E+00
         21   -1    0    0  501  502  0.00000000000E+00  0.00000000000E+00  0.12125456569E+03  0.12125456569E+03  0.00000000000E+00 0.  1.
          1   -1    0    0  502    0 -0.00000000000E+00 -0.00000000000E+00 -0.13570365132E+04  0.13570365132E+04  0.00000000000E+00 0. -1.
         23    2    1    2    0    0 -0.25315649860E+03 -0.14853245357E+03 -0.82965270218E+03  0.88477041626E+03  0.91350865933E+02 0.  0.
        -24    2    1    2    0    0  0.18189885163E+03  0.11702102422E+03 -0.59403978812E+02  0.23814897991E+03  0.80031191437E+02 0.  0.
         13    1    4    4    0    0  0.98569701303E+02  0.20177352549E+02 -0.97695378626E+01  0.10108687076E+03  0.00000000000E+00 0. -1.
        -14    1    4    4    0    0  0.83329150326E+02  0.96843671670E+02 -0.49634440950E+02  0.13706210915E+03  0.00000000000E+00 0.  1.
        -13    1    3    3    0    0 -0.19600215539E+03 -0.76917756102E+02 -0.49773114065E+03  0.54043452378E+03  0.00000000000E+00 0. -1.
         13    1    3    3    0    0 -0.57154343213E+02 -0.71614697471E+02 -0.33192156152E+03  0.34433589247E+03  0.00000000000E+00 0.  1.
          2    1    1    2  501    0  0.71257646974E+02  0.31511429356E+02 -0.34672526651E+03  0.35537168270E+03  0.00000000000E+00 0. -1.
<scales pt_clust_5="13000.00000" pt_clust_6="13000.00000" pt_clust_7="13000.00000" pt_clust_8="13000.00000" pt_clust_9="77.91424"></scales>
<clustering>
<clus scale="   77.914">  1  9  2 -1</clus>
<clus scale="   80.031">  5  6 -1 -1</clus>
<clus scale="   91.351">  7  8 -1 -1</clus>
<clus scale="  286.676">  1  5  2 -1</clus>
<clus scale="   77.914">  1  5  2 -1</clus>
</clustering>
</event>
<event>
 9    1  0.3197504E-005  0.9476633E+02  0.7546771E-02  0.1296741E+00
         21   -1    0    0  501  502  0.00000000000E+00  0.00000000000E+00  0.16723605071E+03  0.16723605071E+03  0.00000000000E+00 0. -1.
         -4   -1    0    0    0  501 -0.00000000000E+00 -0.00000000000E+00 -0.10892607975E+03  0.10892607975E+03  0.00000000000E+00 0.  1.
         23    2    1    2    0    0 -0.20854517906E+02  0.16882084195E+02 -0.30419705360E+02  0.99191845665E+02  0.90519324392E+02 0.  0.
        -24    2    1    2    0    0 -0.21910990065E+02 -0.49738232059E+02  0.46704618100E+02  0.10859981864E+03  0.81600343395E+02 0.  0.
         11    1    4    4    0    0 -0.88797014866E+01 -0.70443426837E+02  0.45033420941E+02  0.84078145107E+02  0.00000000000E+00 0. -1.
        -12    1    4    4    0    0 -0.13031288578E+02  0.20705194777E+02  0.16711971590E+01  0.24521673530E+02  0.00000000000E+00 0.  1.
        -13    1    3    3    0    0 -0.18841074722E+02 -0.33212915379E+02  0.39769592432E+01  0.38391405933E+02  0.00000000000E+00 0. -1.
         13    1    3    3    0    0 -0.20134431835E+01  0.50094999575E+02 -0.34396664603E+02  0.60800439732E+02  0.00000000000E+00 0.  1.
         -3    1    1    2    0  502  0.42765507970E+02  0.32856147864E+02  0.42025058225E+02  0.68370466162E+02  0.00000000000E+00 0.  1.
<scales pt_clust_5="13000.00000" pt_clust_6="13000.00000" pt_clust_7="13000.00000" pt_clust_8="13000.00000" pt_clust_9="53.92972"></scales>
<clustering>
<clus scale="   53.930">  1  9  2 -1</clus>
<clus scale="   81.600">  5  6 -1 -1</clus>
<clus scale="   86.287">  1  5  2 -1</clus>
<clus scale="   90.519">  7  8 -1 -1</clus>
<clus scale="   53.930">  1  5  2 -1</clus>
</clustering>
</event>
<event>
 9    1  0.3197504E-005  0.9653974E+02  0.7546771E-02  0.1292031E+00
          1   -1    0    0  502    0 -0.00000000000E+00  0.00000000000E+00  0.24675577816E+03  0.24675577816E+03  0.00000000000E+00 0. -1.
         21   -1    0    0  501  502  0.00000000000E+00 -0.00000000000E+00 -0.80575972921E+02  0.80575972921E+02  0.00000000000E+00 0. -1.
         23    2    1    2    0    0  0.84730936528E+01  0.62531216911E+02  0.10526247225E+03  0.15265925273E+03  0.90789388007E+02 0.  0.
        -24    2    1    2    0    0  0.24290239701E+01  0.12759806212E+02  0.13204828672E+02  0.84872290114E+02  0.82826477149E+02 0.  0.
         11    1    4    4    0    0 -0.18076000050E+02 -0.10830004132E+02 -0.26808176152E+02  0.34098520142E+02  0.00000000000E+00 0. -1.
        -12    1    4    4    0    0  0.20505024020E+02  0.23589810344E+02  0.40013004824E+02  0.50773769972E+02  0.00000000000E+00 0.  1.
        -13    1    3    3    0    0 -0.38712885967E+02  0.46286823798E+02  0.51814793424E+02  0.79535717856E+02  0.00000000000E+00 0.  1.
         13    1    3    3    0    0  0.47185979620E+02  0.16244393114E+02  0.53447678826E+02  0.73123534873E+02  0.00000000000E+00 0. -1.
          2    1    1    2  501    0 -0.10902117623E+02 -0.75291023123E+02  0.47712504315E+02  0.89800208238E+02  0.00000000000E+00 0. -1.
<scales pt_clust_5="13000.00000" pt_clust_6="13000.00000" pt_clust_7="13000.00000" pt_clust_8="13000.00000" pt_clust_9="76.07628"></scales>
<clustering>
<clus scale="   76.076">  2  9  1 -1</clus>
<clus scale="   82.826">  5  6 -1 -1</clus>
<clus scale="   89.092">  2  5  1 -1</clus>
<clus scale="   90.789">  7  8 -1 -1</clus>
<clus scale="   76.076">  2  5  1 -1</clus>
</clustering>
</event>
<event>
 9    1  0.3197504E-005  0.1021387E+03  0.7546771E-02  0.1280364E+00
         -4   -1    0    0    0  501 -0.00000000000E+00  0.00000000000E+00  0.16244307794E+03  0.16244307794E+03  0.00000000000E+00 0.  1.
         21   -1    0    0  501  502  0.00000000000E+00 -0.00000000000E+00 -0.45213228243E+03  0.45213228243E+03  0.00000000000E+00 0.  1.
        -24    2    1    2    0    0  0.45063519081E+01 -0.45716884522E+02  0.49649205667E+02  0.10551503445E+03  0.80981714814E+02 0.  0.
         23    2    1    2    0    0  0.60554824908E+02  0.35772447221E+02  0.41964196257E+02  0.12211908203E+03  0.90584334344E+02 0.  0.
         13    1    3    3    0    0  0.14011994124E+02  0.20349276999E+02  0.22639169765E+02  0.33510611176E+02  0.00000000000E+00 0. -1.
        -14    1    3    3    0    0 -0.95056422159E+01 -0.66066161521E+02  0.27010035902E+02  0.72004423277E+02  0.00000000000E+00 0.  1.
        -11    1    4    4    0    0  0.28827501945E+02 -0.29468185237E+02  0.22691769927E+02  0.47056511047E+02  0.00000000000E+00 0.  1.
         11    1    4    4    0    0  0.31727322963E+02  0.65240632457E+02  0.19272426330E+02  0.75062570982E+02  0.00000000000E+00 0. -1.
         -3    1    1    2    0  502 -0.65061176816E+02  0.99444373014E+01 -0.38130260641E+03  0.38694124388E+03  0.00000000000E+00 0.  1.
<scales pt_clust_5="13000.00000" pt_clust_6="13000.00000" pt_clust_7="13000.00000" pt_clust_8="13000.00000" pt_clust_9="65.81678"></scales>
<clustering>
<clus scale="   65.817">  2  9  1 -1</clus>
<clus scale="   80.982">  5  6 -1 -1</clus>
<clus scale="   90.584">  7  8 -1 -1</clus>
<clus scale="   93.727">  1  5  2 -1</clus>
<clus scale="   65.817">  2  5  1 -1</clus>
</clustering>
</event>
<event>
 9    1  0.3197504E-005  0.1163741E+03  0.7546771E-02  0.1253004E+00
         -2   -1    0    0    0  501 -0.00000000000E+00  0.00000000000E+00  0.50356458860E+03  0.50356458860E+03  0.00000000000E+00 0.  1.
         21   -1    0    0  501  502  0.00000000000E+00 -0.00000000000E+00 -0.92124940025E+02  0.92124940025E+02  0.00000000000E+00 0.  1.
        -24    2    1    2    0    0 -0.32825639831E+02 -0.66195495529E+02  0.35771800131E+03  0.37402461953E+03  0.80454218610E+02 0.  0.
         23    2    1    2    0    0  0.70461838367E+02  0.22361969821E+02 -0.28607566833E+02  0.12108677574E+03  0.91535162742E+02 0.  0.
         11    1    3    3    0    0  0.14927302906E+02 -0.31115271595E+02  0.50634471367E+02  0.61276701846E+02  0.00000000000E+00 0. -1.
        -12    1    3    3    0    0 -0.47752942737E+02 -0.35080223934E+02  0.30708352994E+03  0.31274791768E+03  0.00000000000E+00 0.  1.
        -11    1    4    4    0    0  0.18534997752E+02 -0.35295281902E+02 -0.13061426868E+02  0.41951209017E+02  0.00000000000E+00 0.  1.
         11    1    4    4    0    0  0.51926840615E+02  0.57657251722E+02 -0.15546139966E+02  0.79135566721E+02  0.00000000000E+00 0. -1.
         -1    1    1    2    0  502 -0.37636198536E+02  0.43833525709E+02  0.82329214102E+02  0.10057813336E+03  0.00000000000E+00 0.  1.
<scales pt_clust_5="13000.00000" pt_clust_6="13000.00000" pt_clust_7="13000.00000" pt_clust_8="13000.00000" pt_clust_9="57.77426"></scales>
<clustering>
<clus scale="   57.774">  2  9  1 -1</clus>
<clus scale="   80.454">  5  6 -1 -1</clus>
<clus scale="   91.535">  7  8 -1 -1</clus>
<clus scale="  107.875">  1  5  2 -1</clus>
<clus scale="   57.774">  2  5  1 -1</clus>
</clustering>
</event>
<event>
 9    1  0.3197504E-005  0.9392724E+02  0.7546771E-02  0.1306074E+00
          3   -1    0    0  502    0 -0.00000000000E+00  0.00000000000E+00  0.56785127303E+02  0.56785127303E+02  0.00000000000E+00 0. -1.
         21   -1    0    0  501  502  0.00000000000E+00 -0.00000000000E+00 -0.42223232208E+03  0.42223232208E+03  0.00000000000E+00 0. -1.
        -24    2    1    2    0    0  0.23693245010E+02 -0.14017865761E+02  0.13683674401E+02  0.76950185763E+02  0.70542311588E+02 0.  0.
         23    2    1    2    0    0 -0.53917321647E+01 -0.20836614044E+02 -0.29037704392E+03  0.30497441305E+03  0.90704628963E+02 0.  0.
         13    1    3    3    0    0  0.45568429054E+02 -0.23991440337E+02  0.11814429871E+02  0.52836083211E+02  0.00000000000E+00 0. -1.
        -14    1    3    3    0    0 -0.21875184044E+02  0.99735745763E+01  0.18692445300E+01  0.24114102552E+02  0.00000000000E+00 0.  1.
        -13    1    4    4    0    0 -0.41365990317E+02  0.11347061090E+02 -0.16882579907E+03  0.17418969942E+03  0.00000000000E+00 0.  1.
         13    1    4    4    0    0  0.35974258152E+02 -0.32183675134E+02 -0.12155124485E+03  0.13078471363E+03  0.00000000000E+00 0. -1.
          4    1    1    2  501    0 -0.18301512846E+02  0.34854479804E+02 -0.88753825249E+02  0.97092850567E+02  0.00000000000E+00 0. -1.
<scales pt_clust_5="13000.00000" pt_clust_6="13000.00000" pt_clust_7="13000.00000" pt_clust_8="13000.00000" pt_clust_9="39.36725"></scales>
<clustering>
<clus scale="   39.367">  2  9  1 -1</clus>
<clus scale="   70.542">  5  6 -1 -1</clus>
<clus scale="   74.641">  1  5  2 -1</clus>
<clus scale="   90.705">  7  8 -1 -1</clus>
<clus scale="   39.367">  2  5  1 -1</clus>
</clustering>
</event>
<event>
 9    1  0.3197504E-005  0.1007308E+03  0.7546771E-02  0.1283913E+00
         -2   -1    0    0    0  501 -0.00000000000E+00  0.00000000000E+00  0.27113115904E+03  0.27113115904E+03  0.00000000000E+00 0.  1.
         21   -1    0    0  501  502  0.00000000000E+00 -0.00000000000E+00 -0.10133619582E+03  0.10133619582E+03  0.00000000000E+00 0. -1.
        -24    2    1    2    0    0  0.26661069293E+02 -0.34001750124E+02  0.20543810513E+03  0.22501591488E+03  0.80996390552E+02 0.  0.
         23    2    1    2    0    0  0.59009044469E+01  0.46741969453E+02 -0.43380912509E+02  0.11163987179E+03  0.91443561947E+02 0.  0.
         11    1    3    3    0    0 -0.41495939589E+01 -0.36985219486E+02  0.32749044897E+02  0.49574444345E+02  0.00000000000E+00 0. -1.
        -12    1    3    3    0    0  0.30810663252E+02  0.29834693614E+01  0.17268906023E+03  0.17544147053E+03  0.00000000000E+00 0.  1.
        -13    1    4    4    0    0 -0.37523949796E+02  0.45861620359E+01 -0.11125856645E+01  0.37819539095E+02  0.00000000000E+00 0.  1.
         13    1    4    4    0    0  0.43424854243E+02  0.42155807417E+02 -0.42268326844E+02  0.73820332695E+02  0.00000000000E+00 0. -1.
         -1    1    1    2    0  502 -0.32561973740E+02 -0.12740219328E+02  0.77377706077E+01  0.35811568192E+02  0.00000000000E+00 0.  1.
<scales pt_clust_5="13000.00000" pt_clust_6="13000.00000" pt_clust_7="13000.00000" pt_clust_8="13000.00000" pt_clust_9="34.96563"></scales>
<clustering>
<clus scale="   34.966">  2  9  1 -1</clus>
<clus scale="   80.996">  5  6 -1 -1</clus>
<clus scale="   91.352">  1  5  2 -1</clus>
<clus scale="   91.444">  7  8 -1 -1</clus>
<clus scale="   34.966">  2  5  1 -1</clus>
</clustering>
</event>
<event>
 9    1  0.3197504E-005  0.1121612E+03  0.7546771E-02  0.1260974E+00
         21   -1    0    0  501  502  0.00000000000E+00  0.00000000000E+00  0.17342531457E+03  0.17342531457E+03  0.00000000000E+00 0.  1.
          1   -1    0    0  502    0 -0.00000000000E+00 -0.00000000000E+00 -0.53867242827E+03  0.53867242827E+03  0.00000000000E+00 0. -1.
        -24    2    1    2    0    0 -0.62029999582E+02 -0.84474165524E+01 -0.44534343844E+03  0.45650857771E+03  0.78423361715E+02 0.  0.
         23    2    1    2    0    0  0.11462232903E+03  0.30662477409E+02 -0.95126005768E+01  0.14933841669E+03  0.90183187444E+02 0.  0.
         13    1    3    3    0    0 -0.63396257762E+02 -0.34154695643E+02 -0.27696096558E+03  0.28616953924E+03  0.00000000000E+00 0. -1.
        -14    1    3    3    0    0  0.13662581798E+01  0.25707279091E+02 -0.16838247286E+03  0.17033903847E+03  0.00000000000E+00 0.  1.
        -11    1    4    4    0    0  0.64968745121E+02 -0.27954932224E+02 -0.15074098330E+02  0.72316281146E+02  0.00000000000E+00 0. -1.
         11    1    4    4    0    0  0.49653583910E+02  0.58617409633E+02  0.55614977530E+01  0.77022135549E+02  0.00000000000E+00 0.  1.
          2    1    1    2  501    0 -0.52592329449E+02 -0.22215060856E+02  0.89608925324E+02  0.10625074844E+03  0.00000000000E+00 0. -1.
<scales pt_clust_5="13000.00000" pt_clust_6="13000.00000" pt_clust_7="13000.00000" pt_clust_8="13000.00000" pt_clust_9="57.09170"></scales>
<clustering>
<clus scale="   57.092">  1  9  2 -1</clus>
<clus scale="   78.423">  5  6 -1 -1</clus>
<clus scale="   90.183">  7  8 -1 -1</clus>
<clus scale="  102.943">  2  5  1 -1</clus>
<clus scale="   57.092">  1  5  2 -1</clus>
</clustering>
</event>
<event>
 9    1  0.3197504E-005  0.1283438E+03  0.7546771E-02  0.1237231E+00
          1   -1    0    0  502    0 -0.00000000000E+00  0.00000000000E+00  0.12226778244E+04  0.12226778244E+04  0.00000000000E+00 0. -1.
         21   -1    0    0  501  502  0.00000000000E+00 -0.00000000000E+00 -0.15526397915E+02  0.15526397915E+02  0.00000000000E+00 0. -1.
        -24    2    1    2    0    0  0.30248333333E+02  0.73824455205E+02  0.70493899390E+03  0.71436004622E+03  0.83703516394E+02 0.  0.
         23    2    1    2    0    0 -0.35916809365E+02 -0.46981143895E+02  0.40591075233E+03  0.42371072214E+03  0.10616021909E+03 0.  0.
         11    1    3    3    0    0 -0.28127686914E+02  0.28749739614E+02  0.19400366123E+03  0.19812908638E+03  0.00000000000E+00 0. -1.
        -12    1    3    3    0    0  0.58376020247E+02  0.45074715591E+02  0.51093533267E+03  0.51623095984E+03  0.00000000000E+00 0.  1.
        -13    1    4    4    0    0 -0.62162491591E+02 -0.33291074320E+02  0.37231653296E+03  0.37893544530E+03  0.00000000000E+00 0.  1.
         13    1    4    4    0    0  0.26245682225E+02 -0.13690069575E+02  0.33594219377E+02  0.44775276839E+02  0.00000000000E+00 0. -1.
          2    1    1    2  501    0  0.56684760325E+01 -0.26843311310E+02  0.96301680215E+02  0.10013345392E+03  0.00000000000E+00 0. -1.
<scales pt_clust_5="13000.00000" pt_clust_6="13000.00000" pt_clust_7="13000.00000" pt_clust_8="13000.00000" pt_clust_9="27.43529"></scales>
<clustering>
<clus scale="   27.435">  2  9  1 -1</clus>
<clus scale="   83.704">  5  6 -1 -1</clus>
<clus scale="  106.160">  7  8 -1 -1</clus>
<clus scale="  110.492">  1  5  2 -1</clus>
<clus scale="   27.435">  2  5  1 -1</clus>
</clustering>
</event>
<event>
 9    1  0.3197504E-005  0.1667212E+03  0.7546771E-02  0.1201589E+00
         21   -1    0    0  501  502  0.00000000000E+00  0.00000000000E+00  0.12976861724E+04  0.12976861724E+04  0.00000000000E+00 0.  1.
          3   -1    0    0  502    0 -0.00000000000E+00 -0.00000000000E+00 -0.36796190089E+02  0.36796190089E+02  0.00000000000E+00 0. -1.
        -24    2    1    2    0    0  0.61760167311E+02 -0.32603714172E+02  0.50272872417E+03  0.51391285933E+03  0.80578759205E+02 0.  0.
         23    2    1    2    0    0 -0.96285539293E+02 -0.10565889395E+03  0.38141423866E+03  0.41777071120E+03  0.92848471922E+02 0.  0.
         11    1    3    3    0    0  0.40125090981E+02 -0.19604210524E+02  0.90565324452E+02  0.10097735384E+03  0.00000000000E+00 0. -1.
        -12    1    3    3    0    0  0.21635076330E+02 -0.12999503649E+02  0.41216339971E+03  0.41293550548E+03  0.00000000000E+00 0.  1.
        -13    1    4    4    0    0 -0.57550871041E+02 -0.15202858977E+01  0.15999282580E+03  0.17003563843E+03  0.00000000000E+00 0. -1.
         13    1    4    4    0    0 -0.38734668252E+02 -0.10413860805E+03  0.22142141286E+03  0.24773507278E+03  0.00000000000E+00 0.  1.
          4    1    1    2  501    0  0.34525371981E+02  0.13826260812E+03  0.37674701949E+03  0.40279879197E+03  0.00000000000E+00 0. -1.
<scales pt_clust_5="13000.00000" pt_clust_6="13000.00000" pt_clust_7="13000.00000" pt_clust_8="13000.00000" pt_clust_9="138.47428"></scales>
<clustering>
<clus scale="   80.579">  5  6 -1 -1</clus>
<clus scale="   92.848">  7  8 -1 -1</clus>
<clus scale="  106.631">  2  5  1 -1</clus>
<clus scale="  138.474">  1  9  2 -1</clus>
<clus scale="  138.474">  1  5  2 -1</clus>
</clustering>
</event>
<event>
 9    1  0.3197504E-005  0.9672582E+02  0.7546771E-02  0.1292834E+00
         21   -1    0    0  501  502  0.00000000000E+00  0.00000000000E+00  0.31656522266E+03  0.31656522266E+03  0.00000000000E+00 0. -1.
         -4   -1    0    0    0  501 -0.00000000000E+00 -0.00000000000E+00 -0.32873556205E+03  0.32873556205E+03  0.00000000000E+00 0.  1.
        -24    2    1    2    0    0 -0.22434755205E+02  0.22258491879E+02 -0.31014651179E+03  0.32222335097E+03  0.81475581834E+02 0.  0.
         23    2    1    2    0    0  0.28921962075E+02  0.29799996342E+01  0.20273045305E+03  0.22433123197E+03  0.91539634895E+02 0.  0.
         11    1    3    3    0    0 -0.11357041064E+02  0.22703299981E+02 -0.21226151156E+02  0.33090356672E+02  0.00000000000E+00 0. -1.
        -12    1    3    3    0    0 -0.11077714141E+02 -0.44480810217E+00 -0.28892036063E+03  0.28913299430E+03  0.00000000000E+00 0.  1.
        -13    1    4    4    0    0  0.13115516205E+02 -0.41230063128E+02  0.59258423722E+02  0.73372308488E+02  0.00000000000E+00 0.  1.
         13    1    4    4    0    0  0.15806445871E+02  0.44210062762E+02  0.14347202932E+03  0.15095892348E+03  0.00000000000E+00 0. -1.
         -3    1    1    2    0  502 -0.64872068700E+01 -0.25238491513E+02  0.95245719355E+02  0.98746201761E+02  0.00000000000E+00 0.  1.
<scales pt_clust_5="13000.00000" pt_clust_6="13000.00000" pt_clust_7="13000.00000" pt_clust_8="13000.00000" pt_clust_9="26.05888"></scales>
<clustering>
<clus scale="   26.059">  1  9  2 -1</clus>
<clus scale="   81.476">  5  6 -1 -1</clus>
<clus scale="   87.262">  2  5  1 -1</clus>
<clus scale="   91.540">  7  8 -1 -1</clus>
<clus scale="   26.059">  1  5  2 -1</clus>
</clustering>
</event>
<event>
 9    1  0.3197504E-005  0.9284837E+02  0.7546771E-02  0.1298020E+00
         21   -1    0    0  501  502  0.00000000000E+00  0.00000000000E+00  0.11265013255E+03  0.11265013255E+03  0.00000000000E+00 0.  1.
         -4   -1    0    0    0  501 -0.00000000000E+00 -0.00000000000E+00 -0.34181674426E+03  0.34181674426E+03  0.00000000000E+00 0.  1.
        -24    2    1    2    0    0 -0.53407104811E+02  0.14093261240E+02 -0.25524976494E+03  0.27362319026E+03  0.81647222178E+02 0.  0.
         23    2    1    2    0    0  0.19380437058E+02  0.13718523406E+02 -0.48107775986E+02  0.94613741276E+02  0.77933322160E+02 0.  0.
         11    1    3    3    0    0 -0.44118949465E+02  0.67681055710E+01 -0.46202164116E+02  0.64241177791E+02  0.00000000000E+00 0. -1.
        -12    1    3    3    0    0 -0.92881553455E+01  0.73251556689E+01 -0.20904760082E+03  0.20938201247E+03  0.00000000000E+00 0.  1.
        -11    1    4    4    0    0  0.13097785848E+02  0.41850020955E+02 -0.49023782022E+02  0.65774671810E+02  0.00000000000E+00 0.  1.
         11    1    4    4    0    0  0.62826512105E+01 -0.28131497549E+02  0.91600603600E+00  0.28839069466E+02  0.00000000000E+00 0. -1.
         -3    1    1    2    0  502  0.34026667753E+02 -0.27811784645E+02  0.74190929216E+02  0.86229945271E+02  0.00000000000E+00 0.  1.
<scales pt_clust_5="13000.00000" pt_clust_6="13000.00000" pt_clust_7="13000.00000" pt_clust_8="13000.00000" pt_clust_9="43.94667"></scales>
<clustering>
<clus scale="   43.947">  1  9  2 -1</clus>
<clus scale="   77.933">  7  8 -1 -1</clus>
<clus scale="   81.647">  5  6 -1 -1</clus>
<clus scale="   89.600">  1  7  2 -1</clus>
<clus scale="   43.947">  1  5  2 -1</clus>
</clustering>
</event>
<event>
 9    1  0.3197504E-005  0.1525304E+03  0.7546771E-02  0.1223931E+00
         21   -1    0    0  501  502  0.00000000000E+00  0.00000000000E+00  0.13869465278E+04  0.13869465278E+04  0.00000000000E+00 0.  1.
         -2   -1    0    0    0  501 -0.00000000000E+00 -0.00000000000E+00 -0.32954507828E+02  0.32954507828E+02  0.00000000000E+00 0.  1.
        -24    2    1    2    0    0 -0.12079791652E+02  0.33267121887E+02  0.13123648659E+03  0.15723614455E+03  0.79041552213E+02 0.  0.
         23    2    1    2    0    0 -0.68277999846E+02  0.65109056144E+02  0.26604821353E+03  0.29756171373E+03  0.94128885587E+02 0.  0.
         11    1    3    3    0    0  0.13258831709E+02  0.52349174327E+02  0.71518568187E+02  0.89616618249E+02  0.00000000000E+00 0. -1.
        -12    1    3    3    0    0 -0.25338623360E+02 -0.19082052439E+02  0.59717918401E+02  0.67619526302E+02  0.00000000000E+00 0.  1.
        -13    1    4    4    0    0 -0.56049883889E+02  0.88820789089E+02  0.19191620067E+03  0.21877511316E+03  0.00000000000E+00 0.  1.
         13    1    4    4    0    0 -0.12228115957E+02 -0.23711732945E+02  0.74132012857E+02  0.78786600570E+02  0.00000000000E+00 0. -1.
         -1    1    1    2    0  502  0.80357791498E+02 -0.98376178031E+02  0.95670731986E+03  0.96510317735E+03  0.00000000000E+00 0.  1.
<scales pt_clust_5="13000.00000" pt_clust_6="13000.00000" pt_clust_7="13000.00000" pt_clust_8="13000.00000" pt_clust_9="120.02204"></scales>
<clustering>
<clus scale="   79.042">  5  6 -1 -1</clus>
<clus scale="   86.604">  2  5  1 -1</clus>
<clus scale="   94.129">  7  8 -1 -1</clus>
<clus scale="  120.022">  1  9  2 -1</clus>
<clus scale="  120.022">  1  5  2 -1</clus>
</clustering>
</event>
<event>
 9    1  0.3197504E-005  0.1268470E+03  0.7546771E-02  0.1234123E+00
         21   -1    0    0  501  502  0.00000000000E+00  0.00000000000E+00  0.83376493731E+03  0.83376493731E+03  0.00000000000E+00 0.  1.
         -4   -1    0    0    0  501 -0.00000000000E+00 -0.00000000000E+00 -0.44410240936E+02  0.44410240936E+02  0.00000000000E+00 0.  1.
        -24    2    1    2    0    0 -0.71769442491E+00 -0.65217908316E+02  0.15747889999E+03  0.18820886307E+03  0.79806525708E+02 0.  0.
         23    2    1    2    0    0 -0.12510690967E+02  0.12649810391E+03  0.19459499188E+03  0.24821440003E+03  0.87091273002E+02 0.  0.
         11    1    3    3    0    0  0.23114346033E+02 -0.11765311277E+02  0.71715223800E+01  0.26909594483E+02  0.00000000000E+00 0. -1.
        -12    1    3    3    0    0 -0.23832040458E+02 -0.53452597039E+02  0.15030737761E+03  0.16129926858E+03  0.00000000000E+00 0.  1.
        -13    1    4    4    0    0  0.29724161998E+02  0.78825451085E+02  0.14417140779E+03  0.16698015561E+03  0.00000000000E+00 0. -1.
         13    1    4    4    0    0 -0.42234852965E+02  0.47672652829E+02  0.50423584098E+02  0.81234244417E+02  0.00000000000E+00 0.  1.
         -3    1    1    2    0  502  0.13228385392E+02 -0.61280195598E+02  0.43728080450E+03  0.44175191515E+03  0.00000000000E+00 0.  1.
<scales pt_clust_5="13000.00000" pt_clust_6="13000.00000" pt_clust_7="13000.00000" pt_clust_8="13000.00000" pt_clust_9="62.69173"></scales>
<clustering>
<clus scale="   62.692">  1  9  2 -1</clus>
<clus scale="   79.807">  5  6 -1 -1</clus>
<clus scale="   87.091">  7  8 -1 -1</clus>
<clus scale="  121.961">  2  5  1 -1</clus>
<clus scale="   62.692">  1  5  2 -1</clus>
</clustering>
</event>
<event>
 9    1  0.3197504E-005  0.1044764E+03  0.7546771E-02  0.1273972E+00
         21   -1    0    0  501  502  0.00000000000E+00  0.00000000000E+00  0.53154123363E+02  0.53154123363E+02  0.00000000000E+00 0.  1.
          1   -1    0    0  502    0 -0.00000000000E+00 -0.00000000000E+00 -0.30633073818E+03  0.30633073818E+03  0.00000000000E+00 0. -1.
        -24    2    1    2    0    0  0.37066310187E+02  0.28967540055E+02 -0.89136983706E+02  0.13123438053E+03  0.84047790222E+02 0.  0.
         23    2    1    2    0    0 -0.64822289353E+02 -0.37924331021E+01 -0.82769399845E+02  0.13875729200E+03  0.90479283743E+02 0.  0.
         13    1    3    3    0    0  0.33942606719E+02  0.56784603637E+02 -0.74545830085E+02  0.99667810973E+02  0.00000000000E+00 0. -1.
        -14    1    3    3    0    0  0.31237034676E+01 -0.27817063581E+02 -0.14591153622E+02  0.31566569558E+02  0.00000000000E+00 0.  1.
        -11    1    4    4    0    0 -0.24710670803E+02  0.17228926786E+02 -0.88147610543E+02  0.93152855104E+02  0.00000000000E+00 0. -1.
         11    1    4    4    0    0 -0.40111618550E+02 -0.21021359888E+02  0.53782106976E+01  0.45604436896E+02  0.00000000000E+00 0.  1.
          2    1    1    2  501    0  0.27755979166E+02 -0.25175106953E+02 -0.81270231266E+02  0.89493189012E+02  0.00000000000E+00 0. -1.
<scales pt_clust_5="13000.00000" pt_clust_6="13000.00000" pt_clust_7="13000.00000" pt_clust_8="13000.00000" pt_clust_9="37.47241"></scales>
<clustering>
<clus scale="   37.472">  1  9  2 -1</clus>
<clus scale="   84.048">  5  6 -1 -1</clus>
<clus scale="   90.479">  7  8 -1 -1</clus>
<clus scale="   98.959">  2  5  1 -1</clus>
<clus scale="   37.472">  1  5  2 -1</clus>
</clustering>
</event>
<event>
 9    1  0.3197504E-005  0.1082413E+03  0.7546771E-02  0.1276722E+00
         -4   -1    0    0    0  501 -0.00000000000E+00  0.00000000000E+00  0.96972885524E+03  0.96972885524E+03  0.00000000000E+00 0.  1.
         21   -1    0    0  501  502  0.00000000000E+00 -0.00000000000E+00 -0.23533381769E+02  0.23533381769E+02  0.00000000000E+00 0.  1.
        -24    2    1    2    0    0 -0.11829809902E+02 -0.42483391055E+02  0.72015882297E+03  0.72862920454E+03  0.10162187013E+03 0.  0.
         23    2    1    2    0    0  0.28821673781E+02  0.18866761864E+01  0.87522679905E+02  0.11929571191E+03  0.75742979585E+02 0.  0.
         13    1    3    3    0    0  0.18055465658E+02 -0.10317248062E+02  0.26994148506E+02  0.34075350346E+02  0.00000000000E+00 0. -1.
        -14    1    3    3    0    0 -0.29885275560E+02 -0.32166142993E+02  0.69316467446E+03  0.69455385419E+03  0.00000000000E+00 0.  1.
        -13    1    4    4    0    0  0.36142464217E+02 -0.20283900154E+02  0.86510363648E+02  0.95925790816E+02  0.00000000000E+00 0.  1.
         13    1    4    4    0    0 -0.73207904363E+01  0.22170576340E+02  0.10123162571E+01  0.23369921097E+02  0.00000000000E+00 0. -1.
         -3    1    1    2    0  502 -0.16991863878E+02  0.40596714869E+02  0.13851397059E+03  0.14533732055E+03  0.00000000000E+00 0.  1.
<scales pt_clust_5="13000.00000" pt_clust_6="13000.00000" pt_clust_7="13000.00000" pt_clust_8="13000.00000" pt_clust_9="44.00930"></scales>
<clustering>
<clus scale="   44.009">  2  9  1 -1</clus>
<clus scale="   75.743">  7  8 -1 -1</clus>
<clus scale="   84.417">  2  7  1 -1</clus>
<clus scale="  101.622">  5  6 -1 -1</clus>
<clus scale="   44.009">  2  5  1 -1</clus>
</clustering>
</event>
<event>
 9    1  0.3197504E-005  0.1508915E+03  0.7546771E-02  0.1220567E+00
         21   -1    0    0  501  502  0.00000000000E+00  0.00000000000E+00  0.53418069175E+02  0.53418069175E+02  0.00000000000E+00 0. -1.
          1   -1    0    0  502    0 -0.00000000000E+00 -0.00000000000E+00 -0.76540293555E+03  0.76540293555E+03  0.00000000000E+00 0. -1.
        -24    2    1    2    0    0  0.45467671370E+02  0.16725082153E+02 -0.69302270817E+02  0.11838404756E+03  0.82854936258E+02 0.  0.
         23    2    1    2    0    0 -0.10657996347E+03 -0.91895025958E+02 -0.29568540473E+03  0.34016999624E+03  0.92096597989E+02 0.  0.
         13    1    3    3    0    0  0.64555249074E+02  0.29532875696E+02 -0.62036328187E+02  0.94276598076E+02  0.00000000000E+00 0. -1.
        -14    1    3    3    0    0 -0.19087577704E+02 -0.12807793544E+02 -0.72659426300E+01  0.24107449479E+02  0.00000000000E+00 0.  1.
        -11    1    4    4    0    0 -0.52832035671E+02 -0.16967400539E+02 -0.40110241577E+02  0.68468592460E+02  0.00000000000E+00 0.  1.
         11    1    4    4    0    0 -0.53747927797E+02 -0.74927625419E+02 -0.25557516315E+03  0.27170140378E+03  0.00000000000E+00 0. -1.
          2    1    1    2  501    0  0.61112292099E+02  0.75169943805E+02 -0.34699719083E+03  0.36026696093E+03  0.00000000000E+00 0. -1.
<scales pt_clust_5="13000.00000" pt_clust_6="13000.00000" pt_clust_7="13000.00000" pt_clust_8="13000.00000" pt_clust_9="119.52609"></scales>
<clustering>
<clus scale="   82.855">  5  6 -1 -1</clus>
<clus scale="   92.097">  7  8 -1 -1</clus>
<clus scale="   95.979">  2  5  1 -1</clus>
<clus scale="  119.526">  1  9  2 -1</clus>
<clus scale="  119.526">  1  5  2 -1</clus>
</clustering>
</event>
<event>
 9    1  0.8965204E-005  0.1280640E+03  0.7546771E-02  0.1248849E+00
          1   -1    0    0  502    0 -0.00000000000E+00  0.00000000000E+00  0.27160630383E+03  0.27160630383E+03  0.00000000000E+00 0. -1.
         21   -1    0    0  501  502  0.00000000000E+00 -0.00000000000E+00 -0.13910569925E+03  0.13910569925E+03  0.00000000000E+00 0. -1.
         23    2    1    2    0    0  0.34361925918E+02  0.12593965794E+02  0.23162759960E+03  0.26504214502E+03  0.12351778744E+03 0.  0.
        -24    2    1    2    0    0 -0.13505272297E+02 -0.17380989725E+02 -0.69431384117E+02  0.10906733211E+03  0.81181738401E+02 0.  0.
         13    1    4    4    0    0  0.21966440540E+02 -0.27084313287E+02 -0.62607856091E+02  0.71664692705E+02  0.00000000000E+00 0. -1.
        -14    1    4    4    0    0 -0.35471712837E+02  0.97033235617E+01 -0.68235280253E+01  0.37402639405E+02  0.00000000000E+00 0.  1.
        -13    1    3    3    0    0 -0.22031219168E+02 -0.96425479943E+01 -0.15645049259E+01  0.24099813807E+02  0.00000000000E+00 0.  1.
         13    1    3    3    0    0  0.56393145086E+02  0.22236513788E+02  0.23319210452E+03  0.24094233121E+03  0.00000000000E+00 0. -1.
          2    1    1    2  501    0 -0.20856653620E+02  0.47870239310E+01 -0.29695610906E+02  0.36602525943E+02  0.00000000000E+00 0. -1.
<scales pt_clust_5="13000.00000" pt_clust_6="13000.00000" pt_clust_7="13000.00000" pt_clust_8="13000.00000" pt_clust_9="21.39896"></scales>
<clustering>
<clus scale="   21.399">  2  9  1 -1</clus>
<clus scale="   81.182">  5  6 -1 -1</clus>
<clus scale="   87.944">  2  5  1 -1</clus>
<clus scale="  123.518">  7  8 -1 -1</clus>
<clus scale="   21.399">  2  5  1 -1</clus>
</clustering>
</event>
<event>
 9    1  0.3197504E-005  0.1353380E+03  0.7546771E-02  0.1237669E+00
         21   -1    0    0  501  502  0.00000000000E+00  0.00000000000E+00  0.29798491810E+02  0.29798491810E+02  0.00000000000E+00 0. -1.
         -2   -1    0    0    0  501 -0.00000000000E+00 -0.00000000000E+00 -0.11850797753E+04  0.11850797753E+04  0.00000000000E+00 0.  1.
        -24    2    1    2    0    0  0.37164562806E+02  0.35668392666E+02 -0.22646961436E+03  0.24497092937E+03  0.77902702425E+02 0.  0.
         23    2    1    2    0    0 -0.76638677974E+02  0.65994790287E+02 -0.26983693315E+03  0.30196923342E+03  0.90247704324E+02 0.  0.
         11    1    3    3    0    0  0.17896749250E+02  0.59277707660E+02 -0.16777808628E+03  0.17883966701E+03  0.00000000000E+00 0. -1.
        -12    1    3    3    0    0  0.19267813556E+02 -0.23609314994E+02 -0.58691528078E+02  0.66131262364E+02  0.00000000000E+00 0.  1.
        -13    1    4    4    0    0 -0.47459019367E+02  0.11973134372E+02 -0.21214674895E+03  0.21771990621E+03  0.00000000000E+00 0.  1.
         13    1    4    4    0    0 -0.29179658607E+02  0.54021655915E+02 -0.57690184196E+02  0.84249327218E+02  0.00000000000E+00 0. -1.
         -1    1    1    2    0  502  0.39474115168E+02 -0.10166318295E+03 -0.65897473598E+03  0.66793810432E+03  0.00000000000E+00 0.  1.
<scales pt_clust_5="13000.00000" pt_clust_6="13000.00000" pt_clust_7="13000.00000" pt_clust_8="13000.00000" pt_clust_9="100.85499"></scales>
<clustering>
<clus scale="   77.903">  5  6 -1 -1</clus>
<clus scale="   90.248">  7  8 -1 -1</clus>
<clus scale="   93.393">  2  5  1 -1</clus>
<clus scale="  100.855">  1  9  2 -1</clus>
<clus scale="  100.855">  1  5  2 -1</clus>
</clustering>
</event>
<event>
 9    1  0.3197504E-005  0.1000584E+03  0.7546771E-02  0.1287773E+00
         21   -1    0    0  501  502  0.00000000000E+00  0.00000000000E+00  0.93121043458E+02  0.93121043458E+02  0.00000000000E+00 0. -1.
          1   -1    0    0  502    0 -0.00000000000E+00 -0.00000000000E+00 -0.28521896792E+03  0.28521896792E+03  0.00000000000E+00 0. -1.
        -24    2    1    2    0    0  0.46869422959E+02  0.12742892570E+02 -0.18696943578E+03  0.20840856479E+03  0.78214038642E+02 0.  0.
         23    2    1    2    0    0 -0.94603083164E+01  0.10488975444E+01 -0.53244475585E+02  0.10744301943E+03  0.92835503042E+02 0.  0.
         13    1    3    3    0    0  0.11194466477E+02  0.36602696183E+02 -0.13839157995E+03  0.14358726562E+03  0.00000000000E+00 0. -1.
        -14    1    3    3    0    0  0.35674956483E+02 -0.23859803614E+02 -0.48577855837E+02  0.64821299171E+02  0.00000000000E+00 0.  1.
        -13    1    4    4    0    0  0.32118063351E+02  0.63930909259E+00  0.82902793748E+01  0.33176911273E+02  0.00000000000E+00 0. -1.
         13    1    4    4    0    0 -0.41578371667E+02  0.40958845180E+00 -0.61534754960E+02  0.74266108159E+02  0.00000000000E+00 0.  1.
          2    1    1    2  501    0 -0.37409114643E+02 -0.13791790114E+02  0.48115986905E+02  0.62488427158E+02  0.00000000000E+00 0. -1.
<scales pt_clust_5="13000.00000" pt_clust_6="13000.00000" pt_clust_7="13000.00000" pt_clust_8="13000.00000" pt_clust_9="39.87048"></scales>
<clustering>
<clus scale="   39.870">  1  9  2 -1</clus>
<clus scale="   78.214">  5  6 -1 -1</clus>
<clus scale="   86.664">  2  5  1 -1</clus>
<clus scale="   92.836">  7  8 -1 -1</clus>
<clus scale="   39.870">  1  5  2 -1</clus>
</clustering>
</event>
<event>
 9    1  0.3197504E-005  0.1275195E+03  0.7546771E-02  0.1231621E+00
         21   -1    0    0  501  502  0.00000000000E+00  0.00000000000E+00  0.59984930160E+02  0.59984930160E+02  0.00000000000E+00 0. -1.
          1   -1    0    0  502    0 -0.00000000000E+00 -0.00000000000E+00 -0.45370964491E+03  0.45370964491E+03  0.00000000000E+00 0. -1.
         23    2    1    2    0    0  0.60197679261E+02 -0.69462898047E+02 -0.21256661980E+03  0.25043148250E+03  0.95302176178E+02 0.  0.
        -24    2    1    2    0    0 -0.76853833309E+02  0.29992931404E+02 -0.18162220398E+03  0.22042011028E+03  0.93767331236E+02 0.  0.
         11    1    4    4    0    0 -0.38602521170E+02  0.15317704586E+02 -0.83390226658E+01  0.42359485519E+02  0.00000000000E+00 0. -1.
        -12    1    4    4    0    0 -0.38251312140E+02  0.14675226818E+02 -0.17328318132E+03  0.17806062476E+03  0.00000000000E+00 0.  1.
        -13    1    3    3    0    0  0.24440757165E+02  0.20829888676E+02 -0.31600566131E+02  0.45053641949E+02  0.00000000000E+00 0.  1.
         13    1    3    3    0    0  0.35756922096E+02 -0.90292786723E+02 -0.18096605367E+03  0.20537784056E+03  0.00000000000E+00 0. -1.
          2    1    1    2  501    0  0.16656154048E+02  0.39469966643E+02  0.46410902256E+00  0.42842982292E+02  0.00000000000E+00 0. -1.
<scales pt_clust_5="13000.00000" pt_clust_6="13000.00000" pt_clust_7="13000.00000" pt_clust_8="13000.00000" pt_clust_9="42.84047"></scales>
<clustering>
<clus scale="   42.840">  1  9  2 -1</clus>
<clus scale="   93.767">  5  6 -1 -1</clus>
<clus scale="   95.302">  7  8 -1 -1</clus>
<clus scale="  126.377">  1  5  2 -1</clus>
<clus scale="   42.840">  1  5  2 -1</clus>
</clustering>
</event>
<event>
 9    1  0.3197504E-005  0.1405582E+03  0.7546771E-02  0.1214325E+00
         21   -1    0    0  501  502  0.00000000000E+00  0.00000000000E+00  0.11436809119E+03  0.11436809119E+03  0.00000000000E+00 0. -1.
          1   -1    0    0  502    0 -0.00000000000E+00 -0.00000000000E+00 -0.30693802755E+03  0.30693802755E+03  0.00000000000E+00 0. -1.
        -24    2    1    2    0    0  0.12015856344E+03  0.56679772743E+02 -0.13380452564E+03  0.20614647827E+03  0.83318919904E+02 0.  0.
         23    2    1    2    0    0 -0.64922584054E+02 -0.61028525324E+01  0.10992919377E+02  0.11281090870E+03  0.91396225939E+02 0.  0.
         11    1    3    3    0    0  0.68669323343E+02  0.48950029949E+02 -0.12864979579E+03  0.15382571748E+03  0.00000000000E+00 0. -1.
        -12    1    3    3    0    0  0.51489240098E+02  0.77297427940E+01 -0.51547298444E+01  0.52320760787E+02  0.00000000000E+00 0.  1.
        -11    1    4    4    0    0 -0.14207905486E+02  0.34865478057E+02 -0.17674486640E+02  0.41591508946E+02  0.00000000000E+00 0.  1.
         11    1    4    4    0    0 -0.50714678568E+02 -0.40968330589E+02  0.28667406017E+02  0.71219399753E+02  0.00000000000E+00 0. -1.
          2    1    1    2  501    0 -0.55235979387E+02 -0.50576920211E+02 -0.69758330100E+02  0.10234873177E+03  0.00000000000E+00 0. -1.
<scales pt_clust_5="13000.00000" pt_clust_6="13000.00000" pt_clust_7="13000.00000" pt_clust_8="13000.00000" pt_clust_9="74.89355"></scales>
<clustering>
<clus scale="   74.894">  1  9  2 -1</clus>
<clus scale="   83.319">  5  6 -1 -1</clus>
<clus scale="   91.396">  7  8 -1 -1</clus>
<clus scale="  135.445">  2  5  1 -1</clus>
<clus scale="   74.894">  1  5  2 -1</clus>
</clustering>
</event>
<event>
 9    1  0.3197504E-005  0.9801071E+02  0.7546771E-02  0.1290553E+00
         -4   -1    0    0    0  501 -0.00000000000E+00  0.00000000000E+00  0.42919239841E+03  0.42919239841E+03  0.00000000000E+00 0.  1.
         21   -1    0    0  501  502  0.00000000000E+00 -0.00000000000E+00 -0.52665153753E+02  0.52665153753E+02  0.00000000000E+00 0.  1.
         23    2    1    2    0    0 -0.36075695753E+02  0.44582037937E+02  0.14219134023E+03  0.17939634249E+03  0.93143204433E+02 0.  0.
        -24    2    1    2    0    0 -0.45563898860E+02 -0.13025607899E+02  0.70813185434E+02  0.11698746136E+03  0.80161234674E+02 0.  0.
         13    1    4    4    0    0  0.21401891685E+02  0.53799636566E+01  0.83945902166E+01  0.23610466356E+02  0.00000000000E+00 0. -1.
        -14    1    4    4    0    0 -0.66965790545E+02 -0.18405571556E+02  0.62418595217E+02  0.93376995007E+02  0.00000000000E+00 0.  1.
        -11    1    3    3    0    0  0.14849029448E+02  0.45641753612E+02  0.10761621388E+03  0.11783426004E+03  0.00000000000E+00 0.  1.
         11    1    3    3    0    0 -0.50924725200E+02 -0.10597156750E+01  0.34575126349E+02  0.61562082455E+02  0.00000000000E+00 0. -1.
         -3    1    1    2    0  502  0.81639594612E+02 -0.31556430037E+02  0.16352271899E+03  0.18547374831E+03  0.00000000000E+00 0.  1.
<scales pt_clust_5="13000.00000" pt_clust_6="13000.00000" pt_clust_7="13000.00000" pt_clust_8="13000.00000" pt_clust_9="87.52622"></scales>
<clustering>
<clus scale="   80.161">  5  6 -1 -1</clus>
<clus scale="   87.526">  2  9  1 -1</clus>
<clus scale="   87.526">  2  5  1 -1</clus>
<clus scale="   93.143">  7  8 -1 -1</clus>
<clus scale="   87.526">  2  5  1 -1</clus>
</clustering>
</event>
<event>
 9    1  0.3197504E-005  0.1462893E+03  0.7546771E-02  0.1206653E+00
         21   -1    0    0  501  502  0.00000000000E+00  0.00000000000E+00  0.35738809530E+03  0.35738809530E+03  0.00000000000E+00 0.  1.
          1   -1    0    0  502    0 -0.00000000000E+00 -0.00000000000E+00 -0.15798347502E+03  0.15798347502E+03  0.00000000000E+00 0. -1.
         23    2    1    2    0    0  0.62600448957E+02 -0.11059857018E+03 -0.84100329788E+02  0.17677088172E+03  0.89578006332E+02 0.  0.
        -24    2    1    2    0    0 -0.59966648330E+02  0.37122508084E+02  0.20102213350E+03  0.22810596639E+03  0.81537440643E+02 0.  0.
         13    1    4    4    0    0 -0.53327472127E+02  0.59507642617E+02  0.12309567200E+03  0.14675668053E+03  0.00000000000E+00 0. -1.
        -14    1    4    4    0    0 -0.66391762033E+01 -0.22385134533E+02  0.77926461497E+02  0.81349285862E+02  0.00000000000E+00 0.  1.
        -11    1    3    3    0    0  0.14292712281E+01 -0.64361791617E+02 -0.19679686494E+01  0.64407731966E+02  0.00000000000E+00 0.  1.
         11    1    3    3    0    0  0.61171177729E+02 -0.46236778563E+02 -0.82132361138E+02  0.11236314975E+03  0.00000000000E+00 0. -1.
          2    1    1    2  501    0 -0.26338006275E+01  0.73476062096E+02  0.82482816567E+02  0.11049472221E+03  0.00000000000E+00 0. -1.
<scales pt_clust_5="13000.00000" pt_clust_6="13000.00000" pt_clust_7="13000.00000" pt_clust_8="13000.00000" pt_clust_9="73.52325"></scales>
<clustering>
<clus scale="   73.523">  1  9  2 -1</clus>
<clus scale="   81.537">  5  6 -1 -1</clus>
<clus scale="   89.578">  7  8 -1 -1</clus>
<clus scale="  141.509">  1  5  2 -1</clus>
<clus scale="   73.523">  1  5  2 -1</clus>
</clustering>
</event>
<event>
 9    1  0.3197504E-005  0.1032338E+03  0.7546771E-02  0.1278649E+00
         -4   -1    0    0    0  501 -0.00000000000E+00  0.00000000000E+00  0.23180079868E+03  0.23180079868E+03  0.00000000000E+00 0.  1.
         21   -1    0    0  501  502  0.00000000000E+00 -0.00000000000E+00 -0.18662091072E+03  0.18662091072E+03  0.00000000000E+00 0.  1.
        -24    2    1    2    0    0  0.82441843004E+00  0.50267982521E+02  0.16192332217E+03  0.18722786252E+03  0.79420151780E+02 0.  0.
         23    2    1    2    0    0 -0.36647481268E+02 -0.45190074544E+02  0.15436670381E+01  0.10749697827E+03  0.90377191302E+02 0.  0.
         11    1    3    3    0    0 -0.35497170058E+02  0.33670284933E+02  0.57904491356E+02  0.75806776008E+02  0.00000000000E+00 0. -1.
        -12    1    3    3    0    0  0.36321588488E+02  0.16597697588E+02  0.10401883082E+03  0.11142108651E+03  0.00000000000E+00 0.  1.
        -11    1    4    4    0    0 -0.64165146634E+02 -0.46848225719E+02  0.55433440883E+01  0.79640761921E+02  0.00000000000E+00 0. -1.
         11    1    4    4    0    0  0.27517665366E+02  0.16581511748E+01 -0.39996770502E+01  0.27856216345E+02  0.00000000000E+00 0.  1.
         -3    1    1    2    0  502  0.35823062838E+02 -0.50779079769E+01 -0.11828710126E+03  0.12369686861E+03  0.00000000000E+00 0.  1.
<scales pt_clust_5="13000.00000" pt_clust_6="13000.00000" pt_clust_7="13000.00000" pt_clust_8="13000.00000" pt_clust_9="36.18117"></scales>
<clustering>
<clus scale="   36.181">  2  9  1 -1</clus>
<clus scale="   79.420">  5  6 -1 -1</clus>
<clus scale="   90.377">  7  8 -1 -1</clus>
<clus scale="   93.791">  1  5  2 -1</clus>
<clus scale="   36.181">  2  5  1 -1</clus>
</clustering>
</event>
<event>
 9    1  0.3197504E-005  0.1192132E+03  0.7546771E-02  0.1252333E+00
          1   -1    0    0  502    0 -0.00000000000E+00  0.00000000000E+00  0.48303179701E+03  0.48303179701E+03  0.00000000000E+00 0. -1.
         21   -1    0    0  501  502  0.00000000000E+00 -0.00000000000E+00 -0.15273505664E+03  0.15273505664E+03  0.00000000000E+00 0. -1.
        -24    2    1    2    0    0 -0.69393240789E+02 -0.54980029430E+02  0.27395049361E+03  0.29548366992E+03  0.66509403399E+02 0.  0.
         23    2    1    2    0    0  0.81270003287E+02 -0.44485789277E+02  0.15325497099E+03  0.20090668854E+03  0.91063782503E+02 0.  0.
         13    1    3    3    0    0 -0.27156314195E+02 -0.60696570819E+02  0.19063157339E+03  0.20189585405E+03  0.00000000000E+00 0. -1.
        -14    1    3    3    0    0 -0.42236926595E+02  0.57165413890E+01  0.83318920217E+02  0.93587815873E+02  0.00000000000E+00 0.  1.
        -11    1    4    4    0    0  0.28535377650E+02 -0.66323370522E+02  0.75688175785E+02  0.10460285469E+03  0.00000000000E+00 0. -1.
         11    1    4    4    0    0  0.52734625637E+02  0.21837581245E+02  0.77566795206E+02  0.96303833850E+02  0.00000000000E+00 0.  1.
          2    1    1    2  501    0 -0.11876762498E+02  0.99465818707E+02 -0.96908724236E+02  0.13937649519E+03  0.00000000000E+00 0. -1.
<scales pt_clust_5="13000.00000" pt_clust_6="13000.00000" pt_clust_7="13000.00000" pt_clust_8="13000.00000" pt_clust_9="100.17238"></scales>
<clustering>
<clus scale="   66.509">  5  6 -1 -1</clus>
<clus scale="   91.064">  7  8 -1 -1</clus>
<clus scale="  100.172">  2  9  1 -1</clus>
<clus scale="  101.699">  1  5  2 -1</clus>
<clus scale="  100.172">  2  5  1 -1</clus>
</clustering>
</event>
<event>
 9    1  0.3197504E-005  0.1180843E+03  0.7546771E-02  0.1249751E+00
         21   -1    0    0  501  502  0.00000000000E+00  0.00000000000E+00  0.31682343133E+03  0.31682343133E+03  0.00000000000E+00 0.  1.
         -2   -1    0    0    0  501 -0.00000000000E+00 -0.00000000000E+00 -0.10500421775E+03  0.10500421775E+03  0.00000000000E+00 0.  1.
        -24    2    1    2    0    0 -0.77478413785E+01 -0.62080541099E+02  0.17910543019E+02  0.10297303798E+03  0.79803736563E+02 0.  0.
         23    2    1    2    0    0  0.99083499821E+02  0.76321396252E+02  0.85654802471E+02  0.17650326965E+03  0.90411080891E+02 0.  0.
         11    1    3    3    0    0  0.29659473213E+02 -0.55812337792E+02  0.75388451298E+01  0.63651673874E+02  0.00000000000E+00 0. -1.
        -12    1    3    3    0    0 -0.37407314592E+02 -0.62682033071E+01  0.10371697889E+02  0.39321364101E+02  0.00000000000E+00 0.  1.
        -11    1    4    4    0    0  0.69721939571E+02  0.87463203678E+02  0.91560216077E+02  0.14454837952E+03  0.00000000000E+00 0.  1.
         11    1    4    4    0    0  0.29361560250E+02 -0.11141807426E+02 -0.59054136058E+01  0.31954890125E+02  0.00000000000E+00 0. -1.
         -1    1    1    2    0  502 -0.91335658443E+02 -0.14240855153E+02  0.10825386809E+03  0.14235134146E+03  0.00000000000E+00 0.  1.
<scales pt_clust_5="13000.00000" pt_clust_6="13000.00000" pt_clust_7="13000.00000" pt_clust_8="13000.00000" pt_clust_9="92.43919"></scales>
<clustering>
<clus scale="   79.804">  5  6 -1 -1</clus>
<clus scale="   90.411">  7  8 -1 -1</clus>
<clus scale="   92.439">  1  9  2 -1</clus>
<clus scale="  110.174">  2  5  1 -1</clus>
<clus scale="   92.439">  1  5  2 -1</clus>
</clustering>
</event>
<event>
 9    1  0.3197504E-005  0.1375142E+03  0.7546771E-02  0.1219843E+00
          1   -1    0    0  502    0 -0.00000000000E+00  0.00000000000E+00  0.27309325478E+03  0.27309325478E+03  0.00000000000E+00 0. -1.
         21   -1    0    0  501  502  0.00000000000E+00 -0.00000000000E+00 -0.13761092562E+03  0.13761092562E+03  0.00000000000E+00 0. -1.
         23    2    1    2    0    0  0.79212540938E+02  0.50335213919E+02  0.44473364667E+02  0.13815916879E+03  0.91114298301E+02 0.  0.
        -24    2    1    2    0    0 -0.20397930014E+02 -0.10467984317E+03 -0.38438016302E+01  0.14840982550E+03  0.10313465169E+03 0.  0.
         13    1    4    4    0    0  0.22938267594E+02 -0.83836250267E+02 -0.32074986576E+02  0.92647103262E+02  0.00000000000E+00 0. -1.
        -14    1    4    4    0    0 -0.43336197608E+02 -0.20843592901E+02  0.28231184945E+02  0.55762722240E+02  0.00000000000E+00 0.  1.
        -13    1    3    3    0    0 -0.17778115616E+02  0.13353258734E+02 -0.55733707773E+01  0.22922333552E+02  0.00000000000E+00 0.  1.
         13    1    3    3    0    0  0.96990656553E+02  0.36981955185E+02  0.50046735444E+02  0.11523683524E+03  0.00000000000E+00 0. -1.
          2    1    1    2  501    0 -0.58814610923E+02  0.54344629249E+02  0.94852766124E+02  0.12413518610E+03  0.00000000000E+00 0. -1.
<scales pt_clust_5="13000.00000" pt_clust_6="13000.00000" pt_clust_7="13000.00000" pt_clust_8="13000.00000" pt_clust_9="80.07811"></scales>
<clustering>
<clus scale="   80.078">  2  9  1 -1</clus>
<clus scale="   91.114">  7  8 -1 -1</clus>
<clus scale="  103.135">  5  6 -1 -1</clus>
<clus scale="  128.745">  1  7  2 -1</clus>
<clus scale="   80.078">  2  5  1 -1</clus>
</clustering>
</event>
<event>
 9    1  0.3197504E-005  0.1063310E+03  0.7546771E-02  0.1273453E+00
         21   -1    0    0  501  502  0.00000000000E+00  0.00000000000E+00  0.17352792362E+03  0.17352792362E+03  0.00000000000E+00 0.  1.
         -4   -1    0    0    0  501 -0.00000000000E+00 -0.00000000000E+00 -0.79122586969E+02  0.79122586969E+02  0.00000000000E+00 0.  1.
         23    2    1    2    0    0 -0.12065643578E+01  0.53962799393E+02  0.23506008400E+02  0.10976020521E+03  0.92635472155E+02 0.  0.
        -24    2    1    2    0    0  0.21332766801E+02 -0.47515874347E+02  0.75632647516E+02  0.12123317772E+03  0.79147588432E+02 0.  0.
         13    1    4    4    0    0  0.50516933699E+02 -0.34454523160E+02  0.38620915416E+02  0.72323231843E+02  0.00000000000E+00 0. -1.
        -14    1    4    4    0    0 -0.29184166898E+02 -0.13061351186E+02  0.37011732100E+02  0.48909945874E+02  0.00000000000E+00 0.  1.
        -13    1    3    3    0    0  0.29913141774E+02  0.20711365832E+02  0.46257180239E+02  0.58851367436E+02  0.00000000000E+00 0.  1.
         13    1    3    3    0    0 -0.31119706132E+02  0.33251433561E+02 -0.22751171839E+02  0.50908837775E+02  0.00000000000E+00 0. -1.
         -3    1    1    2    0  502 -0.20126202443E+02 -0.64469250459E+01 -0.47333192641E+01  0.21657127662E+02  0.00000000000E+00 0.  1.
<scales pt_clust_5="13000.00000" pt_clust_6="13000.00000" pt_clust_7="13000.00000" pt_clust_8="13000.00000" pt_clust_9="21.13356"></scales>
<clustering>
<clus scale="   21.134">  1  9  2 -1</clus>
<clus scale="   79.148">  5  6 -1 -1</clus>
<clus scale="   92.635">  7  8 -1 -1</clus>
<clus scale="   94.812">  1  5  2 -1</clus>
<clus scale="   21.134">  1  5  2 -1</clus>
</clustering>
</event>
<event>
 9    1  0.3197504E-005  0.1300275E+03  0.7546771E-02  0.1228784E+00
         21   -1    0    0  501  502  0.00000000000E+00  0.00000000000E+00  0.58611148995E+03  0.58611148995E+03  0.00000000000E+00 0.  1.
          3   -1    0    0  502    0 -0.00000000000E+00 -0.00000000000E+00 -0.12483395163E+03  0.12483395163E+03  0.00000000000E+00 0. -1.
        -24    2    1    2    0    0 -0.81856875008E+02 -0.15232409110E+02 -0.45709741389E+02  0.12832227982E+03  0.86282401259E+02 0.  0.
         23    2    1    2    0    0  0.14099125385E+03 -0.13337809377E+02  0.17054638047E+03  0.23983224761E+03  0.91525997853E+02 0.  0.
         11    1    3    3    0    0 -0.30153193610E+02 -0.85853323619E+01 -0.65457248576E+02  0.72578057344E+02  0.00000000000E+00 0. -1.
        -12    1    3    3    0    0 -0.51703681398E+02 -0.66470767480E+01  0.19747507187E+02  0.55744222476E+02  0.00000000000E+00 0.  1.
        -11    1    4    4    0    0  0.62260503056E+02 -0.12888454469E+02  0.14745379870E+02  0.65267976274E+02  0.00000000000E+00 0. -1.
         11    1    4    4    0    0  0.78730750790E+02 -0.44935490713E+00  0.15580100060E+03  0.17456427134E+03  0.00000000000E+00 0.  1.
          4    1    1    2  501    0 -0.59134378838E+02  0.28570218486E+02  0.33644089924E+03  0.34279091415E+03  0.00000000000E+00 0. -1.
<scales pt_clust_5="13000.00000" pt_clust_6="13000.00000" pt_clust_7="13000.00000" pt_clust_8="13000.00000" pt_clust_9="65.67444"></scales>
<clustering>
<clus scale="   65.674">  1  9  2 -1</clus>
<clus scale="   86.282">  5  6 -1 -1</clus>
<clus scale="   91.526">  7  8 -1 -1</clus>
<clus scale="  126.391">  2  5  1 -1</clus>
<clus scale="   65.674">  1  5  2 -1</clus>
</clustering>
</event>
<event>
 9    1  0.3197504E-005  0.9820018E+02  0.7546771E-02  0.1311507E+00
          1   -1    0    0  502    0 -0.00000000000E+00  0.00000000000E+00  0.37226758399E+03  0.37226758399E+03  0.00000000000E+00 0. -1.
         21   -1    0    0  501  502  0.00000000000E+00 -0.00000000000E+00 -0.34705129262E+02  0.34705129262E+02  0.00000000000E+00 0. -1.
         23    2    1    2    0    0 -0.32983639924E+02 -0.27462587375E+02  0.27459845781E+03  0.29315322469E+03  0.93232965775E+02 0.  0.
        -24    2    1    2    0    0  0.39668809909E+01  0.20642058475E+02  0.63749848617E+02  0.84001549733E+02  0.50501350835E+02 0.  0.
         11    1    4    4    0    0 -0.15207514679E+02  0.20417814060E+02  0.10742834758E+02  0.27632664229E+02  0.00000000000E+00 0. -1.
        -12    1    4    4    0    0  0.19174395670E+02  0.22424441448E+00  0.53007013858E+02  0.56368885505E+02  0.00000000000E+00 0.  1.
        -13    1    3    3    0    0 -0.58147301196E+02  0.84405551541E+01  0.15331766907E+03  0.16419092318E+03  0.00000000000E+00 0. -1.
         13    1    3    3    0    0  0.25163661272E+02 -0.35903142529E+02  0.12128078874E+03  0.12896230151E+03  0.00000000000E+00 0.  1.
          2    1    1    2  501    0  0.29016758933E+02  0.68205288998E+01 -0.78585169100E+00  0.29817938835E+02  0.00000000000E+00 0. -1.
<scales pt_clust_5="13000.00000" pt_clust_6="13000.00000" pt_clust_7="13000.00000" pt_clust_8="13000.00000" pt_clust_9="29.80758"></scales>
<clustering>
<clus scale="   29.808">  2  9  1 -1</clus>
<clus scale="   50.501">  5  6 -1 -1</clus>
<clus scale="   59.172">  2  5  1 -1</clus>
<clus scale="   93.233">  7  8 -1 -1</clus>
<clus scale="   29.808">  2  5  1 -1</clus>
</clustering>
</event>
<event>
 9    1  0.3197504E-005  0.1365028E+03  0.7546771E-02  0.1237492E+00
         21   -1    0    0  501  502  0.00000000000E+00  0.00000000000E+00  0.50515963974E+03  0.50515963974E+03  0.00000000000E+00 0.  1.
         -2   -1    0    0    0  501 -0.00000000000E+00 -0.00000000000E+00 -0.81294200733E+02  0.81294200733E+02  0.00000000000E+00 0.  1.
        -24    2    1    2    0    0  0.32440119565E+02 -0.28255819566E+02  0.85926885597E+01  0.91755020599E+02  0.80587820492E+02 0.  0.
         23    2    1    2    0    0 -0.26187103621E+02  0.12394030916E+03  0.16616899283E+03  0.22777691404E+03  0.90681992480E+02 0.  0.
         13    1    3    3    0    0 -0.26712841962E+02 -0.13483529186E+02  0.71645329520E+01  0.30768685663E+02  0.00000000000E+00 0. -1.
        -14    1    3    3    0    0  0.59152961527E+02 -0.14772290381E+02  0.14281556076E+01  0.60986334936E+02  0.00000000000E+00 0.  1.
        -13    1    4    4    0    0 -0.58817146111E+02  0.86098737079E+02  0.12678174517E+03  0.16415255134E+03  0.00000000000E+00 0.  1.
         13    1    4    4    0    0  0.32630042490E+02  0.37841572077E+02  0.39387247655E+02  0.63624362693E+02  0.00000000000E+00 0. -1.
         -1    1    1    2    0  502 -0.62530159435E+01 -0.95684489590E+02  0.24910375761E+03  0.26692190583E+03  0.00000000000E+00 0.  1.
<scales pt_clust_5="13000.00000" pt_clust_6="13000.00000" pt_clust_7="13000.00000" pt_clust_8="13000.00000" pt_clust_9="102.02844"></scales>
<clustering>
<clus scale="   80.588">  5  6 -1 -1</clus>
<clus scale="   90.682">  7  8 -1 -1</clus>
<clus scale="   91.352">  2  5  1 -1</clus>
<clus scale="  102.028">  1  9  2 -1</clus>
<clus scale="  102.028">  1  5  2 -1</clus>
</clustering>
</event>
<event>
 9    1  0.3197504E-005  0.1102116E+03  0.7546771E-02  0.1268122E+00
         21   -1    0    0  501  502  0.00000000000E+00  0.00000000000E+00  0.40964937075E+02  0.40964937075E+02  0.00000000000E+00 0.  1.
         -2   -1    0    0    0  501 -0.00000000000E+00 -0.00000000000E+00 -0.49400926387E+03  0.49400926387E+03  0.00000000000E+00 0.  1.
         23    2    1    2    0    0 -0.40856140493E+02 -0.74814661919E+01 -0.32094283022E+03  0.33841943487E+03  0.98985943802E+02 0.  0.
        -24    2    1    2    0    0  0.68322352997E+02 -0.18280595102E+02 -0.10376844998E+03  0.14942899648E+03  0.80987713274E+02 0.  0.
         13    1    4    4    0    0  0.31020131066E+02  0.32058289817E+02 -0.48317315242E+02  0.65761276064E+02  0.00000000000E+00 0. -1.
        -14    1    4    4    0    0  0.37302221931E+02 -0.50338884919E+02 -0.55451134741E+02  0.83667720418E+02  0.00000000000E+00 0.  1.
        -11    1    3    3    0    0 -0.47255671102E+02 -0.41632129464E+02 -0.26645263589E+03  0.27379433856E+03  0.00000000000E+00 0.  1.
         11    1    3    3    0    0  0.63995306090E+01  0.34150663272E+02 -0.54490194333E+02  0.64625096305E+02  0.00000000000E+00 0. -1.
         -1    1    1    2    0  502 -0.27466212503E+02  0.25762061293E+02 -0.28333046591E+02  0.47125769601E+02  0.00000000000E+00 0.  1.
<scales pt_clust_5="13000.00000" pt_clust_6="13000.00000" pt_clust_7="13000.00000" pt_clust_8="13000.00000" pt_clust_9="37.65736"></scales>
<clustering>
<clus scale="   37.657">  1  9  2 -1</clus>
<clus scale="   80.988">  5  6 -1 -1</clus>
<clus scale="   94.379">  1  5  2 -1</clus>
<clus scale="   98.986">  7  8 -1 -1</clus>
<clus scale="   37.657">  1  5  2 -1</clus>
</clustering>
</event>
<event>
 9    1  0.3197504E-005  0.1017041E+03  0.7546771E-02  0.1280080E+00
         21   -1    0    0  501  502  0.00000000000E+00  0.00000000000E+00  0.16812179881E+03  0.16812179881E+03  0.00000000000E+00 0. -1.
         -2   -1    0    0    0  501 -0.00000000000E+00 -0.00000000000E+00 -0.14539978884E+03  0.14539978884E+03  0.00000000000E+00 0.  1.
         23    2    1    2    0    0  0.40313638288E+01 -0.61785991105E+02 -0.77381272975E+02  0.13385599452E+03  0.89976692929E+02 0.  0.
        -24    2    1    2    0    0 -0.22294499776E+02  0.13681843251E+02  0.28369349855E+02  0.91385876715E+02  0.82839126606E+02 0.  0.
         11    1    4    4    0    0 -0.21976904986E+02  0.47354423658E+02  0.10451551307E+02  0.53241531885E+02  0.00000000000E+00 0. -1.
        -12    1    4    4    0    0 -0.31759478969E+00 -0.33672580407E+02  0.17917798549E+02  0.38144344830E+02  0.00000000000E+00 0.  1.
        -11    1    3    3    0    0 -0.29346791193E+02  0.91351882909E+01 -0.24451662453E+02  0.39275560023E+02  0.00000000000E+00 0. -1.
         11    1    3    3    0    0  0.33378155021E+02 -0.70921179396E+02 -0.52929610521E+02  0.94580434496E+02  0.00000000000E+00 0.  1.
         -1    1    1    2    0  502  0.18263135947E+02  0.48104147854E+02  0.71733933089E+02  0.88279716423E+02  0.00000000000E+00 0.  1.
<scales pt_clust_5="13000.00000" pt_clust_6="13000.00000" pt_clust_7="13000.00000" pt_clust_8="13000.00000" pt_clust_9="51.45436"></scales>
<clustering>
<clus scale="   51.454">  1  9  2 -1</clus>
<clus scale="   82.839">  5  6 -1 -1</clus>
<clus scale="   89.977">  7  8 -1 -1</clus>
<clus scale="   95.448">  1  5  2 -1</clus>
<clus scale="   51.454">  1  5  2 -1</clus>
</clustering>
</event>
<event>
 9    1  0.3197504E-005  0.8736635E+02  0.7546771E-02  0.1311351E+00
          1   -1    0    0  502    0 -0.00000000000E+00  0.00000000000E+00  0.65919157802E+02  0.65919157802E+02  0.00000000000E+00 0. -1.
         21   -1    0    0  501  502  0.00000000000E+00 -0.00000000000E+00 -0.31591990961E+03  0.31591990961E+03  0.00000000000E+00 0.  1.
         23    2    1    2    0    0  0.10719301721E+02 -0.17796171653E+02  0.14788610932E+02  0.87462657070E+02  0.83662454025E+02 0.  0.
        -24    2    1    2    0    0 -0.24281400306E+02  0.46389365472E+02 -0.21406107377E+03  0.23458627275E+03  0.80417761920E+02 0.  0.
         13    1    4    4    0    0  0.17572405077E+02  0.28126692879E+02 -0.29261171733E+02  0.44228005197E+02  0.00000000000E+00 0. -1.
        -14    1    4    4    0    0 -0.41853805383E+02  0.18262672593E+02 -0.18479990204E+03  0.19035826756E+03  0.00000000000E+00 0.  1.
        -13    1    3    3    0    0 -0.22142185029E+02 -0.35145892743E+02  0.25559390701E+02  0.48772867329E+02  0.00000000000E+00 0.  1.
         13    1    3    3    0    0  0.32861486750E+02  0.17349721090E+02 -0.10770779769E+02  0.38689789740E+02  0.00000000000E+00 0. -1.
          2    1    1    2  501    0  0.13562098584E+02 -0.28593193819E+02 -0.50728288974E+02  0.59790137590E+02  0.00000000000E+00 0. -1.
<scales pt_clust_5="13000.00000" pt_clust_6="13000.00000" pt_clust_7="13000.00000" pt_clust_8="13000.00000" pt_clust_9="31.64650"></scales>
<clustering>
<clus scale="   31.647">  2  9  1 -1</clus>
<clus scale="   80.418">  5  6 -1 -1</clus>
<clus scale="   83.662">  7  8 -1 -1</clus>
<clus scale="   84.264">  2  5  1 -1</clus>
<clus scale="   31.647">  2  5  1 -1</clus>
</clustering>
</event>
<event>
 9    1  0.3197504E-005  0.1050799E+03  0.7546771E-02  0.1272419E+00
         21   -1    0    0  501  502  0.00000000000E+00  0.00000000000E+00  0.15766485644E+03  0.15766485644E+03  0.00000000000E+00 0. -1.
          1   -1    0    0  502    0 -0.00000000000E+00 -0.00000000000E+00 -0.11643764390E+03  0.11643764390E+03  0.00000000000E+00 0. -1.
         23    2    1    2    0    0 -0.14630432319E+02  0.64880748815E+02 -0.20615711577E+02  0.11146419042E+03  0.87038480375E+02 0.  0.
        -24    2    1    2    0    0 -0.29813474215E+02 -0.50126754322E+02  0.24784481698E+02  0.10292006032E+03  0.81097062458E+02 0.  0.
         13    1    4    4    0    0 -0.63004218470E-01 -0.26697685055E+02  0.50515742871E+02  0.57136771301E+02  0.00000000000E+00 0. -1.
        -14    1    4    4    0    0 -0.29750469997E+02 -0.23429069267E+02 -0.25731261173E+02  0.45783289018E+02  0.00000000000E+00 0.  1.
        -11    1    3    3    0    0 -0.13412058567E+02  0.24261346836E+02  0.33694907537E+02  0.43633050079E+02  0.00000000000E+00 0.  1.
         11    1    3    3    0    0 -0.12183737517E+01  0.40619401979E+02 -0.54310619114E+02  0.67831140343E+02  0.00000000000E+00 0. -1.
          2    1    1    2  501    0  0.44443906534E+02 -0.14753994493E+02  0.37058442412E+02  0.59718249602E+02  0.00000000000E+00 0. -1.
<scales pt_clust_5="13000.00000" pt_clust_6="13000.00000" pt_clust_7="13000.00000" pt_clust_8="13000.00000" pt_clust_9="46.82885"></scales>
<clustering>
<clus scale="   46.829">  1  9  2 -1</clus>
<clus scale="   81.097">  5  6 -1 -1</clus>
<clus scale="   87.038">  7  8 -1 -1</clus>
<clus scale="  100.214">  1  5  2 -1</clus>
<clus scale="   46.829">  1  5  2 -1</clus>
</clustering>
</event>
<event>
 9    1  0.3197504E-005  0.1230208E+03  0.7546771E-02  0.1238963E+00
         21   -1    0    0  501  502  0.00000000000E+00  0.00000000000E+00  0.13448129839E+03  0.13448129839E+03  0.00000000000E+00 0.  1.
          1   -1    0    0  502    0 -0.00000000000E+00 -0.00000000000E+00 -0.76047816024E+03  0.76047816024E+03  0.00000000000E+00 0. -1.
        -24    2    1    2    0    0 -0.28704715393E+02  0.76820494964E+02 -0.53045896658E+03  0.54387602655E+03  0.87687330353E+02 0.  0.
         23    2    1    2    0    0 -0.42066583467E+02 -0.13066146357E+03  0.57507669274E+02  0.17407955791E+03  0.90302519054E+02 0.  0.
         13    1    3    3    0    0 -0.50818825433E+01  0.91063855963E+02 -0.37083702424E+03  0.38188813800E+03  0.00000000000E+00 0. -1.
        -14    1    3    3    0    0 -0.23622832850E+02 -0.14243360999E+02 -0.15962194233E+03  0.16198788856E+03  0.00000000000E+00 0.  1.
        -13    1    4    4    0    0 -0.66449746751E+02 -0.95625843607E+02  0.60620252537E+02  0.13128094236E+03  0.00000000000E+00 0.  1.
         13    1    4    4    0    0  0.24383163284E+02 -0.35035619968E+02 -0.31125832632E+01  0.42798615548E+02  0.00000000000E+00 0. -1.
          2    1    1    2  501    0  0.70771298860E+02  0.53840968611E+02 -0.15304556454E+03  0.17700387417E+03  0.00000000000E+00 0. -1.
<scales pt_clust_5="13000.00000" pt_clust_6="13000.00000" pt_clust_7="13000.00000" pt_clust_8="13000.00000" pt_clust_9="88.92376"></scales>
<clustering>
<clus scale="   87.687">  5  6 -1 -1</clus>
<clus scale="   88.924">  1  9  2 -1</clus>
<clus scale="   90.303">  7  8 -1 -1</clus>
<clus scale="  121.114">  2  5  1 -1</clus>
<clus scale="   88.924">  1  5  2 -1</clus>
</clustering>
</event>
<event>
 9    1  0.3197504E-005  0.1285648E+03  0.7546771E-02  0.1233474E+00
         21   -1    0    0  501  502  0.00000000000E+00  0.00000000000E+00  0.18237557430E+03  0.18237557430E+03  0.00000000000E+00 0. -1.
         -2   -1    0    0    0  501 -0.00000000000E+00 -0.00000000000E+00 -0.28476311877E+03  0.28476311877E+03  0.00000000000E+00 0.  1.
         23    2    1    2    0    0 -0.87500754140E+02  0.10671513157E+02 -0.97731370831E+02  0.16043666597E+03  0.91750966080E+02 0.  0.
        -24    2    1    2    0    0  0.10182369039E+03  0.44827573821E+02  0.11260865307E+03  0.17617871599E+03  0.77334700633E+02 0.  0.
         13    1    4    4    0    0  0.79913896961E+02  0.65399620918E+01  0.10385482062E+03  0.13120528114E+03  0.00000000000E+00 0. -1.
        -14    1    4    4    0    0  0.21909793428E+02  0.38287611729E+02  0.87538324507E+01  0.44973434854E+02  0.00000000000E+00 0.  1.
        -13    1    3    3    0    0 -0.80948989161E+02  0.33925034827E+02 -0.10339264593E+03  0.13562332420E+03  0.00000000000E+00 0.  1.
         13    1    3    3    0    0 -0.65517649793E+01 -0.23253521670E+02  0.56612750990E+01  0.24813341777E+02  0.00000000000E+00 0. -1.
         -1    1    1    2    0  502 -0.14322936249E+02 -0.55499086978E+02 -0.11726482671E+03  0.13052331110E+03  0.00000000000E+00 0.  1.
<scales pt_clust_5="13000.00000" pt_clust_6="13000.00000" pt_clust_7="13000.00000" pt_clust_8="13000.00000" pt_clust_9="57.31752"></scales>
<clustering>
<clus scale="   57.318">  1  9  2 -1</clus>
<clus scale="   77.335">  5  6 -1 -1</clus>
<clus scale="   91.751">  7  8 -1 -1</clus>
<clus scale="  118.707">  1  5  2 -1</clus>
<clus scale="   57.318">  1  5  2 -1</clus>
</clustering>
</event>
<event>
 9    1  0.3197504E-005  0.2207983E+03  0.7546771E-02  0.1152491E+00
         21   -1    0    0  501  502  0.00000000000E+00  0.00000000000E+00  0.21137686416E+03  0.21137686416E+03  0.00000000000E+00 0. -1.
          1   -1    0    0  502    0 -0.00000000000E+00 -0.00000000000E+00 -0.40154318304E+03  0.40154318304E+03  0.00000000000E+00 0. -1.
        -24    2    1    2    0    0  0.24165282638E+02 -0.11096085560E+03  0.79193416734E+01  0.13949995358E+03  0.80630321314E+02 0.  0.
         23    2    1    2    0    0  0.13324225726E+03 -0.65466944449E+02 -0.13991608732E+03  0.22992963898E+03  0.10607406590E+03 0.  0.
         13    1    3    3    0    0  0.51653567923E+02 -0.89997966500E+02 -0.10991421412E+01  0.10377347044E+03  0.00000000000E+00 0. -1.
        -14    1    3    3    0    0 -0.27488285285E+02 -0.20962889105E+02  0.90184838147E+01  0.35726483144E+02  0.00000000000E+00 0.  1.
        -13    1    4    4    0    0  0.11215386999E+03 -0.74091713271E+02 -0.15299756421E+03  0.20365737695E+03  0.00000000000E+00 0. -1.
         13    1    4    4    0    0  0.21088387272E+02  0.86247688218E+01  0.13081476891E+02  0.26272262039E+02  0.00000000000E+00 0.  1.
          2    1    1    2  501    0 -0.15740753990E+03  0.17642780005E+03 -0.58169573227E+02  0.24349045464E+03  0.00000000000E+00 0. -1.
<scales pt_clust_5="13000.00000" pt_clust_6="13000.00000" pt_clust_7="13000.00000" pt_clust_8="13000.00000" pt_clust_9="193.64958"></scales>
<clustering>
<clus scale="   80.630">  5  6 -1 -1</clus>
<clus scale="  106.074">  7  8 -1 -1</clus>
<clus scale="  139.275">  2  5  1 -1</clus>
<clus scale="  193.650">  1  9  2 -1</clus>
<clus scale="  193.650">  1  5  2 -1</clus>
</clustering>
</event>
<event>
 9    1  0.3197504E-005  0.1238183E+03  0.7546771E-02  0.1256172E+00
          1   -1    0    0  502    0 -0.00000000000E+00  0.00000000000E+00  0.17785405773E+03  0.17785405773E+03  0.00000000000E+00 0. -1.
         21   -1    0    0  501  502  0.00000000000E+00 -0.00000000000E+00 -0.24352269323E+03  0.24352269323E+03  0.00000000000E+00 0. -1.
        -24    2    1    2    0    0  0.58851266216E+02 -0.31727472277E+02  0.46574885879E+02  0.96145576646E+02  0.51035751013E+02 0.  0.
         23    2    1    2    0    0 -0.34510238370E+02 -0.70171396745E+02 -0.16675550409E+03  0.20713197278E+03  0.94769586514E+02 0.  0.
         13    1    3    3    0    0  0.67985844275E+02 -0.27541347684E+02  0.44772662328E+02  0.85937140666E+02  0.00000000000E+00 0. -1.
        -14    1    3    3    0    0 -0.91345780581E+01 -0.41861245935E+01  0.18022235513E+01  0.10208435979E+02  0.00000000000E+00 0.  1.
        -11    1    4    4    0    0  0.43117015904E+01  0.21321687462E+02 -0.18030840851E+02  0.28254492539E+02  0.00000000000E+00 0.  1.
         11    1    4    4    0    0 -0.38821939961E+02 -0.91493084207E+02 -0.14872466324E+03  0.17887748024E+03  0.00000000000E+00 0. -1.
          2    1    1    2  501    0 -0.24341027846E+02  0.10189886902E+03  0.54511982718E+02  0.11809920154E+03  0.00000000000E+00 0. -1.
<scales pt_clust_5="13000.00000" pt_clust_6="13000.00000" pt_clust_7="13000.00000" pt_clust_8="13000.00000" pt_clust_9="79.68509"></scales>
<clustering>
<clus scale="   51.036">  5  6 -1 -1</clus>
<clus scale="   84.112">  1  5  2 -1</clus>
<clus scale="   79.685">  2  9  1 -1</clus>
<clus scale="   94.770">  7  8 -1 -1</clus>
<clus scale="   79.685">  2  5  1 -1</clus>
</clustering>
</event>
<event>
 9    1  0.3197504E-005  0.1020273E+03  0.7546771E-02  0.1276146E+00
         21   -1    0    0  501  502  0.00000000000E+00  0.00000000000E+00  0.27696210263E+03  0.27696210263E+03  0.00000000000E+00 0.  1.
          1   -1    0    0  502    0 -0.00000000000E+00 -0.00000000000E+00 -0.20258436031E+03  0.20258436031E+03  0.00000000000E+00 0. -1.
        -24    2    1    2    0    0 -0.43932724095E+02 -0.16484685374E+02 -0.13245827152E+03  0.16774685384E+03  0.91607773583E+02 0.  0.
         23    2    1    2    0    0 -0.18694777691E+02  0.96888329190E+02  0.12377678474E+03  0.18032419141E+03  0.86367114808E+02 0.  0.
         13    1    3    3    0    0 -0.62781468019E+02 -0.23251504683E+02 -0.13166028715E+03  0.14770435474E+03  0.00000000000E+00 0. -1.
        -14    1    3    3    0    0  0.18848743924E+02  0.67668193090E+01 -0.79798436772E+00  0.20042499099E+02  0.00000000000E+00 0.  1.
        -11    1    4    4    0    0 -0.33654171874E+02  0.71101909628E+02  0.12797478482E+03  0.15021860866E+03  0.00000000000E+00 0.  1.
         11    1    4    4    0    0  0.14959394183E+02  0.25786419562E+02 -0.41980000795E+01  0.30105582751E+02  0.00000000000E+00 0. -1.
          2    1    1    2  501    0  0.62627501787E+02 -0.80403643816E+02  0.83059229107E+02  0.13147541770E+03  0.00000000000E+00 0. -1.
<scales pt_clust_5="13000.00000" pt_clust_6="13000.00000" pt_clust_7="13000.00000" pt_clust_8="13000.00000" pt_clust_9="101.91639"></scales>
<clustering>
<clus scale="   86.367">  7  8 -1 -1</clus>
<clus scale="   91.608">  5  6 -1 -1</clus>
<clus scale="  101.916">  1  9  2 -1</clus>
<clus scale="  101.916">  1  7  2 -1</clus>
<clus scale="  101.916">  1  5  2 -1</clus>
</clustering>
</event>
<event>
 9    1  0.3197504E-005  0.1217759E+03  0.7546771E-02  0.1243331E+00
         21   -1    0    0  501  502  0.00000000000E+00  0.00000000000E+00  0.18181553551E+03  0.18181553551E+03  0.00000000000E+00 0. -1.
          1   -1    0    0  502    0 -0.00000000000E+00 -0.00000000000E+00 -0.70889909455E+03  0.70889909455E+03  0.00000000000E+00 0. -1.
         23    2    1    2    0    0 -0.70212654790E+02 -0.58495629979E+02 -0.56470563594E+03  0.57927565702E+03  0.91193617810E+02 0.  0.
        -24    2    1    2    0    0 -0.33687481642E+02  0.82352500143E+02 -0.86258985279E+02  0.14800425773E+03  0.80918891896E+02 0.  0.
         11    1    4    4    0    0 -0.37413297035E+02  0.88285587918E+01 -0.56781837492E+01  0.38857946627E+02  0.00000000000E+00 0. -1.
        -12    1    4    4    0    0  0.37258153935E+01  0.73523941351E+02 -0.80580801530E+02  0.10914631110E+03  0.00000000000E+00 0.  1.
        -13    1    3    3    0    0 -0.62867283428E+02  0.36642307278E+01 -0.35050235413E+03  0.35611461942E+03  0.00000000000E+00 0. -1.
         13    1    3    3    0    0 -0.73453713626E+01 -0.62159860707E+02 -0.21420328181E+03  0.22316103760E+03  0.00000000000E+00 0.  1.
          2    1    1    2  501    0  0.10390013643E+03 -0.23856870164E+02  0.12388106218E+03  0.16343471532E+03  0.00000000000E+00 0. -1.
<scales pt_clust_5="13000.00000" pt_clust_6="13000.00000" pt_clust_7="13000.00000" pt_clust_8="13000.00000" pt_clust_9="106.60389"></scales>
<clustering>
<clus scale="   80.919">  5  6 -1 -1</clus>
<clus scale="   91.194">  7  8 -1 -1</clus>
<clus scale="  106.604">  1  9  2 -1</clus>
<clus scale="  114.285">  1  5  2 -1</clus>
<clus scale="  106.604">  1  5  2 -1</clus>
</clustering>
</event>
<event>
 9    1  0.3197504E-005  0.9373314E+02  0.7546771E-02  0.1300929E+00
         21   -1    0    0  501  502  0.00000000000E+00  0.00000000000E+00  0.20460268479E+03  0.20460268479E+03  0.00000000000E+00 0. -1.
         -2   -1    0    0    0  501 -0.00000000000E+00 -0.00000000000E+00 -0.53313706483E+03  0.53313706483E+03  0.00000000000E+00 0.  1.
        -24    2    1    2    0    0 -0.14066084014E+02 -0.74649595460E+01 -0.50614364736E+03  0.51280960354E+03  0.80862335938E+02 0.  0.
         23    2    1    2    0    0  0.40272459065E+02  0.48035297053E+01  0.96052375831E+02  0.13922493124E+03  0.92263631612E+02 0.  0.
         11    1    3    3    0    0  0.29634155048E+02 -0.16562839546E+02 -0.14517698475E+03  0.14909348644E+03  0.00000000000E+00 0. -1.
        -12    1    3    3    0    0 -0.43700239062E+02  0.90978800004E+01 -0.36096666261E+03  0.36371611709E+03  0.00000000000E+00 0.  1.
        -13    1    4    4    0    0 -0.69698289792E+01  0.38016246775E+02  0.19377018009E+02  0.43235198182E+02  0.00000000000E+00 0.  1.
         13    1    4    4    0    0  0.47242288044E+02 -0.33212717070E+02  0.76675357822E+02  0.95989733055E+02  0.00000000000E+00 0. -1.
         -1    1    1    2    0  502 -0.26206375051E+02  0.26614298407E+01  0.81556891495E+02  0.85705214849E+02  0.00000000000E+00 0.  1.
<scales pt_clust_5="13000.00000" pt_clust_6="13000.00000" pt_clust_7="13000.00000" pt_clust_8="13000.00000" pt_clust_9="26.34117"></scales>
<clustering>
<clus scale="   26.341">  1  9  2 -1</clus>
<clus scale="   80.862">  5  6 -1 -1</clus>
<clus scale="   82.535">  2  5  1 -1</clus>
<clus scale="   92.264">  7  8 -1 -1</clus>
<clus scale="   26.341">  1  5  2 -1</clus>
</clustering>
</event>
<event>
 9    1  0.3197504E-005  0.9433838E+02  0.7546771E-02  0.1297923E+00
         21   -1    0    0  501  502  0.00000000000E+00  0.00000000000E+00  0.12617408099E+03  0.12617408099E+03  0.00000000000E+00 0. -1.
          1   -1    0    0  502    0 -0.00000000000E+00 -0.00000000000E+00 -0.38688760725E+03  0.38688760725E+03  0.00000000000E+00 0. -1.
         23    2    1    2    0    0  0.62586483570E+01  0.61019903120E+01 -0.25691037115E+03  0.27284292660E+03  0.91454463132E+02 0.  0.
        -24    2    1    2    0    0 -0.52006572633E+02 -0.74322459115E+02 -0.64130989604E+02  0.13830530545E+03  0.82383628006E+02 0.  0.
         13    1    4    4    0    0 -0.20492385697E+02 -0.79936431892E+02 -0.22019097018E+02  0.85408498691E+02  0.00000000000E+00 0. -1.
        -14    1    4    4    0    0 -0.31514186935E+02  0.56139727777E+01 -0.42111892586E+02  0.52896806763E+02  0.00000000000E+00 0.  1.
        -13    1    3    3    0    0  0.15288639222E+02 -0.35890185402E+02 -0.61968793729E+02  0.73225537169E+02  0.00000000000E+00 0. -1.
         13    1    3    3    0    0 -0.90299908652E+01  0.41992175714E+02 -0.19494157742E+03  0.19961738943E+03  0.00000000000E+00 0.  1.
          2    1    1    2  501    0  0.45747924275E+02  0.68220468803E+02  0.60327834490E+02  0.10191345619E+03  0.00000000000E+00 0. -1.
<scales pt_clust_5="13000.00000" pt_clust_6="13000.00000" pt_clust_7="13000.00000" pt_clust_8="13000.00000" pt_clust_9="82.13955"></scales>
<clustering>
<clus scale="   82.140">  1  9  2 -1</clus>
<clus scale="   82.384">  5  6 -1 -1</clus>
<clus scale="   85.574">  1  5  2 -1</clus>
<clus scale="   91.454">  7  8 -1 -1</clus>
<clus scale="   82.140">  1  5  2 -1</clus>
</clustering>
</event>
<event>
 9    1  0.3197504E-005  0.1148893E+03  0.7546771E-02  0.1255766E+00
         21   -1    0    0  501  502  0.00000000000E+00  0.00000000000E+00  0.28661239949E+03  0.28661239949E+03  0.00000000000E+00 0.  1.
          1   -1    0    0  502    0 -0.00000000000E+00 -0.00000000000E+00 -0.82163276225E+02  0.82163276225E+02  0.00000000000E+00 0. -1.
         23    2    1    2    0    0  0.81146459082E+02  0.77388001767E+01  0.44526258881E+02  0.13061256351E+03  0.91828193749E+02 0.  0.
        -24    2    1    2    0    0 -0.38850469963E+02 -0.33859678059E+02  0.16229383926E+03  0.18839492479E+03  0.80607199490E+02 0.  0.
         13    1    4    4    0    0 -0.26426280948E+02  0.94748805792E+01  0.10376135715E+02  0.29929682242E+02  0.00000000000E+00 0. -1.
        -14    1    4    4    0    0 -0.12424189015E+02 -0.43334558638E+02  0.15191770354E+03  0.15846524254E+03  0.00000000000E+00 0.  1.
        -13    1    3    3    0    0  0.44181597085E+02  0.49566773838E+02  0.17919670204E+02  0.68774945801E+02  0.00000000000E+00 0.  1.
         13    1    3    3    0    0  0.36964861996E+02 -0.41827973661E+02  0.26606588677E+02  0.61837617710E+02  0.00000000000E+00 0. -1.
          2    1    1    2  501    0 -0.42295989119E+02  0.26120877882E+02 -0.23709748745E+01  0.49768187417E+02  0.00000000000E+00 0. -1.
<scales pt_clust_5="13000.00000" pt_clust_6="13000.00000" pt_clust_7="13000.00000" pt_clust_8="13000.00000" pt_clust_9="49.71170"></scales>
<clustering>
<clus scale="   49.712">  1  9  2 -1</clus>
<clus scale="   80.607">  5  6 -1 -1</clus>
<clus scale="   91.828">  7  8 -1 -1</clus>
<clus scale="  106.135">  1  5  2 -1</clus>
<clus scale="   49.712">  1  5  2 -1</clus>
</clustering>
</event>
<event>
 9    1  0.3197504E-005  0.1086182E+03  0.7546771E-02  0.1267462E+00
         -2   -1    0    0    0  501 -0.00000000000E+00  0.00000000000E+00  0.94061377640E+02  0.94061377640E+02  0.00000000000E+00 0.  1.
         21   -1    0    0  501  502  0.00000000000E+00 -0.00000000000E+00 -0.49352638349E+03  0.49352638349E+03  0.00000000000E+00 0. -1.
         23    2    1    2    0    0  0.33961443147E+02  0.50384956476E+02  0.47138063228E+02  0.11995338680E+03  0.92058647289E+02 0.  0.
        -24    2    1    2    0    0  0.51428268203E+01 -0.34132514553E+02 -0.36628034868E+03  0.37683225315E+03  0.81546158507E+02 0.  0.
         13    1    4    4    0    0 -0.30151612782E+02 -0.42533928568E+02 -0.20571434402E+03  0.21221839262E+03  0.00000000000E+00 0. -1.
        -14    1    4    4    0    0  0.35294439603E+02  0.84014140146E+01 -0.16056600467E+03  0.16461386053E+03  0.00000000000E+00 0.  1.
        -13    1    3    3    0    0  0.43529538072E+02  0.30267196692E+02  0.70145676686E+02  0.87928037838E+02  0.00000000000E+00 0.  1.
         13    1    3    3    0    0 -0.95680949255E+01  0.20117759784E+02 -0.23007613458E+02  0.32025348964E+02  0.00000000000E+00 0. -1.
         -1    1    1    2    0  502 -0.39104269967E+02 -0.16252441923E+02 -0.80322720392E+02  0.90802121172E+02  0.00000000000E+00 0.  1.
<scales pt_clust_5="13000.00000" pt_clust_6="13000.00000" pt_clust_7="13000.00000" pt_clust_8="13000.00000" pt_clust_9="42.34721"></scales>
<clustering>
<clus scale="   42.347">  2  9  1 -1</clus>
<clus scale="   81.546">  5  6 -1 -1</clus>
<clus scale="   92.059">  7  8 -1 -1</clus>
<clus scale="   99.864">  2  5  1 -1</clus>
<clus scale="   42.347">  2  5  1 -1</clus>
</clustering>
</event>
<event>
 9    1  0.3197504E-005  0.9605003E+02  0.7546771E-02  0.1296616E+00
         21   -1    0    0  501  502  0.00000000000E+00  0.00000000000E+00  0.36032077309E+03  0.36032077309E+03  0.00000000000E+00 0.  1.
         -4   -1    0    0    0  501 -0.00000000000E+00 -0.00000000000E+00 -0.53236641370E+02  0.53236641370E+02  0.00000000000E+00 0.  1.
         23    2    1    2    0    0  0.15427131296E+02  0.13039081326E+02  0.27957382833E+02  0.10113363854E+03  0.95070413732E+02 0.  0.
        -24    2    1    2    0    0 -0.10138257105E+02  0.18404286298E+02  0.10227004921E+03  0.13271581901E+03  0.81931823110E+02 0.  0.
         11    1    4    4    0    0 -0.30249409583E+02 -0.41680012564E+01  0.51085107128E+01  0.30959584886E+02  0.00000000000E+00 0. -1.
        -12    1    4    4    0    0  0.20111152477E+02  0.22572287554E+02  0.97161538502E+02  0.10175623413E+03  0.00000000000E+00 0.  1.
        -11    1    3    3    0    0  0.15867246664E+02 -0.21543012253E+02 -0.25828237676E+02  0.37188287875E+02  0.00000000000E+00 0.  1.
         11    1    3    3    0    0 -0.44011536823E+00  0.34582093580E+02  0.53785620509E+02  0.63945350663E+02  0.00000000000E+00 0. -1.
         -3    1    1    2    0  502 -0.52888741902E+01 -0.31443367624E+02  0.17685669967E+03  0.17970795691E+03  0.00000000000E+00 0.  1.
<scales pt_clust_5="13000.00000" pt_clust_6="13000.00000" pt_clust_7="13000.00000" pt_clust_8="13000.00000" pt_clust_9="31.88507"></scales>
<clustering>
<clus scale="   31.885">  1  9  2 -1</clus>
<clus scale="   81.932">  5  6 -1 -1</clus>
<clus scale="   83.067">  1  5  2 -1</clus>
<clus scale="   95.070">  7  8 -1 -1</clus>
<clus scale="   31.885">  1  5  2 -1</clus>
</clustering>
</event>
<event>
 9    1  0.3197504E-005  0.1451003E+03  0.7546771E-02  0.1206860E+00
         21   -1    0    0  501  502  0.00000000000E+00  0.00000000000E+00  0.53499185300E+03  0.53499185300E+03  0.00000000000E+00 0. -1.
          1   -1    0    0  502    0 -0.00000000000E+00 -0.00000000000E+00 -0.11392298975E+03  0.11392298975E+03  0.00000000000E+00 0. -1.
        -24    2    1    2    0    0  0.65356344099E+02 -0.11593544076E+03 -0.46518128675E+01  0.15608979649E+03  0.81424241286E+02 0.  0.
         23    2    1    2    0    0 -0.66008054643E+02  0.20032555983E+02  0.36200058994E+03  0.37768149491E+03  0.82707423521E+02 0.  0.
         11    1    3    3    0    0  0.56112787158E+02 -0.11066816609E+03 -0.30811658567E+02  0.12784931041E+03  0.00000000000E+00 0. -1.
        -12    1    3    3    0    0  0.92435569414E+01 -0.52672746684E+01  0.26159845699E+02  0.28240486086E+02  0.00000000000E+00 0.  1.
        -13    1    4    4    0    0 -0.15090784789E+02 -0.30350154906E+02  0.83514668004E+02  0.90130813045E+02  0.00000000000E+00 0.  1.
         13    1    4    4    0    0 -0.50917269854E+02  0.50382710889E+02  0.27848592194E+03  0.28755068187E+03  0.00000000000E+00 0. -1.
          2    1    1    2  501    0  0.65171054343E+00  0.95902884775E+02  0.63720086176E+02  0.11514355135E+03  0.00000000000E+00 0. -1.
<scales pt_clust_5="13000.00000" pt_clust_6="13000.00000" pt_clust_7="13000.00000" pt_clust_8="13000.00000" pt_clust_9="95.90515"></scales>
<clustering>
<clus scale="   81.424">  5  6 -1 -1</clus>
<clus scale="   82.707">  7  8 -1 -1</clus>
<clus scale="   95.905">  1  9  2 -1</clus>
<clus scale="  144.373">  2  5  1 -1</clus>
<clus scale="   95.905">  1  5  2 -1</clus>
</clustering>
</event>
<event>
 9    1  0.3197504E-005  0.1074311E+03  0.7546771E-02  0.1270748E+00
         21   -1    0    0  501  502  0.00000000000E+00  0.00000000000E+00  0.10431406107E+03  0.10431406107E+03  0.00000000000E+00 0.  1.
          1   -1    0    0  502    0 -0.00000000000E+00 -0.00000000000E+00 -0.47264864461E+03  0.47264864461E+03  0.00000000000E+00 0. -1.
        -24    2    1    2    0    0 -0.59474163314E+02 -0.14565204499E+02 -0.37363602004E+03  0.38644662742E+03  0.77380870304E+02 0.  0.
         23    2    1    2    0    0  0.18421744541E+02  0.66051588397E+02 -0.27930934763E+02  0.11675606664E+03  0.90275517055E+02 0.  0.
         13    1    3    3    0    0 -0.74452254391E+02  0.25864554714E+01 -0.31105316942E+03  0.31984981185E+03  0.00000000000E+00 0. -1.
        -14    1    3    3    0    0  0.14978091077E+02 -0.17151659971E+02 -0.62582850626E+02  0.66596815574E+02  0.00000000000E+00 0.  1.
        -13    1    4    4    0    0  0.46082833338E+02  0.47372046579E+02  0.93158632540E+01  0.66742217777E+02  0.00000000000E+00 0.  1.
         13    1    4    4    0    0 -0.27661088797E+02  0.18679541818E+02 -0.37246798017E+02  0.50013848867E+02  0.00000000000E+00 0. -1.
          2    1    1    2  501    0  0.41052418773E+02 -0.51486383898E+02  0.33232371261E+02  0.73760011616E+02  0.00000000000E+00 0. -1.
<scales pt_clust_5="13000.00000" pt_clust_6="13000.00000" pt_clust_7="13000.00000" pt_clust_8="13000.00000" pt_clust_9="65.84944"></scales>
<clustering>
<clus scale="   65.849">  1  9  2 -1</clus>
<clus scale="   77.381">  5  6 -1 -1</clus>
<clus scale="   90.276">  7  8 -1 -1</clus>
<clus scale="   96.848">  2  5  1 -1</clus>
<clus scale="   65.849">  1  5  2 -1</clus>
</clustering>
</event>
<event>
 9    1  0.3197504E-005  0.1031239E+03  0.7546771E-02  0.1283842E+00
         -2   -1    0    0    0  501 -0.00000000000E+00  0.00000000000E+00  0.97748383963E+02  0.97748383963E+02  0.00000000000E+00 0.  1.
         21   -1    0    0  501  502  0.00000000000E+00 -0.00000000000E+00 -0.26029393612E+03  0.26029393612E+03  0.00000000000E+00 0.  1.
         23    2    1    2    0    0  0.94941843191E+01  0.53687878073E+02  0.13553006201E+02  0.10897041576E+03  0.93372050127E+02 0.  0.
        -24    2    1    2    0    0  0.76122371449E+01 -0.34130848268E+02 -0.10866060822E+02  0.81808981623E+02  0.73155842135E+02 0.  0.
         13    1    4    4    0    0 -0.11637120821E+02 -0.49684517878E+02 -0.20848379263E+02  0.55123759085E+02  0.00000000000E+00 0. -1.
        -14    1    4    4    0    0  0.19249357966E+02  0.15553669610E+02  0.99823184412E+01  0.26685222538E+02  0.00000000000E+00 0.  1.
        -13    1    3    3    0    0 -0.19536322061E+02 -0.17364919850E+02 -0.11037128677E+02  0.28372989453E+02  0.00000000000E+00 0. -1.
         13    1    3    3    0    0  0.29030506380E+02  0.71052797923E+02  0.24590134877E+02  0.80597426303E+02  0.00000000000E+00 0.  1.
         -1    1    1    2    0  502 -0.17106421464E+02 -0.19557029806E+02 -0.16523249754E+03  0.16726292271E+03  0.00000000000E+00 0.  1.
<scales pt_clust_5="13000.00000" pt_clust_6="13000.00000" pt_clust_7="13000.00000" pt_clust_8="13000.00000" pt_clust_9="25.98282"></scales>
<clustering>
<clus scale="   25.983">  2  9  1 -1</clus>
<clus scale="   73.156">  5  6 -1 -1</clus>
<clus scale="   85.252">  2  5  1 -1</clus>
<clus scale="   93.372">  7  8 -1 -1</clus>
<clus scale="   25.983">  2  5  1 -1</clus>
</clustering>
</event>
<event>
 9    1  0.3197504E-005  0.1315253E+03  0.7546771E-02  0.1240075E+00
          1   -1    0    0  502    0 -0.00000000000E+00  0.00000000000E+00  0.60313263276E+03  0.60313263276E+03  0.00000000000E+00 0. -1.
         21   -1    0    0  501  502  0.00000000000E+00 -0.00000000000E+00 -0.55677325989E+02  0.55677325989E+02  0.00000000000E+00 0. -1.
         23    2    1    2    0    0 -0.26204065236E+02 -0.24562510673E+02  0.22455202843E+03  0.24456378895E+03  0.89988129365E+02 0.  0.
        -24    2    1    2    0    0 -0.59256869447E+02  0.85732219403E+02  0.26055264222E+03  0.29204589792E+03  0.80881005835E+02 0.  0.
         11    1    4    4    0    0  0.58630786490E+01  0.35958213223E+02  0.15036842202E+03  0.15471920091E+03  0.00000000000E+00 0. -1.
        -12    1    4    4    0    0 -0.65119948096E+02  0.49774006180E+02  0.11018422020E+03  0.13732669701E+03  0.00000000000E+00 0.  1.
        -11    1    3    3    0    0  0.26969721003E+02 -0.19859656580E+02  0.14460567046E+03  0.14843372845E+03  0.00000000000E+00 0.  1.
         11    1    3    3    0    0 -0.53173786239E+02 -0.47028540928E+01  0.79946357967E+02  0.96130060501E+02  0.00000000000E+00 0. -1.
          2    1    1    2  501    0  0.85460934683E+02 -0.61169708730E+02  0.62350636123E+02  0.12220027188E+03  0.00000000000E+00 0. -1.
<scales pt_clust_5="13000.00000" pt_clust_6="13000.00000" pt_clust_7="13000.00000" pt_clust_8="13000.00000" pt_clust_9="103.71673"></scales>
<clustering>
<clus scale="   80.881">  5  6 -1 -1</clus>
<clus scale="   89.988">  7  8 -1 -1</clus>
<clus scale="   96.891">  1  7  2 -1</clus>
<clus scale="  103.717">  2  9  1 -1</clus>
<clus scale="  103.717">  2  5  1 -1</clus>
</clustering>
</event>
<event>
 9    1  0.3197504E-005  0.1871372E+03  0.7546771E-02  0.1192632E+00
         21   -1    0    0  501  502  0.00000000000E+00  0.00000000000E+00  0.29864017076E+02  0.29864017076E+02  0.00000000000E+00 0. -1.
          1   -1    0    0  502    0 -0.00000000000E+00 -0.00000000000E+00 -0.16933001548E+04  0.16933001548E+04  0.00000000000E+00 0. -1.
        -24    2    1    2    0    0 -0.24395751879E+02  0.38199770774E+02 -0.31216797159E+03  0.32535274878E+03  0.79694375315E+02 0.  0.
         23    2    1    2    0    0  0.16767071880E+03  0.30132328534E+02 -0.61371375994E+03  0.64336891764E+03  0.90871105840E+02 0.  0.
         13    1    3    3    0    0 -0.27693242409E+02  0.32311175951E+02 -0.62606736768E+02  0.75700272491E+02  0.00000000000E+00 0. -1.
        -14    1    3    3    0    0  0.32974905298E+01  0.58885948228E+01 -0.24956123482E+03  0.24965247629E+03  0.00000000000E+00 0.  1.
        -11    1    4    4    0    0  0.67230001913E+02 -0.32108776998E+02 -0.21717153726E+03  0.22959600022E+03  0.00000000000E+00 0.  1.
         11    1    4    4    0    0  0.10044071688E+03  0.62241105533E+02 -0.39654222268E+03  0.41377291742E+03  0.00000000000E+00 0. -1.
          2    1    1    2  501    0 -0.14327496692E+03 -0.68332099308E+02 -0.73755440616E+03  0.75444250542E+03  0.00000000000E+00 0. -1.
<scales pt_clust_5="13000.00000" pt_clust_6="13000.00000" pt_clust_7="13000.00000" pt_clust_8="13000.00000" pt_clust_9="163.59338"></scales>
<clustering>
<clus scale="   79.694">  5  6 -1 -1</clus>
<clus scale="   90.871">  7  8 -1 -1</clus>
<clus scale="   91.682">  2  5  1 -1</clus>
<clus scale="  163.593">  1  9  2 -1</clus>
<clus scale="  163.593">  1  5  2 -1</clus>
</clustering>
</event>
<event>
 9    1  0.3197504E-005  0.9758893E+02  0.7546771E-02  0.1292969E+00
         -2   -1    0    0    0  501 -0.00000000000E+00  0.00000000000E+00  0.38528373193E+03  0.38528373193E+03  0.00000000000E+00 0.  1.
         21   -1    0    0  501  502  0.00000000000E+00 -0.00000000000E+00 -0.43734315808E+02  0.43734315808E+02  0.00000000000E+00 0. -1.
        -24    2    1    2    0    0  0.33850892690E+02 -0.18682562913E+01  0.21740156958E+03  0.23463387467E+03  0.81487663907E+02 0.  0.
         23    2    1    2    0    0  0.67361589042E+01 -0.27579712836E+02  0.89775805243E+02  0.13359002149E+03  0.94765933952E+02 0.  0.
         11    1    3    3    0    0  0.24476796126E+02 -0.23667272846E+02  0.20509764557E+03  0.20790453957E+03  0.00000000000E+00 0. -1.
        -12    1    3    3    0    0  0.93740965640E+01  0.21799016554E+02  0.12303924008E+02  0.26729335104E+02  0.00000000000E+00 0.  1.
        -11    1    4    4    0    0  0.65887903548E+00  0.35248501675E+02  0.25558209219E+02  0.43544380239E+02  0.00000000000E+00 0.  1.
         11    1    4    4    0    0  0.60772798687E+01 -0.62828214511E+02  0.64217596024E+02  0.90045641251E+02  0.00000000000E+00 0. -1.
         -1    1    1    2    0  502 -0.40587051594E+02  0.29447969128E+02  0.34372041294E+02  0.60794151573E+02  0.00000000000E+00 0.  1.
<scales pt_clust_5="13000.00000" pt_clust_6="13000.00000" pt_clust_7="13000.00000" pt_clust_8="13000.00000" pt_clust_9="50.14471"></scales>
<clustering>
<clus scale="   50.145">  2  9  1 -1</clus>
<clus scale="   81.488">  5  6 -1 -1</clus>
<clus scale="   84.754">  1  5  2 -1</clus>
<clus scale="   94.766">  7  8 -1 -1</clus>
<clus scale="   50.145">  2  5  1 -1</clus>
</clustering>
</event>
<event>
 9    1  0.3197504E-005  0.9187438E+02  0.7546771E-02  0.1305320E+00
         -2   -1    0    0    0  501 -0.00000000000E+00  0.00000000000E+00  0.12821673363E+03  0.12821673363E+03  0.00000000000E+00 0.  1.
         21   -1    0    0  501  502  0.00000000000E+00 -0.00000000000E+00 -0.14258185495E+03  0.14258185495E+03  0.00000000000E+00 0. -1.
         23    2    1    2    0    0 -0.51375308012E+00 -0.11666350080E+02  0.85982674032E+02  0.12587430524E+03  0.91186363129E+02 0.  0.
        -24    2    1    2    0    0  0.20725652666E+02  0.48004304045E+01 -0.74743947315E+02  0.11158933513E+03  0.80080742023E+02 0.  0.
         13    1    4    4    0    0  0.19217080755E+02 -0.33912687745E+02 -0.18132335530E+02  0.42990093913E+02  0.00000000000E+00 0. -1.
        -14    1    4    4    0    0  0.15085719108E+01  0.38713118150E+02 -0.56611611785E+02  0.68599241213E+02  0.00000000000E+00 0.  1.
        -13    1    3    3    0    0 -0.21408207159E+02  0.14924907049E+02  0.88203459229E+02  0.91983228929E+02  0.00000000000E+00 0.  1.
         13    1    3    3    0    0  0.20894454078E+02 -0.26591257129E+02 -0.22207851973E+01  0.33891076316E+02  0.00000000000E+00 0. -1.
         -1    1    1    2    0  502 -0.20211899586E+02  0.68659196760E+01 -0.25603848042E+02  0.33334948214E+02  0.00000000000E+00 0.  1.
<scales pt_clust_5="13000.00000" pt_clust_6="13000.00000" pt_clust_7="13000.00000" pt_clust_8="13000.00000" pt_clust_9="21.34623"></scales>
<clustering>
<clus scale="   21.346">  2  9  1 -1</clus>
<clus scale="   80.081">  5  6 -1 -1</clus>
<clus scale="   80.863">  2  5  1 -1</clus>
<clus scale="   91.186">  7  8 -1 -1</clus>
<clus scale="   21.346">  2  5  1 -1</clus>
</clustering>
</event>
<event>
 9    1  0.3197504E-005  0.2707399E+03  0.7546771E-02  0.1118333E+00
         21   -1    0    0  501  502  0.00000000000E+00  0.00000000000E+00  0.44431935150E+03  0.44431935150E+03  0.00000000000E+00 0. -1.
          1   -1    0    0  502    0 -0.00000000000E+00 -0.00000000000E+00 -0.78748999754E+03  0.78748999754E+03  0.00000000000E+00 0. -1.
        -24    2    1    2    0    0 -0.15412858481E+03  0.39444334361E+01 -0.80715571269E+02  0.19127166506E+03  0.79364143021E+02 0.  0.
         23    2    1    2    0    0  0.51114302116E+02 -0.24226434618E+03 -0.57612566195E+03  0.63335521812E+03  0.88957116861E+02 0.  0.
         11    1    3    3    0    0 -0.15360422165E+03 -0.15097880144E+02 -0.72565381370E+02  0.17055186152E+03  0.00000000000E+00 0. -1.
        -12    1    3    3    0    0 -0.52436315759E+00  0.19042313580E+02 -0.81501898986E+01  0.20719803537E+02  0.00000000000E+00 0.  1.
        -11    1    4    4    0    0 -0.17684502570E+01 -0.39081849498E+02 -0.18855713440E+03  0.19257287273E+03  0.00000000000E+00 0. -1.
         11    1    4    4    0    0  0.52882752373E+02 -0.20318249668E+03 -0.38756852755E+03  0.44078234539E+03  0.00000000000E+00 0.  1.
          2    1    1    2  501    0  0.10301428269E+03  0.23831991275E+03  0.31367058718E+03  0.40718246587E+03  0.00000000000E+00 0. -1.
<scales pt_clust_5="13000.00000" pt_clust_6="13000.00000" pt_clust_7="13000.00000" pt_clust_8="13000.00000" pt_clust_9="255.70829"></scales>
<clustering>
<clus scale="   79.364">  5  6 -1 -1</clus>
<clus scale="   88.957">  7  8 -1 -1</clus>
<clus scale="  173.407">  2  5  1 -1</clus>
<clus scale="  255.708">  1  9  2 -1</clus>
<clus scale="  255.708">  1  5  2 -1</clus>
</clustering>
</event>
<event>
 9    1  0.3197504E-005  0.1042023E+03  0.7546771E-02  0.1276722E+00
          1   -1    0    0  502    0 -0.00000000000E+00  0.00000000000E+00  0.53847597439E+03  0.53847597439E+03  0.00000000000E+00 0. -1.
         21   -1    0    0  501  502  0.00000000000E+00 -0.00000000000E+00 -0.72717756813E+02  0.72717756813E+02  0.00000000000E+00 0. -1.
        -24    2    1    2    0    0 -0.30439590725E+02  0.60084097360E+02  0.37512226846E+03  0.38940798479E+03  0.79907414437E+02 0.  0.
         23    2    1    2    0    0 -0.43571392471E+02 -0.12260286277E+02  0.86621828673E+02  0.13357658758E+03  0.91052636892E+02 0.  0.
         11    1    3    3    0    0 -0.31716359637E+02  0.65346932769E+02  0.37680091215E+03  0.38373829167E+03  0.00000000000E+00 0. -1.
        -12    1    3    3    0    0  0.12767689121E+01 -0.52628354096E+01 -0.16786436956E+01  0.56696931187E+01  0.00000000000E+00 0.  1.
        -11    1    4    4    0    0 -0.33344050339E+02  0.13744567392E+02  0.97217289141E+02  0.10369156250E+03  0.00000000000E+00 0.  1.
         11    1    4    4    0    0 -0.10227342132E+02 -0.26004853669E+02 -0.10595460468E+02  0.29885025078E+02  0.00000000000E+00 0. -1.
          2    1    1    2  501    0  0.74010983196E+02 -0.47823811083E+02  0.40141204436E+01  0.88209158839E+02  0.00000000000E+00 0. -1.
<scales pt_clust_5="13000.00000" pt_clust_6="13000.00000" pt_clust_7="13000.00000" pt_clust_8="13000.00000" pt_clust_9="88.11778"></scales>
<clustering>
<clus scale="   79.907">  5  6 -1 -1</clus>
<clus scale="   88.118">  2  9  1 -1</clus>
<clus scale="   91.053">  7  8 -1 -1</clus>
<clus scale="   94.619">  1  5  2 -1</clus>
<clus scale="   88.118">  2  5  1 -1</clus>
</clustering>
</event>
<event>
 9    1  0.3197504E-005  0.1046844E+03  0.7546771E-02  0.1276216E+00
         21   -1    0    0  501  502  0.00000000000E+00  0.00000000000E+00  0.20850204337E+03  0.20850204337E+03  0.00000000000E+00 0. -1.
          1   -1    0    0  502    0 -0.00000000000E+00 -0.00000000000E+00 -0.67302001070E+02  0.67302001070E+02  0.00000000000E+00 0. -1.
        -24    2    1    2    0    0 -0.29193736982E+02 -0.25865346879E+02  0.43727273380E+02  0.99356478037E+02  0.80239297370E+02 0.  0.
         23    2    1    2    0    0  0.30077317688E+02  0.58626027324E+02  0.67121802175E+02  0.13177963517E+03  0.92297777872E+02 0.  0.
         13    1    3    3    0    0 -0.20631715894E+02  0.22791154830E+02 -0.35860133453E+01  0.30950992406E+02  0.00000000000E+00 0. -1.
        -14    1    3    3    0    0 -0.85620210873E+01 -0.48656501709E+02  0.47313286726E+02  0.68405485631E+02  0.00000000000E+00 0.  1.
        -11    1    4    4    0    0  0.48547293093E+02  0.69349125419E+02  0.31653142637E+02  0.90377332898E+02  0.00000000000E+00 0. -1.
         11    1    4    4    0    0 -0.18469975405E+02 -0.10723098095E+02  0.35468659538E+02  0.41402302275E+02  0.00000000000E+00 0.  1.
          2    1    1    2  501    0 -0.88358070676E+00 -0.32760680445E+02  0.30350966749E+02  0.44667931234E+02  0.00000000000E+00 0. -1.
<scales pt_clust_5="13000.00000" pt_clust_6="13000.00000" pt_clust_7="13000.00000" pt_clust_8="13000.00000" pt_clust_9="32.77259"></scales>
<clustering>
<clus scale="   32.773">  1  9  2 -1</clus>
<clus scale="   80.239">  5  6 -1 -1</clus>
<clus scale="   92.298">  7  8 -1 -1</clus>
<clus scale="   94.225">  2  5  1 -1</clus>
<clus scale="   32.773">  1  5  2 -1</clus>
</clustering>
</event>
<event>
 9    1  0.3197504E-005  0.9393900E+02  0.7546771E-02  0.1301307E+00
          3   -1    0    0  502    0 -0.00000000000E+00  0.00000000000E+00  0.27901826192E+03  0.27901826192E+03  0.00000000000E+00 0. -1.
         21   -1    0    0  501  502  0.00000000000E+00 -0.00000000000E+00 -0.55784185484E+02  0.55784185484E+02  0.00000000000E+00 0. -1.
         23    2    1    2    0    0 -0.99513420630E+01 -0.11973011806E+02  0.65037241850E+02  0.11458244175E+03  0.93042522046E+02 0.  0.
        -24    2    1    2    0    0 -0.15377838620E+02  0.13912908729E+02  0.28072846893E+02  0.87639529088E+02  0.80390020376E+02 0.  0.
         13    1    4    4    0    0 -0.24660361030E+00  0.38901669989E+02 -0.95007164076E+01  0.40045778223E+02  0.00000000000E+00 0. -1.
        -14    1    4    4    0    0 -0.15131235009E+02 -0.24988761260E+02  0.37573563301E+02  0.47593750865E+02  0.00000000000E+00 0.  1.
        -11    1    3    3    0    0  0.22471760620E+02 -0.19390248232E+02 -0.10948593612E+02  0.31635951920E+02  0.00000000000E+00 0.  1.
         11    1    3    3    0    0 -0.32423102683E+02  0.74172364252E+01  0.75985835462E+02  0.82946489827E+02  0.00000000000E+00 0. -1.
          4    1    1    2  501    0  0.25329180683E+02 -0.19398969221E+01  0.13012398769E+03  0.13258047657E+03  0.00000000000E+00 0. -1.
<scales pt_clust_5="13000.00000" pt_clust_6="13000.00000" pt_clust_7="13000.00000" pt_clust_8="13000.00000" pt_clust_9="25.40337"></scales>
<clustering>
<clus scale="   25.403">  2  9  1 -1</clus>
<clus scale="   80.390">  5  6 -1 -1</clus>
<clus scale="   81.426">  2  5  1 -1</clus>
<clus scale="   93.043">  7  8 -1 -1</clus>
<clus scale="   25.403">  2  5  1 -1</clus>
</clustering>
</event>
<event>
 9    1  0.3197504E-005  0.1302163E+03  0.7546771E-02  0.1229944E+00
         -2   -1    0    0    0  501 -0.00000000000E+00  0.00000000000E+00  0.34876781933E+02  0.34876781933E+02  0.00000000000E+00 0.  1.
         21   -1    0    0  501  502  0.00000000000E+00 -0.00000000000E+00 -0.63931003823E+03  0.63931003823E+03  0.00000000000E+00 0. -1.
         23    2    1    2    0    0  0.99299815731E+02  0.19127678574E+02 -0.22475660438E+03  0.26296370169E+03  0.91695450813E+02 0.  0.
        -24    2    1    2    0    0 -0.73739095803E+02 -0.33518849717E+02 -0.35462456386E+03  0.37264769461E+03  0.80912023043E+02 0.  0.
         11    1    4    4    0    0 -0.56055924431E+02  0.17730190742E+02 -0.15445496620E+03  0.16526633932E+03  0.00000000000E+00 0. -1.
        -12    1    4    4    0    0 -0.17683171372E+02 -0.51249040459E+02 -0.20016959766E+03  0.20738135530E+03  0.00000000000E+00 0.  1.
        -13    1    3    3    0    0  0.42437351525E+02  0.30382035972E+02 -0.30959717128E+02  0.60683613924E+02  0.00000000000E+00 0.  1.
         13    1    3    3    0    0  0.56862464206E+02 -0.11254357397E+02 -0.19379688725E+03  0.20228008776E+03  0.00000000000E+00 0. -1.
         -1    1    1    2    0  502 -0.25560719929E+02  0.14391171143E+02 -0.25052088053E+02  0.38575423860E+02  0.00000000000E+00 0.  1.
<scales pt_clust_5="13000.00000" pt_clust_6="13000.00000" pt_clust_7="13000.00000" pt_clust_8="13000.00000" pt_clust_9="29.33355"></scales>
<clustering>
<clus scale="   29.334">  2  9  1 -1</clus>
<clus scale="   80.912">  5  6 -1 -1</clus>
<clus scale="   91.695">  7  8 -1 -1</clus>
<clus scale="  122.862">  2  5  1 -1</clus>
<clus scale="   29.334">  2  5  1 -1</clus>
</clustering>
</event>
<event>
 9    1  0.3197504E-005  0.1095464E+03  0.7546771E-02  0.1266849E+00
         21   -1    0    0  501  502  0.00000000000E+00  0.00000000000E+00  0.63142650465E+02  0.63142650465E+02  0.00000000000E+00 0.  1.
          1   -1    0    0  502    0 -0.00000000000E+00 -0.00000000000E+00 -0.38595056337E+03  0.38595056337E+03  0.00000000000E+00 0. -1.
        -24    2    1    2    0    0 -0.51506497582E+02 -0.18576378131E+02 -0.21146655914E+03  0.23211081753E+03  0.78481366348E+02 0.  0.
         23    2    1    2    0    0  0.87134559472E+02 -0.22480343741E+02 -0.59073434005E+02  0.14157053622E+03  0.91949708056E+02 0.  0.
         13    1    3    3    0    0 -0.65039995620E+02 -0.24970474444E+02 -0.20362426485E+03  0.21521284083E+03  0.00000000000E+00 0. -1.
        -14    1    3    3    0    0  0.13533498038E+02  0.63940963126E+01 -0.78422942909E+01  0.16897976700E+02  0.00000000000E+00 0.  1.
        -13    1    4    4    0    0  0.53337178030E+02  0.16215299752E+02  0.88071221464E+01  0.56438957350E+02  0.00000000000E+00 0.  1.
         13    1    4    4    0    0  0.33797381442E+02 -0.38695643493E+02 -0.67880556151E+02  0.85131578870E+02  0.00000000000E+00 0. -1.
          2    1    1    2  501    0 -0.35628061890E+02  0.41056721872E+02 -0.52267919762E+02  0.75411860082E+02  0.00000000000E+00 0. -1.
<scales pt_clust_5="13000.00000" pt_clust_6="13000.00000" pt_clust_7="13000.00000" pt_clust_8="13000.00000" pt_clust_9="54.36003"></scales>
<clustering>
<clus scale="   54.360">  1  9  2 -1</clus>
<clus scale="   78.481">  5  6 -1 -1</clus>
<clus scale="   91.950">  7  8 -1 -1</clus>
<clus scale="   98.514">  2  5  1 -1</clus>
<clus scale="   54.360">  1  5  2 -1</clus>
</clustering>
</event>
<event>
 9    1  0.3197504E-005  0.9841523E+02  0.7546771E-02  0.1290226E+00
         21   -1    0    0  501  502  0.00000000000E+00  0.00000000000E+00  0.67154387747E+02  0.67154387747E+02  0.00000000000E+00 0.  1.
         -2   -1    0    0    0  501 -0.00000000000E+00 -0.00000000000E+00 -0.18121597141E+03  0.18121597141E+03  0.00000000000E+00 0.  1.
         23    2    1    2    0    0  0.16164105569E+02 -0.40926061813E+02 -0.71916891396E+02  0.12533201875E+03  0.92735402144E+02 0.  0.
        -24    2    1    2    0    0 -0.12125919023E+01  0.19006021964E+02 -0.13192722372E+02  0.83766818047E+02  0.80499271004E+02 0.  0.
         11    1    4    4    0    0 -0.33582027999E+02 -0.14055829620E+02 -0.72115416104E+01  0.37112333304E+02  0.00000000000E+00 0. -1.
        -12    1    4    4    0    0  0.32369436097E+02  0.33061851584E+02 -0.59811807615E+01  0.46654484744E+02  0.00000000000E+00 0.  1.
        -11    1    3    3    0    0 -0.28820151310E+02 -0.48811555424E+02 -0.44489435712E+02  0.72058857571E+02  0.00000000000E+00 0.  1.
         11    1    3    3    0    0  0.44984256879E+02  0.78854936115E+01 -0.27427455685E+02  0.53273161177E+02  0.00000000000E+00 0. -1.
         -1    1    1    2    0  502 -0.14951513666E+02  0.21920039849E+02 -0.28951969896E+02  0.39271522364E+02  0.00000000000E+00 0.  1.
<scales pt_clust_5="13000.00000" pt_clust_6="13000.00000" pt_clust_7="13000.00000" pt_clust_8="13000.00000" pt_clust_9="26.53369"></scales>
<clustering>
<clus scale="   26.534">  1  9  2 -1</clus>
<clus scale="   80.499">  5  6 -1 -1</clus>
<clus scale="   86.982">  1  5  2 -1</clus>
<clus scale="   92.735">  7  8 -1 -1</clus>
<clus scale="   26.534">  1  5  2 -1</clus>
</clustering>
</event>
<event>
 9    1  0.3197504E-005  0.1087329E+03  0.7546771E-02  0.1263107E+00
          1   -1    0    0  502    0 -0.00000000000E+00  0.00000000000E+00  0.90325892633E+02  0.90325892633E+02  0.00000000000E+00 0. -1.
         21   -1    0    0  501  502  0.00000000000E+00 -0.00000000000E+00 -0.50076206244E+03  0.50076206244E+03  0.00000000000E+00 0.  1.
        -24    2    1    2    0    0  0.45771868633E+02  0.48605140482E+02  0.43540825643E+02  0.11746288149E+03  0.86279785532E+02 0.  0.
         23    2    1    2    0    0 -0.25239810464E+02 -0.52675241301E+02 -0.28922969644E+03  0.30755339128E+03  0.86738354278E+02 0.  0.
         11    1    3    3    0    0  0.50169902464E+02  0.51604131401E+02  0.64006437745E+02  0.96316299574E+02  0.00000000000E+00 0. -1.
        -12    1    3    3    0    0 -0.43980338306E+01 -0.29989909192E+01 -0.20465612102E+02  0.21146581918E+02  0.00000000000E+00 0.  1.
        -11    1    4    4    0    0  0.11899339416E+02 -0.30221485078E+02 -0.28422074443E+02  0.43159549980E+02  0.00000000000E+00 0. -1.
         11    1    4    4    0    0 -0.37139149880E+02 -0.22453756223E+02 -0.26080762200E+03  0.26439384130E+03  0.00000000000E+00 0.  1.
          2    1    1    2  501    0 -0.20532058170E+02  0.40701008190E+01 -0.16474729900E+03  0.16607168230E+03  0.00000000000E+00 0. -1.
<scales pt_clust_5="13000.00000" pt_clust_6="13000.00000" pt_clust_7="13000.00000" pt_clust_8="13000.00000" pt_clust_9="20.93158"></scales>
<clustering>
<clus scale="   20.932">  2  9  1 -1</clus>
<clus scale="   86.280">  5  6 -1 -1</clus>
<clus scale="   86.738">  7  8 -1 -1</clus>
<clus scale="  108.367">  1  5  2 -1</clus>
<clus scale="   20.932">  2  5  1 -1</clus>
</clustering>
</event>
<event>
 9    1  0.3197504E-005  0.1019289E+03  0.7546771E-02  0.1277700E+00
         21   -1    0    0  501  502  0.00000000000E+00  0.00000000000E+00  0.44171098500E+03  0.44171098500E+03  0.00000000000E+00 0.  1.
         -4   -1    0    0    0  501 -0.00000000000E+00 -0.00000000000E+00 -0.81766802274E+02  0.81766802274E+02  0.00000000000E+00 0.  1.
        -24    2    1    2    0    0 -0.68687604286E+02 -0.64541574933E+01 -0.30727698747E+02  0.11081453092E+03  0.81092697959E+02 0.  0.
         23    2    1    2    0    0  0.15469431921E+02  0.39842551921E+01  0.24819522001E+03  0.26055187167E+03  0.77661013270E+02 0.  0.
         13    1    3    3    0    0 -0.37441712969E+02 -0.24398302170E+02  0.19698105309E+02  0.48838247017E+02  0.00000000000E+00 0. -1.
        -14    1    3    3    0    0 -0.31245891317E+02  0.17944144677E+02 -0.50425804056E+02  0.61976283908E+02  0.00000000000E+00 0.  1.
        -13    1    4    4    0    0  0.37123230682E+02 -0.21635037958E+02  0.17225150071E+03  0.17752968377E+03  0.00000000000E+00 0. -1.
         13    1    4    4    0    0 -0.21653798761E+02  0.25619293150E+02  0.75943719299E+02  0.83022187897E+02  0.00000000000E+00 0.  1.
         -3    1    1    2    0  502  0.53218172365E+02  0.24699023012E+01  0.14247666146E+03  0.15211138468E+03  0.00000000000E+00 0.  1.
<scales pt_clust_5="13000.00000" pt_clust_6="13000.00000" pt_clust_7="13000.00000" pt_clust_8="13000.00000" pt_clust_9="53.27546"></scales>
<clustering>
<clus scale="   53.275">  1  9  2 -1</clus>
<clus scale="   77.661">  7  8 -1 -1</clus>
<clus scale="   81.093">  5  6 -1 -1</clus>
<clus scale="   99.220">  1  7  2 -1</clus>
<clus scale="   53.275">  1  5  2 -1</clus>
</clustering>
</event>
<event>
 9    1  0.3197504E-005  0.1082175E+03  0.7546771E-02  0.1268292E+00
         21   -1    0    0  501  502  0.00000000000E+00  0.00000000000E+00  0.15196869639E+03  0.15196869639E+03  0.00000000000E+00 0. -1.
          3   -1    0    0  502    0 -0.00000000000E+00 -0.00000000000E+00 -0.12462286836E+03  0.12462286836E+03  0.00000000000E+00 0. -1.
        -24    2    1    2    0    0 -0.51234670666E+02 -0.23784076043E+01 -0.26656152510E+02  0.99622626424E+02  0.81138578544E+02 0.  0.
         23    2    1    2    0    0  0.72282148641E+02 -0.32370973627E+02  0.61070510774E+02  0.13573206230E+03  0.91765987725E+02 0.  0.
         11    1    3    3    0    0 -0.28348125013E+02 -0.46272753585E+01  0.28131316594E+02  0.40204462965E+02  0.00000000000E+00 0. -1.
        -12    1    3    3    0    0 -0.22886545653E+02  0.22488677542E+01 -0.54787469104E+02  0.59418163460E+02  0.00000000000E+00 0.  1.
        -13    1    4    4    0    0  0.50876475648E+02 -0.62950233808E+02  0.55141172701E+02  0.97937207627E+02  0.00000000000E+00 0. -1.
         13    1    4    4    0    0  0.21405672993E+02  0.30579260181E+02  0.59293380731E+01  0.37794854669E+02  0.00000000000E+00 0.  1.
          4    1    1    2  501    0 -0.21047477975E+02  0.34749381231E+02 -0.70685302292E+01  0.41236876029E+02  0.00000000000E+00 0. -1.
<scales pt_clust_5="13000.00000" pt_clust_6="13000.00000" pt_clust_7="13000.00000" pt_clust_8="13000.00000" pt_clust_9="40.62656"></scales>
<clustering>
<clus scale="   40.627">  1  9  2 -1</clus>
<clus scale="   81.139">  5  6 -1 -1</clus>
<clus scale="   91.766">  7  8 -1 -1</clus>
<clus scale="   99.365">  2  5  1 -1</clus>
<clus scale="   40.627">  1  5  2 -1</clus>
</clustering>
</event>
<event>
 9    1  0.3197504E-005  0.1100802E+03  0.7546771E-02  0.1267272E+00
         21   -1    0    0  501  502  0.00000000000E+00  0.00000000000E+00  0.92856385170E+02  0.92856385170E+02  0.00000000000E+00 0.  1.
         -4   -1    0    0    0  501 -0.00000000000E+00 -0.00000000000E+00 -0.14684151469E+03  0.14684151469E+03  0.00000000000E+00 0.  1.
        -24    2    1    2    0    0  0.11704244898E+02  0.50170401985E+02 -0.15180744905E+02  0.90974447328E+02  0.73429125466E+02 0.  0.
         23    2    1    2    0    0 -0.79843471789E+01 -0.75220774955E+02 -0.29826138891E+02  0.12185399550E+03  0.90757274490E+02 0.  0.
         11    1    3    3    0    0  0.28838134098E+02 -0.71560694920E+01 -0.25368324246E+01  0.29820845521E+02  0.00000000000E+00 0. -1.
        -12    1    3    3    0    0 -0.17133889200E+02  0.57326471477E+02 -0.12643912481E+02  0.61153601807E+02  0.00000000000E+00 0.  1.
        -13    1    4    4    0    0  0.25003888635E+02  0.64705450578E+01 -0.21046872606E+02  0.33317161445E+02  0.00000000000E+00 0. -1.
         13    1    4    4    0    0 -0.32988235814E+02 -0.81691320013E+02 -0.87792662850E+01  0.88536834053E+02  0.00000000000E+00 0.  1.
         -3    1    1    2    0  502 -0.37198977189E+01  0.25050372970E+02 -0.89782457204E+01  0.26869457032E+02  0.00000000000E+00 0.  1.
<scales pt_clust_5="13000.00000" pt_clust_6="13000.00000" pt_clust_7="13000.00000" pt_clust_8="13000.00000" pt_clust_9="25.32508"></scales>
<clustering>
<clus scale="   25.325">  1  9  2 -1</clus>
<clus scale="   73.429">  5  6 -1 -1</clus>
<clus scale="   90.757">  7  8 -1 -1</clus>
<clus scale="   96.294">  2  5  1 -1</clus>
<clus scale="   25.325">  1  5  2 -1</clus>
</clustering>
</event>
<event>
 9    1  0.3197504E-005  0.2442914E+03  0.7546771E-02  0.1117485E+00
          1   -1    0    0  502    0 -0.00000000000E+00  0.00000000000E+00  0.18835901110E+04  0.18835901110E+04  0.00000000000E+00 0. -1.
         21   -1    0    0  501  502  0.00000000000E+00 -0.00000000000E+00 -0.68170053604E+02  0.68170053604E+02  0.00000000000E+00 0. -1.
        -24    2    1    2    0    0  0.15027297807E+03 -0.19201764730E+03  0.14407286642E+04  0.14633936322E+04  0.79806604084E+02 0.  0.
         23    2    1    2    0    0 -0.15668946278E+03  0.10867499310E+03  0.33557866382E+03  0.39607907454E+03  0.88903047246E+02 0.  0.
         13    1    3    3    0    0  0.98397541703E+02 -0.13431978156E+03  0.74657073305E+03  0.76491289659E+03  0.00000000000E+00 0. -1.
        -14    1    3    3    0    0  0.51875436371E+02 -0.57697865738E+02  0.69415793114E+03  0.69848073558E+03  0.00000000000E+00 0.  1.
        -11    1    4    4    0    0 -0.71568295344E+02  0.97198044060E+02  0.23199604530E+03  0.26151796440E+03  0.00000000000E+00 0.  1.
         11    1    4    4    0    0 -0.85121167432E+02  0.11476949038E+02  0.10358261852E+03  0.13456111015E+03  0.00000000000E+00 0. -1.
          2    1    1    2  501    0  0.64164847026E+01  0.83342654199E+02  0.39112729402E+02  0.92287457903E+02  0.00000000000E+00 0. -1.
<scales pt_clust_5="13000.00000" pt_clust_6="13000.00000" pt_clust_7="13000.00000" pt_clust_8="13000.00000" pt_clust_9="83.58929"></scales>
<clustering>
<clus scale="   79.807">  5  6 -1 -1</clus>
<clus scale="   83.589">  2  9  1 -1</clus>
<clus scale="   88.903">  7  8 -1 -1</clus>
<clus scale="  241.130">  1  5  2 -1</clus>
<clus scale="   83.589">  2  5  1 -1</clus>
</clustering>
</event>
<event>
 9    1  0.3197504E-005  0.1183572E+03  0.7546771E-02  0.1248163E+00
          1   -1    0    0  502    0 -0.00000000000E+00  0.00000000000E+00  0.62867716504E+03  0.62867716504E+03  0.00000000000E+00 0. -1.
         21   -1    0    0  501  502  0.00000000000E+00 -0.00000000000E+00 -0.60646995534E+02  0.60646995534E+02  0.00000000000E+00 0. -1.
        -24    2    1    2    0    0 -0.76711894352E+02 -0.24509284000E+02  0.19487066319E+03  0.22717014699E+03  0.84535676344E+02 0.  0.
         23    2    1    2    0    0  0.24627161844E+02  0.86971425098E+02  0.66478783889E+02  0.14487274414E+03  0.91641461155E+02 0.  0.
         11    1    3    3    0    0 -0.93333383061E+02 -0.27478483444E+02  0.14585546707E+03  0.17532827701E+03  0.00000000000E+00 0. -1.
        -12    1    3    3    0    0  0.16621488709E+02  0.29691994437E+01  0.49015196122E+02  0.51841869981E+02  0.00000000000E+00 0.  1.
        -13    1    4    4    0    0  0.28119658443E+02  0.42392797109E+02 -0.14038299353E+02  0.52772514498E+02  0.00000000000E+00 0. -1.
         13    1    4    4    0    0 -0.34924965990E+01  0.44578627989E+02  0.80517083242E+02  0.92100229640E+02  0.00000000000E+00 0.  1.
          2    1    1    2  501    0  0.52084732508E+02 -0.62462141098E+02  0.30668072243E+03  0.31728126945E+03  0.00000000000E+00 0. -1.
<scales pt_clust_5="13000.00000" pt_clust_6="13000.00000" pt_clust_7="13000.00000" pt_clust_8="13000.00000" pt_clust_9="81.32862"></scales>
<clustering>
<clus scale="   81.329">  2  9  1 -1</clus>
<clus scale="   84.536">  5  6 -1 -1</clus>
<clus scale="   91.641">  7  8 -1 -1</clus>
<clus scale="  112.945">  1  5  2 -1</clus>
<clus scale="   81.329">  2  5  1 -1</clus>
</clustering>
</event>
<event>
 9    1  0.3197504E-005  0.8921777E+02  0.7546771E-02  0.1309819E+00
          1   -1    0    0  502    0 -0.00000000000E+00  0.00000000000E+00  0.41805566588E+03  0.41805566588E+03  0.00000000000E+00 0. -1.
         21   -1    0    0  501  502  0.00000000000E+00 -0.00000000000E+00 -0.57209027323E+02  0.57209027323E+02  0.00000000000E+00 0. -1.
        -24    2    1    2    0    0  0.35948191965E+02  0.79379004000E+01  0.62033312492E+02  0.10863680410E+03  0.81231401431E+02 0.  0.
         23    2    1    2    0    0  0.34752548022E+02  0.68316330142E+01  0.51206793272E+02  0.10870206869E+03  0.89104395273E+02 0.  0.
         13    1    3    3    0    0  0.36174930062E+02 -0.19838920170E+02  0.68638969570E+02  0.80084433332E+02  0.00000000000E+00 0. -1.
        -14    1    3    3    0    0 -0.22673809767E+00  0.27776820570E+02 -0.66056570779E+01  0.28552370769E+02  0.00000000000E+00 0.  1.
        -13    1    4    4    0    0 -0.29868569635E+02  0.21332850268E+01  0.85946964709E+01  0.31153670160E+02  0.00000000000E+00 0.  1.
         13    1    4    4    0    0  0.64621117657E+02  0.46983479874E+01  0.42612096801E+02  0.77548398532E+02  0.00000000000E+00 0. -1.
          2    1    1    2  501    0 -0.70700739986E+02 -0.14769533414E+02  0.24760653280E+03  0.25792582041E+03  0.00000000000E+00 0. -1.
<scales pt_clust_5="13000.00000" pt_clust_6="13000.00000" pt_clust_7="13000.00000" pt_clust_8="13000.00000" pt_clust_9="72.22700"></scales>
<clustering>
<clus scale="   72.227">  2  9  1 -1</clus>
<clus scale="   81.231">  5  6 -1 -1</clus>
<clus scale="   81.356">  1  5  2 -1</clus>
<clus scale="   89.104">  7  8 -1 -1</clus>
<clus scale="   72.227">  2  5  1 -1</clus>
</clustering>
</event>
<event>
 9    1  0.3197504E-005  0.1198534E+03  0.7546771E-02  0.1260353E+00
         21   -1    0    0  501  502  0.00000000000E+00  0.00000000000E+00  0.55636397086E+02  0.55636397086E+02  0.00000000000E+00 0.  1.
         -2   -1    0    0    0  501 -0.00000000000E+00 -0.00000000000E+00 -0.26088114937E+03  0.26088114937E+03  0.00000000000E+00 0.  1.
        -24    2    1    2    0    0  0.17003384614E+02  0.26693922734E+02 -0.93991695407E+02  0.12909342972E+03  0.82637728624E+02 0.  0.
         23    2    1    2    0    0 -0.67753854280E+01  0.15865697342E+01 -0.73306998658E+02  0.13900612880E+03  0.11789980806E+03 0.  0.
         13    1    3    3    0    0 -0.15615718527E+01 -0.29376969601E+02 -0.30421883161E+02  0.42319449721E+02  0.00000000000E+00 0. -1.
        -14    1    3    3    0    0  0.18564956466E+02  0.56070892336E+02 -0.63569812246E+02  0.86773979999E+02  0.00000000000E+00 0.  1.
        -11    1    4    4    0    0  0.31007118075E+02 -0.45039468762E+02 -0.51614299906E+02  0.75193291406E+02  0.00000000000E+00 0.  1.
         11    1    4    4    0    0 -0.37782503503E+02  0.46626038496E+02 -0.21692698752E+02  0.63812837391E+02  0.00000000000E+00 0. -1.
         -1    1    1    2    0  502 -0.10227999186E+02 -0.28280492468E+02 -0.37946058214E+02  0.48417987934E+02  0.00000000000E+00 0.  1.
<scales pt_clust_5="13000.00000" pt_clust_6="13000.00000" pt_clust_7="13000.00000" pt_clust_8="13000.00000" pt_clust_9="30.07323"></scales>
<clustering>
<clus scale="   30.073">  1  9  2 -1</clus>
<clus scale="   82.638">  5  6 -1 -1</clus>
<clus scale="   85.402">  2  5  1 -1</clus>
<clus scale="  117.900">  7  8 -1 -1</clus>
<clus scale="   30.073">  1  5  2 -1</clus>
</clustering>
</event>
<event>
 9    1  0.3197504E-005  0.1001824E+03  0.7546771E-02  0.1285228E+00
          3   -1    0    0  502    0 -0.00000000000E+00  0.00000000000E+00  0.10623207070E+03  0.10623207070E+03  0.00000000000E+00 0. -1.
         21   -1    0    0  501  502  0.00000000000E+00 -0.00000000000E+00 -0.25785195743E+03  0.25785195743E+03  0.00000000000E+00 0.  1.
        -24    2    1    2    0    0 -0.91008038601E+01 -0.43657162281E+02  0.49992752663E+02  0.10526952594E+03  0.81201141148E+02 0.  0.
         23    2    1    2    0    0  0.10396160718E+02  0.42985760729E+01 -0.19889398975E+03  0.21934087411E+03  0.91788027440E+02 0.  0.
         13    1    3    3    0    0  0.24055739544E+02 -0.32979488238E+02  0.56630480662E+02  0.69809287272E+02  0.00000000000E+00 0. -1.
        -14    1    3    3    0    0 -0.33156543404E+02 -0.10677674044E+02 -0.66377279998E+01  0.35460238669E+02  0.00000000000E+00 0.  1.
        -11    1    4    4    0    0  0.38479958196E+02  0.15294219009E+02 -0.39871050474E+02  0.57483223499E+02  0.00000000000E+00 0. -1.
         11    1    4    4    0    0 -0.28083797478E+02 -0.10995642936E+02 -0.15902293928E+03  0.16185765061E+03  0.00000000000E+00 0.  1.
          4    1    1    2  501    0 -0.12953568581E+01  0.39358586208E+02 -0.27186496327E+01  0.39473628077E+02  0.00000000000E+00 0. -1.
<scales pt_clust_5="13000.00000" pt_clust_6="13000.00000" pt_clust_7="13000.00000" pt_clust_8="13000.00000" pt_clust_9="39.37992"></scales>
<clustering>
<clus scale="   39.380">  2  9  1 -1</clus>
<clus scale="   81.201">  5  6 -1 -1</clus>
<clus scale="   90.582">  1  5  2 -1</clus>
<clus scale="   91.788">  7  8 -1 -1</clus>
<clus scale="   39.380">  2  5  1 -1</clus>
</clustering>
</event>
<event>
 9    1  0.3197504E-005  0.2805729E+03  0.7546771E-02  0.1095817E+00
         21   -1    0    0  501  502  0.00000000000E+00  0.00000000000E+00  0.17637739711E+04  0.17637739711E+04  0.00000000000E+00 0.  1.
         -4   -1    0    0    0  501 -0.00000000000E+00 -0.00000000000E+00 -0.82443686358E+02  0.82443686358E+02  0.00000000000E+00 0.  1.
        -24    2    1    2    0    0 -0.28138977216E+03  0.21877034426E+02  0.69359453606E+03  0.75320546218E+03  0.81155894949E+02 0.  0.
         23    2    1    2    0    0  0.24147730920E+03 -0.86710658197E+00  0.10101545430E+04  0.10426433149E+04  0.91546920732E+02 0.  0.
         11    1    3    3    0    0 -0.96367193310E+02  0.23814463341E+00  0.14729485241E+03  0.17601836895E+03  0.00000000000E+00 0. -1.
        -12    1    3    3    0    0 -0.18502257885E+03  0.21638889793E+02  0.54629968365E+03  0.57718709323E+03  0.00000000000E+00 0.  1.
        -11    1    4    4    0    0  0.12024510873E+03 -0.45894768739E+02  0.52536189638E+03  0.54089771504E+03  0.00000000000E+00 0.  1.
         11    1    4    4    0    0  0.12123220048E+03  0.45027662157E+02  0.48479264661E+03  0.50174559988E+03  0.00000000000E+00 0. -1.
         -3    1    1    2    0  502  0.39912462959E+02 -0.21009927844E+02 -0.22418794328E+02  0.50368880339E+02  0.00000000000E+00 0.  1.
<scales pt_clust_5="13000.00000" pt_clust_6="13000.00000" pt_clust_7="13000.00000" pt_clust_8="13000.00000" pt_clust_9="45.10459"></scales>
<clustering>
<clus scale="   45.105">  1  9  2 -1</clus>
<clus scale="   81.156">  5  6 -1 -1</clus>
<clus scale="   91.547">  7  8 -1 -1</clus>
<clus scale="  277.356">  2  5  1 -1</clus>
<clus scale="   45.105">  1  5  2 -1</clus>
</clustering>
</event>
<event>
 9    1  0.3197504E-005  0.9331558E+02  0.7546771E-02  0.1301155E+00
         -2   -1    0    0    0  501 -0.00000000000E+00  0.00000000000E+00  0.13865551721E+03  0.13865551721E+03  0.00000000000E+00 0.  1.
         21   -1    0    0  501  502  0.00000000000E+00 -0.00000000000E+00 -0.79803720526E+02  0.79803720526E+02  0.00000000000E+00 0. -1.
        -24    2    1    2    0    0  0.12349820600E+02 -0.17928345830E+02  0.52522959447E+02  0.99362983167E+02  0.81488634187E+02 0.  0.
         23    2    1    2    0    0  0.12593350985E+02  0.14777498988E+02  0.35471585545E+01  0.93801445208E+02  0.91701482125E+02 0.  0.
         13    1    3    3    0    0 -0.81812347146E+01  0.30230910232E+02  0.13689432523E+02  0.34179542093E+02  0.00000000000E+00 0. -1.
        -14    1    3    3    0    0  0.20531055314E+02 -0.48159256062E+02  0.38833526925E+02  0.65183441074E+02  0.00000000000E+00 0.  1.
        -11    1    4    4    0    0 -0.35100645812E+02 -0.13670540978E+01 -0.17478537135E+02  0.39235486918E+02  0.00000000000E+00 0. -1.
         11    1    4    4    0    0  0.47693996797E+02  0.16144553086E+02  0.21025695689E+02  0.54565958289E+02  0.00000000000E+00 0.  1.
         -1    1    1    2    0  502 -0.24943171585E+02  0.31508468417E+01  0.27816786863E+01  0.25294809366E+02  0.00000000000E+00 0.  1.
<scales pt_clust_5="13000.00000" pt_clust_6="13000.00000" pt_clust_7="13000.00000" pt_clust_8="13000.00000" pt_clust_9="25.14139"></scales>
<clustering>
<clus scale="   25.141">  2  9  1 -1</clus>
<clus scale="   81.489">  5  6 -1 -1</clus>
<clus scale="   83.301">  1  5  2 -1</clus>
<clus scale="   91.701">  7  8 -1 -1</clus>
<clus scale="   25.141">  2  5  1 -1</clus>
</clustering>
</event>
<event>
 9    1  0.3197504E-005  0.1007591E+03  0.7546771E-02  0.1281876E+00
          1   -1    0    0  502    0 -0.00000000000E+00  0.00000000000E+00  0.19499224816E+03  0.19499224816E+03  0.00000000000E+00 0. -1.
         21   -1    0    0  501  502  0.00000000000E+00 -0.00000000000E+00 -0.18975209221E+03  0.18975209221E+03  0.00000000000E+00 0. -1.
        -24    2    1    2    0    0 -0.45490915166E+02  0.95022495453E+00  0.15391959951E+03  0.18135300859E+03  0.84423600497E+02 0.  0.
         23    2    1    2    0    0  0.28881637995E+02  0.11658772221E+02 -0.62445581718E+02  0.11467192113E+03  0.90995180295E+02 0.  0.
         11    1    3    3    0    0 -0.36562392480E+02  0.37792214145E+02  0.11774845318E+03  0.12895641984E+03  0.00000000000E+00 0. -1.
        -12    1    3    3    0    0 -0.89285226861E+01 -0.36841989190E+02  0.36171146330E+02  0.52396588741E+02  0.00000000000E+00 0.  1.
        -11    1    4    4    0    0  0.34551356140E+02  0.32855769710E+02 -0.75385850027E+02  0.89198229796E+02  0.00000000000E+00 0.  1.
         11    1    4    4    0    0 -0.56697181445E+01 -0.21196997489E+02  0.12940268309E+02  0.25473691336E+02  0.00000000000E+00 0. -1.
          2    1    1    2  501    0  0.16609277170E+02 -0.12608997176E+02 -0.86233861846E+02  0.88719410653E+02  0.00000000000E+00 0. -1.
<scales pt_clust_5="13000.00000" pt_clust_6="13000.00000" pt_clust_7="13000.00000" pt_clust_8="13000.00000" pt_clust_9="20.85317"></scales>
<clustering>
<clus scale="   20.853">  2  9  1 -1</clus>
<clus scale="   84.424">  5  6 -1 -1</clus>
<clus scale="   90.995">  7  8 -1 -1</clus>
<clus scale="   94.866">  1  5  2 -1</clus>
<clus scale="   20.853">  2  5  1 -1</clus>
</clustering>
</event>
<event>
 9    1  0.3197504E-005  0.2144271E+03  0.7546771E-02  0.1166858E+00
         21   -1    0    0  501  502  0.00000000000E+00  0.00000000000E+00  0.20637273225E+03  0.20637273225E+03  0.00000000000E+00 0. -1.
          1   -1    0    0  502    0 -0.00000000000E+00 -0.00000000000E+00 -0.39564002985E+03  0.39564002985E+03  0.00000000000E+00 0. -1.
        -24    2    1    2    0    0 -0.14347009803E+02  0.71886281734E+02  0.39273656192E+02  0.11568473268E+03  0.80418052152E+02 0.  0.
         23    2    1    2    0    0 -0.17736448761E+03  0.78930613352E+01 -0.18978092371E+03  0.27509265892E+03  0.90214799800E+02 0.  0.
         11    1    3    3    0    0  0.15004406845E+02  0.16194846083E+02 -0.19577675996E+02  0.29507467899E+02  0.00000000000E+00 0. -1.
        -12    1    3    3    0    0 -0.29351416648E+02  0.55691435651E+02  0.58851332188E+02  0.86177264777E+02  0.00000000000E+00 0.  1.
        -13    1    4    4    0    0 -0.14746958141E+02  0.22908740102E+02 -0.62037465644E+02  0.67756404059E+02  0.00000000000E+00 0.  1.
         13    1    4    4    0    0 -0.16261752947E+03 -0.15015678767E+02 -0.12774345807E+03  0.20733625486E+03  0.00000000000E+00 0. -1.
          2    1    1    2  501    0  0.19171149741E+03 -0.79779343069E+02 -0.38760030077E+02  0.21123537050E+03  0.00000000000E+00 0. -1.
<scales pt_clust_5="13000.00000" pt_clust_6="13000.00000" pt_clust_7="13000.00000" pt_clust_8="13000.00000" pt_clust_9="194.52579"></scales>
<clustering>
<clus scale="   80.418">  5  6 -1 -1</clus>
<clus scale="   90.215">  7  8 -1 -1</clus>
<clus scale="  108.814">  2  5  1 -1</clus>
<clus scale="  194.526">  1  9  2 -1</clus>
<clus scale="  194.526">  1  5  2 -1</clus>
</clustering>
</event>
<event>
 9    1  0.3197504E-005  0.9049138E+02  0.7546771E-02  0.1306139E+00
         -2   -1    0    0    0  501 -0.00000000000E+00  0.00000000000E+00  0.31723157516E+03  0.31723157516E+03  0.00000000000E+00 0.  1.
         21   -1    0    0  501  502  0.00000000000E+00 -0.00000000000E+00 -0.12329065537E+03  0.12329065537E+03  0.00000000000E+00 0.  1.
        -24    2    1    2    0    0 -0.10151384470E+02 -0.71534521971E+01  0.25066123505E+03  0.26430654583E+03  0.82901585795E+02 0.  0.
         23    2    1    2    0    0 -0.91041285352E+01 -0.39074642743E+01  0.22987222872E+02  0.93472646987E+02  0.90058702445E+02 0.  0.
         13    1    3    3    0    0  0.23159989741E+02 -0.28557654782E+02  0.67003057795E+02  0.76428623730E+02  0.00000000000E+00 0. -1.
        -14    1    3    3    0    0 -0.33311374211E+02  0.21404202585E+02  0.18365817726E+03  0.18787792210E+03  0.00000000000E+00 0.  1.
        -13    1    4    4    0    0 -0.35037244265E+02 -0.14523296925E+02  0.44262200406E+02  0.58289596190E+02  0.00000000000E+00 0.  1.
         13    1    4    4    0    0  0.25933115730E+02  0.10615832650E+02 -0.21274977534E+02  0.35183050797E+02  0.00000000000E+00 0. -1.
         -1    1    1    2    0  502  0.19255513005E+02  0.11060916471E+02 -0.79707538129E+02  0.82743037706E+02  0.00000000000E+00 0.  1.
<scales pt_clust_5="13000.00000" pt_clust_6="13000.00000" pt_clust_7="13000.00000" pt_clust_8="13000.00000" pt_clust_9="22.20628"></scales>
<clustering>
<clus scale="   22.206">  2  9  1 -1</clus>
<clus scale="   82.902">  5  6 -1 -1</clus>
<clus scale="   83.371">  1  5  2 -1</clus>
<clus scale="   90.059">  7  8 -1 -1</clus>
<clus scale="   22.206">  2  5  1 -1</clus>
</clustering>
</event>
<event>
 9    1  0.3197504E-005  0.1240047E+03  0.7546771E-02  0.1240176E+00
         21   -1    0    0  501  502  0.00000000000E+00  0.00000000000E+00  0.37047909224E+03  0.37047909224E+03  0.00000000000E+00 0. -1.
          1   -1    0    0  502    0 -0.00000000000E+00 -0.00000000000E+00 -0.16332219332E+03  0.16332219332E+03  0.00000000000E+00 0. -1.
         23    2    1    2    0    0 -0.92007616617E+02 -0.25379110702E+02 -0.79924712528E+02  0.15480925107E+03  0.92024147743E+02 0.  0.
        -24    2    1    2    0    0  0.53195512195E+02  0.39518018408E+02  0.16402963422E+02  0.10517965592E+03  0.80014164455E+02 0.  0.
         13    1    4    4    0    0 -0.15780652463E+02  0.29286580690E+02  0.11795132259E+02  0.35296712958E+02  0.00000000000E+00 0. -1.
        -14    1    4    4    0    0  0.68976164658E+02  0.10231437718E+02  0.46078311635E+01  0.69882942960E+02  0.00000000000E+00 0.  1.
        -13    1    3    3    0    0 -0.45046434213E+02 -0.59357536737E+02 -0.41931821082E+02  0.85503076098E+02  0.00000000000E+00 0.  1.
         13    1    3    3    0    0 -0.46961182404E+02  0.33978426035E+02 -0.37992891446E+02  0.69306174970E+02  0.00000000000E+00 0. -1.
          2    1    1    2  501    0  0.38812104422E+02 -0.14138907706E+02  0.27067864803E+03  0.27381237857E+03  0.00000000000E+00 0. -1.
<scales pt_clust_5="13000.00000" pt_clust_6="13000.00000" pt_clust_7="13000.00000" pt_clust_8="13000.00000" pt_clust_9="41.30724"></scales>
<clustering>
<clus scale="   41.307">  1  9  2 -1</clus>
<clus scale="   80.014">  5  6 -1 -1</clus>
<clus scale="   92.024">  7  8 -1 -1</clus>
<clus scale="  115.373">  1  5  2 -1</clus>
<clus scale="   41.307">  1  5  2 -1</clus>
</clustering>
</event>
<event>
 9    1  0.3197504E-005  0.1016393E+03  0.7546771E-02  0.1284030E+00
         21   -1    0    0  501  502  0.00000000000E+00  0.00000000000E+00  0.31794473391E+03  0.31794473391E+03  0.00000000000E+00 0. -1.
          1   -1    0    0  502    0 -0.00000000000E+00 -0.00000000000E+00 -0.79721505667E+02  0.79721505667E+02  0.00000000000E+00 0. -1.
         23    2    1    2    0    0  0.13379307076E+02 -0.31380198476E+02  0.12300081875E+01  0.99864034946E+02  0.93848760468E+02 0.  0.
        -24    2    1    2    0    0 -0.74097332761E+02  0.73411048091E+01  0.10943411029E+03  0.15449873939E+03  0.79685189556E+02 0.  0.
         13    1    4    4    0    0 -0.55512597388E+02  0.41305317739E+02  0.59105788379E+02  0.91001494286E+02  0.00000000000E+00 0. -1.
        -14    1    4    4    0    0 -0.18584735373E+02 -0.33964212930E+02  0.50328321912E+02  0.63497245101E+02  0.00000000000E+00 0.  1.
        -13    1    3    3    0    0  0.44404774075E+01  0.22753316432E+02  0.29998842320E+02  0.37912554501E+02  0.00000000000E+00 0.  1.
         13    1    3    3    0    0  0.89388296685E+01 -0.54133514907E+02 -0.28768834132E+02  0.61951480445E+02  0.00000000000E+00 0. -1.
          2    1    1    2  501    0  0.60718025685E+02  0.24039093667E+02  0.12755910976E+03  0.14330346525E+03  0.00000000000E+00 0. -1.
<scales pt_clust_5="13000.00000" pt_clust_6="13000.00000" pt_clust_7="13000.00000" pt_clust_8="13000.00000" pt_clust_9="65.30357"></scales>
<clustering>
<clus scale="   65.304">  1  9  2 -1</clus>
<clus scale="   79.685">  5  6 -1 -1</clus>
<clus scale="   88.728">  1  5  2 -1</clus>
<clus scale="   93.849">  7  8 -1 -1</clus>
<clus scale="   65.304">  1  5  2 -1</clus>
</clustering>
</event>
<event>
 9    1  0.3197504E-005  0.2395164E+03  0.7546771E-02  0.1121415E+00
          1   -1    0    0  502    0 -0.00000000000E+00  0.00000000000E+00  0.11795629728E+04  0.11795629728E+04  0.00000000000E+00 0. -1.
         21   -1    0    0  501  502  0.00000000000E+00 -0.00000000000E+00 -0.98264232619E+02  0.98264232619E+02  0.00000000000E+00 0. -1.
        -24    2    1    2    0    0  0.31389754542E+02  0.23150796811E+03  0.67079401267E+03  0.71492667643E+03  0.81081990892E+02 0.  0.
         23    2    1    2    0    0 -0.40674822923E+02 -0.19411196304E+03  0.45350934641E+03  0.50515911467E+03  0.10090147888E+03 0.  0.
         13    1    3    3    0    0  0.42987885312E+02  0.11781098809E+03  0.43787088516E+03  0.45547590416E+03  0.00000000000E+00 0. -1.
        -14    1    3    3    0    0 -0.11598130770E+02  0.11369698002E+03  0.23292312752E+03  0.25945077227E+03  0.00000000000E+00 0.  1.
        -13    1    4    4    0    0  0.20831262245E+02 -0.23102138027E+02  0.13417018579E+03  0.13772904205E+03  0.00000000000E+00 0.  1.
         13    1    4    4    0    0 -0.61506085168E+02 -0.17100982501E+03  0.31933916062E+03  0.36743007262E+03  0.00000000000E+00 0. -1.
          2    1    1    2  501    0  0.92850683812E+01 -0.37396005067E+02 -0.43004618855E+02  0.57741414363E+02  0.00000000000E+00 0. -1.
<scales pt_clust_5="13000.00000" pt_clust_6="13000.00000" pt_clust_7="13000.00000" pt_clust_8="13000.00000" pt_clust_9="38.53146"></scales>
<clustering>
<clus scale="   38.531">  2  9  1 -1</clus>
<clus scale="   81.082">  5  6 -1 -1</clus>
<clus scale="  100.901">  7  8 -1 -1</clus>
<clus scale="  231.865">  1  5  2 -1</clus>
<clus scale="   38.531">  2  5  1 -1</clus>
</clustering>
</event>
<event>
 9    1  0.3197504E-005  0.1034798E+03  0.7546771E-02  0.1282323E+00
         -4   -1    0    0    0  501 -0.00000000000E+00  0.00000000000E+00  0.63286115757E+02  0.63286115757E+02  0.00000000000E+00 0.  1.
         21   -1    0    0  501  502  0.00000000000E+00 -0.00000000000E+00 -0.21992099838E+03  0.21992099838E+03  0.00000000000E+00 0.  1.
         23    2    1    2    0    0 -0.49235935081E+02  0.11038291149E+02 -0.52710972205E+02  0.12225678802E+03  0.98093090747E+02 0.  0.
        -24    2    1    2    0    0  0.12047297807E+02 -0.23527857092E+01 -0.87365395649E+02  0.11932560800E+03  0.80344355011E+02 0.  0.
         13    1    4    4    0    0 -0.17327489927E+01  0.29546777442E+02 -0.51151049720E+01  0.30036290969E+02  0.00000000000E+00 0. -1.
        -14    1    4    4    0    0  0.13780046800E+02 -0.31899563151E+02 -0.82250290677E+02  0.89289317029E+02  0.00000000000E+00 0.  1.
        -13    1    3    3    0    0 -0.27567781110E+02 -0.36383982310E+02 -0.53221276111E+02  0.70116196096E+02  0.00000000000E+00 0. -1.
         13    1    3    3    0    0 -0.21668153971E+02  0.47422273459E+02  0.51030390608E+00  0.52140591928E+02  0.00000000000E+00 0.  1.
         -3    1    1    2    0  502  0.37188637274E+02 -0.86855054399E+01 -0.16558514773E+02  0.41624718119E+02  0.00000000000E+00 0.  1.
<scales pt_clust_5="13000.00000" pt_clust_6="13000.00000" pt_clust_7="13000.00000" pt_clust_8="13000.00000" pt_clust_9="38.18945"></scales>
<clustering>
<clus scale="   38.189">  2  9  1 -1</clus>
<clus scale="   80.344">  5  6 -1 -1</clus>
<clus scale="   86.839">  2  5  1 -1</clus>
<clus scale="   98.093">  7  8 -1 -1</clus>
<clus scale="   38.189">  2  5  1 -1</clus>
</clustering>
</event>
<event>
 9    1  0.3197504E-005  0.9074865E+02  0.7546771E-02  0.1306470E+00
          1   -1    0    0  502    0 -0.00000000000E+00  0.00000000000E+00  0.12721596625E+03  0.12721596625E+03  0.00000000000E+00 0. -1.
         21   -1    0    0  501  502  0.00000000000E+00 -0.00000000000E+00 -0.26434438999E+03  0.26434438999E+03  0.00000000000E+00 0. -1.
         23    2    1    2    0    0 -0.11245846648E+01 -0.13751467497E+02  0.94097060321E+02  0.13062094953E+03  0.89538863883E+02 0.  0.
        -24    2    1    2    0    0  0.31627006752E+02  0.19928157488E+02 -0.18342726433E+03  0.20390240940E+03  0.80828412357E+02 0.  0.
         11    1    4    4    0    0  0.46723148282E+02 -0.56620455816E+01 -0.15778891492E+03  0.16465859533E+03  0.00000000000E+00 0. -1.
        -12    1    4    4    0    0 -0.15096141530E+02  0.25590203070E+02 -0.25638349406E+02  0.39243814066E+02  0.00000000000E+00 0.  1.
        -13    1    3    3    0    0 -0.12212771736E+02  0.35078742375E+02  0.58072641313E+02  0.68935488895E+02  0.00000000000E+00 0.  1.
         13    1    3    3    0    0  0.11088187071E+02 -0.48830209871E+02  0.36024419008E+02  0.61685460632E+02  0.00000000000E+00 0. -1.
          2    1    1    2  501    0 -0.30502422087E+02 -0.61766899918E+01 -0.47798219737E+02  0.57036997313E+02  0.00000000000E+00 0. -1.
<scales pt_clust_5="13000.00000" pt_clust_6="13000.00000" pt_clust_7="13000.00000" pt_clust_8="13000.00000" pt_clust_9="31.12152"></scales>
<clustering>
<clus scale="   31.122">  2  9  1 -1</clus>
<clus scale="   80.828">  5  6 -1 -1</clus>
<clus scale="   82.167">  2  5  1 -1</clus>
<clus scale="   89.539">  7  8 -1 -1</clus>
<clus scale="   31.122">  2  5  1 -1</clus>
</clustering>
</event>
<event>
 9    1  0.3197504E-005  0.2338115E+03  0.7546771E-02  0.1156511E+00
          1   -1    0    0  502    0 -0.00000000000E+00  0.00000000000E+00  0.45201534123E+03  0.45201534123E+03  0.00000000000E+00 0. -1.
         21   -1    0    0  501  502  0.00000000000E+00 -0.00000000000E+00 -0.31130712436E+03  0.31130712436E+03  0.00000000000E+00 0. -1.
        -24    2    1    2    0    0  0.39122683032E+02  0.56562526259E+02  0.17345539520E+02  0.10811539775E+03  0.81597596685E+02 0.  0.
         23    2    1    2    0    0  0.17413999491E+03  0.61378205029E+01  0.30850875588E+03  0.36591245385E+03  0.91388515466E+02 0.  0.
         13    1    3    3    0    0  0.55729377730E+02  0.29916492536E+02  0.34799734944E+02  0.72192670127E+02  0.00000000000E+00 0. -1.
        -14    1    3    3    0    0 -0.16606694698E+02  0.26646033723E+02 -0.17454195424E+02  0.35922727623E+02  0.00000000000E+00 0.  1.
        -13    1    4    4    0    0  0.56317014245E+02 -0.36909122386E+02  0.74622498877E+02  0.10051072951E+03  0.00000000000E+00 0.  1.
         13    1    4    4    0    0  0.11782298066E+03  0.43046942889E+02  0.23388625701E+03  0.26540172434E+03  0.00000000000E+00 0. -1.
          2    1    1    2  501    0 -0.21326267794E+03 -0.62700346762E+02 -0.18514607854E+03  0.28929461399E+03  0.00000000000E+00 0. -1.
<scales pt_clust_5="13000.00000" pt_clust_6="13000.00000" pt_clust_7="13000.00000" pt_clust_8="13000.00000" pt_clust_9="215.21138"></scales>
<clustering>
<clus scale="   81.598">  5  6 -1 -1</clus>
<clus scale="   91.389">  7  8 -1 -1</clus>
<clus scale="  106.715">  1  5  2 -1</clus>
<clus scale="  215.211">  2  9  1 -1</clus>
<clus scale="  215.211">  2  5  1 -1</clus>
</clustering>
</event>
<event>
 9    1  0.3197504E-005  0.1632115E+03  0.7546771E-02  0.1210690E+00
         -2   -1    0    0    0  501 -0.00000000000E+00  0.00000000000E+00  0.39379176757E+03  0.39379176757E+03  0.00000000000E+00 0.  1.
         21   -1    0    0  501  502  0.00000000000E+00 -0.00000000000E+00 -0.94593720117E+02  0.94593720117E+02  0.00000000000E+00 0.  1.
        -24    2    1    2    0    0  0.30401485252E+02  0.30540587369E+02  0.12321197256E+03  0.15465085105E+03  0.82938035704E+02 0.  0.
         23    2    1    2    0    0 -0.71476407653E+02  0.77489964259E+02  0.66499319781E+02  0.17453319543E+03  0.12217244110E+03 0.  0.
         13    1    3    3    0    0 -0.12044397780E+02  0.44718246013E+02  0.80023591202E+02  0.92458445765E+02  0.00000000000E+00 0. -1.
        -14    1    3    3    0    0  0.42445883032E+02 -0.14177658644E+02  0.43188381356E+02  0.62192405285E+02  0.00000000000E+00 0.  1.
        -11    1    4    4    0    0 -0.26953751492E+02  0.27960106279E+02 -0.35565879099E+02  0.52661219305E+02  0.00000000000E+00 0. -1.
         11    1    4    4    0    0 -0.44522656162E+02  0.49529857981E+02  0.10206519888E+03  0.12187197613E+03  0.00000000000E+00 0.  1.
         -1    1    1    2    0  502  0.41074922402E+02 -0.10803055163E+03  0.10948675511E+03  0.15920144120E+03  0.00000000000E+00 0.  1.
<scales pt_clust_5="13000.00000" pt_clust_6="13000.00000" pt_clust_7="13000.00000" pt_clust_8="13000.00000" pt_clust_9="108.22159"></scales>
<clustering>
<clus scale="   82.938">  5  6 -1 -1</clus>
<clus scale="   93.465">  1  5  2 -1</clus>
<clus scale="  108.222">  2  9  1 -1</clus>
<clus scale="  122.172">  7  8 -1 -1</clus>
<clus scale="  108.222">  2  5  1 -1</clus>
</clustering>
</event>
<event>
 9    1  0.3197504E-005  0.1655665E+03  0.7546771E-02  0.1184254E+00
         21   -1    0    0  501  502  0.00000000000E+00  0.00000000000E+00  0.10460672757E+04  0.10460672757E+04  0.00000000000E+00 0.  1.
          1   -1    0    0  502    0 -0.00000000000E+00 -0.00000000000E+00 -0.33050003460E+02  0.33050003460E+02  0.00000000000E+00 0. -1.
        -24    2    1    2    0    0  0.12082173920E+03  0.77029117610E+02  0.29253519975E+03  0.33537669941E+03  0.79807955681E+02 0.  0.
         23    2    1    2    0    0 -0.11207238816E+03 -0.58663030441E+02  0.68735176903E+03  0.70486280578E+03  0.91528953079E+02 0.  0.
         11    1    3    3    0    0  0.11365212191E+03  0.83073105438E+02  0.21316837600E+03  0.25545782859E+03  0.00000000000E+00 0. -1.
        -12    1    3    3    0    0  0.71696172954E+01 -0.60439878282E+01  0.79366823745E+02  0.79918870815E+02  0.00000000000E+00 0.  1.
        -13    1    4    4    0    0 -0.26476807326E+02 -0.64597470524E+02  0.33730294964E+03  0.34445193330E+03  0.00000000000E+00 0. -1.
         13    1    4    4    0    0 -0.85595580837E+02  0.59344400823E+01  0.35004881939E+03  0.36041087247E+03  0.00000000000E+00 0.  1.
          2    1    1    2  501    0 -0.87493510414E+01 -0.18366087168E+02  0.33130303445E+02  0.38877773957E+02  0.00000000000E+00 0. -1.
<scales pt_clust_5="13000.00000" pt_clust_6="13000.00000" pt_clust_7="13000.00000" pt_clust_8="13000.00000" pt_clust_9="20.34367"></scales>
<clustering>
<clus scale="   20.344">  1  9  2 -1</clus>
<clus scale="   79.808">  5  6 -1 -1</clus>
<clus scale="   91.529">  7  8 -1 -1</clus>
<clus scale="  159.386">  2  5  1 -1</clus>
<clus scale="   20.344">  1  5  2 -1</clus>
</clustering>
</event>
<event>
 9    1  0.3197504E-005  0.2524338E+03  0.7546771E-02  0.1112542E+00
         -2   -1    0    0    0  501 -0.00000000000E+00  0.00000000000E+00  0.20979065272E+04  0.20979065272E+04  0.00000000000E+00 0.  1.
         21   -1    0    0  501  502  0.00000000000E+00 -0.00000000000E+00 -0.77484422763E+02  0.77484422763E+02  0.00000000000E+00 0. -1.
        -24    2    1    2    0    0  0.23415612393E+03  0.28754725765E+02  0.17261876481E+04  0.17440561559E+04  0.79700399961E+02 0.  0.
         23    2    1    2    0    0 -0.22836091431E+03 -0.19201029523E+01  0.31259696181E+03  0.39830657815E+03  0.93695654544E+02 0.  0.
         13    1    3    3    0    0  0.43913273505E+02  0.20623095792E+02  0.18932498861E+03  0.19544216275E+03  0.00000000000E+00 0. -1.
        -14    1    3    3    0    0  0.19024285043E+03  0.81316299729E+01  0.15368626595E+04  0.15486139932E+04  0.00000000000E+00 0.  1.
        -11    1    4    4    0    0 -0.10754240924E+03 -0.42481465501E+02  0.18355652539E+03  0.21694018233E+03  0.00000000000E+00 0.  1.
         11    1    4    4    0    0 -0.12081850507E+03  0.40561362548E+02  0.12904043642E+03  0.18136639582E+03  0.00000000000E+00 0. -1.
         -1    1    1    2    0  502 -0.57952096211E+01 -0.26834622813E+02 -0.18362505524E+02  0.33028215894E+02  0.00000000000E+00 0.  1.
<scales pt_clust_5="13000.00000" pt_clust_6="13000.00000" pt_clust_7="13000.00000" pt_clust_8="13000.00000" pt_clust_9="27.45326"></scales>
<clustering>
<clus scale="   27.453">  2  9  1 -1</clus>
<clus scale="   79.700">  5  6 -1 -1</clus>
<clus scale="   93.696">  7  8 -1 -1</clus>
<clus scale="  247.580">  1  5  2 -1</clus>
<clus scale="   27.453">  2  5  1 -1</clus>
</clustering>
</event>
<event>
 9    1  0.4695816E-005  0.1640457E+03  0.7546771E-02  0.1213357E+00
          1   -1    0    0  502    0 -0.00000000000E+00  0.00000000000E+00  0.45229114637E+03  0.45229114637E+03  0.00000000000E+00 0. -1.
         21   -1    0    0  501  502  0.00000000000E+00 -0.00000000000E+00 -0.17403099867E+03  0.17403099867E+03  0.00000000000E+00 0. -1.
        -24    2    1    2    0    0  0.16057563202E+02  0.25576957073E+02  0.49929732396E+01  0.87110222005E+02  0.81555103623E+02 0.  0.
         23    2    1    2    0    0  0.26993201192E+02  0.10909927904E+03  0.35023192695E+03  0.37823170683E+03  0.88122277542E+02 0.  0.
         11    1    3    3    0    0 -0.30189029774E+02  0.26090582323E+02 -0.36224450934E+01  0.40065173319E+02  0.00000000000E+00 0. -1.
        -12    1    3    3    0    0  0.46246592976E+02 -0.51362525002E+00  0.86154183330E+01  0.47045048686E+02  0.00000000000E+00 0.  1.
        -11    1    4    4    0    0  0.16660952275E+02  0.20030953118E+02  0.12684546876E+02  0.28977994115E+02  0.00000000000E+00 0.  1.
         11    1    4    4    0    0  0.10332248917E+02  0.89068325919E+02  0.33754738007E+03  0.34925371271E+03  0.00000000000E+00 0. -1.
          2    1    1    2  501    0 -0.43050764394E+02 -0.13467623611E+03 -0.76964752482E+02  0.16098021621E+03  0.00000000000E+00 0. -1.
<scales pt_clust_5="13000.00000" pt_clust_6="13000.00000" pt_clust_7="13000.00000" pt_clust_8="13000.00000" pt_clust_9="138.36710"></scales>
<clustering>
<clus scale="   81.555">  5  6 -1 -1</clus>
<clus scale="   86.967">  1  5  2 -1</clus>
<clus scale="   88.122">  7  8 -1 -1</clus>
<clus scale="  138.367">  2  9  1 -1</clus>
<clus scale="  138.367">  2  5  1 -1</clus>
</clustering>
</event>
<event>
 9    1  0.3197504E-005  0.2647370E+03  0.7546771E-02  0.1121276E+00
          1   -1    0    0  502    0 -0.00000000000E+00  0.00000000000E+00  0.26222488247E+03  0.26222488247E+03  0.00000000000E+00 0. -1.
         21   -1    0    0  501  502  0.00000000000E+00 -0.00000000000E+00 -0.62457419418E+03  0.62457419418E+03  0.00000000000E+00 0.  1.
        -24    2    1    2    0    0 -0.15111534133E+02 -0.15134451528E+03  0.82324069699E+02  0.19096569165E+03  0.80976059215E+02 0.  0.
         23    2    1    2    0    0 -0.21150531455E+03  0.19530092629E+03 -0.28348602194E+03  0.41428636047E+03  0.91607390227E+02 0.  0.
         11    1    3    3    0    0  0.11768888576E+02 -0.14142034837E+03  0.57722673876E+02  0.15319963691E+03  0.00000000000E+00 0. -1.
        -12    1    3    3    0    0 -0.26880422709E+02 -0.99241669126E+01  0.24601395823E+02  0.37766054737E+02  0.00000000000E+00 0.  1.
        -13    1    4    4    0    0 -0.10396947864E+03  0.11475682240E+03 -0.91199007016E+02  0.17971098924E+03  0.00000000000E+00 0.  1.
         13    1    4    4    0    0 -0.10753583591E+03  0.80544103895E+02 -0.19228701493E+03  0.23457537123E+03  0.00000000000E+00 0. -1.
          2    1    1    2  501    0  0.22661684868E+03 -0.43956411010E+02 -0.16118735946E+03  0.28154702454E+03  0.00000000000E+00 0. -1.
<scales pt_clust_5="13000.00000" pt_clust_6="13000.00000" pt_clust_7="13000.00000" pt_clust_8="13000.00000" pt_clust_9="248.38227"></scales>
<clustering>
<clus scale="   80.976">  5  6 -1 -1</clus>
<clus scale="   91.607">  7  8 -1 -1</clus>
<clus scale="  172.310">  1  5  2 -1</clus>
<clus scale="  248.382">  2  9  1 -1</clus>
<clus scale="  248.382">  2  5  1 -1</clus>
</clustering>
</event>
<event>
 9    1  0.3197504E-005  0.9712023E+02  0.7546771E-02  0.1296402E+00
         21   -1    0    0  501  502  0.00000000000E+00  0.00000000000E+00  0.51395196331E+03  0.51395196331E+03  0.00000000000E+00 0.  1.
          1   -1    0    0  502    0 -0.00000000000E+00 -0.00000000000E+00 -0.61486370472E+02  0.61486370472E+02  0.00000000000E+00 0. -1.
         23    2    1    2    0    0 -0.79192832854E+01  0.28075859193E+01  0.20687777684E+02  0.99133944536E+02  0.96586527152E+02 0.  0.
        -24    2    1    2    0    0 -0.14258072783E+02  0.74655728713E+02  0.32010355281E+03  0.33859621554E+03  0.80027134062E+02 0.  0.
         11    1    4    4    0    0  0.28864675163E+02  0.16508403225E+02  0.59907271971E+02  0.68516991209E+02  0.00000000000E+00 0. -1.
        -12    1    4    4    0    0 -0.43122747946E+02  0.58147325488E+02  0.26019628084E+03  0.27007922433E+03  0.00000000000E+00 0.  1.
        -13    1    3    3    0    0  0.24813224823E+02  0.26396856828E+02 -0.20376345123E+02  0.41565437771E+02  0.00000000000E+00 0.  1.
         13    1    3    3    0    0 -0.32732508109E+02 -0.23589270909E+02  0.41064122808E+02  0.57568506764E+02  0.00000000000E+00 0. -1.
          2    1    1    2  501    0  0.22177356068E+02 -0.77463314632E+02  0.11167426235E+03  0.13770817371E+03  0.00000000000E+00 0. -1.
<scales pt_clust_5="13000.00000" pt_clust_6="13000.00000" pt_clust_7="13000.00000" pt_clust_8="13000.00000" pt_clust_9="80.57543"></scales>
<clustering>
<clus scale="   80.027">  5  6 -1 -1</clus>
<clus scale="   80.575">  1  9  2 -1</clus>
<clus scale="   80.670">  1  5  2 -1</clus>
<clus scale="   96.587">  7  8 -1 -1</clus>
<clus scale="   80.575">  1  5  2 -1</clus>
</clustering>
</event>
<event>
 9    1  0.3197504E-005  0.1812483E+03  0.7546771E-02  0.1195128E+00
          1   -1    0    0  502    0 -0.00000000000E+00  0.00000000000E+00  0.47837463289E+03  0.47837463289E+03  0.00000000000E+00 0. -1.
         21   -1    0    0  501  502  0.00000000000E+00 -0.00000000000E+00 -0.12589022283E+03  0.12589022283E+03  0.00000000000E+00 0. -1.
        -24    2    1    2    0    0 -0.46143273012E+02 -0.25806306009E+02  0.16970924679E+03  0.19475038388E+03  0.79569570189E+02 0.  0.
         23    2    1    2    0    0  0.94329388013E+02 -0.12631109201E+03  0.23256871084E+02  0.18388714637E+03  0.91766416181E+02 0.  0.
         11    1    3    3    0    0 -0.49277784116E+02 -0.35776595204E+02  0.17330921789E+03  0.18369635211E+03  0.00000000000E+00 0. -1.
        -12    1    3    3    0    0  0.31345111046E+01  0.99702891955E+01 -0.35999710976E+01  0.11054031772E+02  0.00000000000E+00 0.  1.
        -13    1    4    4    0    0  0.49560784316E+02 -0.12827275754E+03  0.15122462318E+02  0.13834327066E+03  0.00000000000E+00 0. -1.
         13    1    4    4    0    0  0.44768603697E+02  0.19616655334E+01  0.81344087665E+01  0.45543875709E+02  0.00000000000E+00 0.  1.
          2    1    1    2  501    0 -0.48186115001E+02  0.15211739802E+03  0.15951829218E+03  0.22562732547E+03  0.00000000000E+00 0. -1.
<scales pt_clust_5="13000.00000" pt_clust_6="13000.00000" pt_clust_7="13000.00000" pt_clust_8="13000.00000" pt_clust_9="156.30063"></scales>
<clustering>
<clus scale="   79.570">  5  6 -1 -1</clus>
<clus scale="   91.766">  7  8 -1 -1</clus>
<clus scale="   95.533">  1  5  2 -1</clus>
<clus scale="  156.301">  2  9  1 -1</clus>
<clus scale="  156.301">  2  5  1 -1</clus>
</clustering>
</event>
<event>
 9    1  0.3197504E-005  0.1146577E+03  0.7546771E-02  0.1255481E+00
         21   -1    0    0  501  502  0.00000000000E+00  0.00000000000E+00  0.67098238220E+02  0.67098238220E+02  0.00000000000E+00 0.  1.
          3   -1    0    0  502    0 -0.00000000000E+00 -0.00000000000E+00 -0.50394066084E+03  0.50394066084E+03  0.00000000000E+00 0. -1.
         23    2    1    2    0    0 -0.58816260911E+02 -0.79191366308E+01 -0.32776791501E+03  0.34631668709E+03  0.94770123848E+02 0.  0.
        -24    2    1    2    0    0  0.67455251087E+02  0.54491163308E+02 -0.12507411746E+03  0.17472647881E+03  0.85827208747E+02 0.  0.
         13    1    4    4    0    0  0.33321362277E+01  0.36461040535E+02 -0.94674812071E+02  0.10150778615E+03  0.00000000000E+00 0. -1.
        -14    1    4    4    0    0  0.64123114859E+02  0.18030122773E+02 -0.30399305386E+02  0.73218692657E+02  0.00000000000E+00 0.  1.
        -13    1    3    3    0    0  0.47793059314E+01 -0.40026930471E+02 -0.13013891784E+03  0.13623925596E+03  0.00000000000E+00 0.  1.
         13    1    3    3    0    0 -0.63595566842E+02  0.32107793841E+02 -0.19762899717E+03  0.21007743113E+03  0.00000000000E+00 0. -1.
          4    1    1    2  501    0 -0.86389901760E+01 -0.46572026677E+02  0.15999609840E+02  0.49995733169E+02  0.00000000000E+00 0. -1.
<scales pt_clust_5="13000.00000" pt_clust_6="13000.00000" pt_clust_7="13000.00000" pt_clust_8="13000.00000" pt_clust_9="47.36651"></scales>
<clustering>
<clus scale="   47.367">  1  9  2 -1</clus>
<clus scale="   85.827">  5  6 -1 -1</clus>
<clus scale="   94.770">  7  8 -1 -1</clus>
<clus scale="  107.384">  1  5  2 -1</clus>
<clus scale="   47.367">  1  5  2 -1</clus>
</clustering>
</event>
<event>
 9    1  0.3197504E-005  0.2231934E+03  0.7546771E-02  0.1150810E+00
         21   -1    0    0  501  502  0.00000000000E+00  0.00000000000E+00  0.51983795405E+03  0.51983795405E+03  0.00000000000E+00 0. -1.
          1   -1    0    0  502    0 -0.00000000000E+00 -0.00000000000E+00 -0.17414635150E+03  0.17414635150E+03  0.00000000000E+00 0. -1.
        -24    2    1    2    0    0  0.56418954098E+02  0.99476448085E+02  0.42170712821E+02  0.14650310526E+03  0.81278094999E+02 0.  0.
         23    2    1    2    0    0 -0.13045651889E+03  0.13537354756E+03  0.16790910817E+03  0.26636443317E+03  0.86090893567E+02 0.  0.
         11    1    3    3    0    0  0.25658371977E+02  0.59715797881E+02  0.64436213696E+02  0.91522424599E+02  0.00000000000E+00 0. -1.
        -12    1    3    3    0    0  0.30760582121E+02  0.39760650204E+02 -0.22265500875E+02  0.54980680664E+02  0.00000000000E+00 0.  1.
        -11    1    4    4    0    0 -0.26649745456E+02  0.79667897733E+02  0.99166549814E+02  0.12996610121E+03  0.00000000000E+00 0.  1.
         11    1    4    4    0    0 -0.10380677343E+03  0.55705649823E+02  0.68742558353E+02  0.13639833196E+03  0.00000000000E+00 0. -1.
          2    1    1    2  501    0  0.74037564790E+02 -0.23484999564E+03  0.13561178157E+03  0.28111676711E+03  0.00000000000E+00 0. -1.
<scales pt_clust_5="13000.00000" pt_clust_6="13000.00000" pt_clust_7="13000.00000" pt_clust_8="13000.00000" pt_clust_9="205.92154"></scales>
<clustering>
<clus scale="   81.278">  5  6 -1 -1</clus>
<clus scale="   86.091">  7  8 -1 -1</clus>
<clus scale="  140.302">  2  5  1 -1</clus>
<clus scale="  205.922">  1  9  2 -1</clus>
<clus scale="  205.922">  1  5  2 -1</clus>
</clustering>
</event>
<event>
 9    1  0.3197504E-005  0.1158329E+03  0.7546771E-02  0.1254569E+00
         -4   -1    0    0    0  501 -0.00000000000E+00  0.00000000000E+00  0.83087343561E+02  0.83087343561E+02  0.00000000000E+00 0.  1.
         21   -1    0    0  501  502  0.00000000000E+00 -0.00000000000E+00 -0.35308967796E+03  0.35308967796E+03  0.00000000000E+00 0.  1.
        -24    2    1    2    0    0  0.48885155470E+02  0.40472162139E+02 -0.40454875611E+02  0.10850673765E+03  0.78162400307E+02 0.  0.
         23    2    1    2    0    0 -0.62419796879E+01 -0.99685743620E+02 -0.69878292622E+02  0.15211706887E+03  0.90996797032E+02 0.  0.
         13    1    3    3    0    0 -0.62461274861E+01  0.44848854608E+02 -0.15849215466E+02  0.47975321771E+02  0.00000000000E+00 0. -1.
        -14    1    3    3    0    0  0.55131282956E+02 -0.43766924687E+01 -0.24605660145E+02  0.60531415881E+02  0.00000000000E+00 0.  1.
        -11    1    4    4    0    0  0.32634780717E+02 -0.45754777724E+02 -0.64302338022E+02  0.85400932501E+02  0.00000000000E+00 0.  1.
         11    1    4    4    0    0 -0.38876760405E+02 -0.53930965897E+02 -0.55759546002E+01  0.66716136368E+02  0.00000000000E+00 0. -1.
         -3    1    1    2    0  502 -0.42643175782E+02  0.59213581482E+02 -0.15966916617E+03  0.17555321500E+03  0.00000000000E+00 0.  1.
<scales pt_clust_5="13000.00000" pt_clust_6="13000.00000" pt_clust_7="13000.00000" pt_clust_8="13000.00000" pt_clust_9="72.97046"></scales>
<clustering>
<clus scale="   72.970">  2  9  1 -1</clus>
<clus scale="   78.162">  5  6 -1 -1</clus>
<clus scale="   90.997">  7  8 -1 -1</clus>
<clus scale="  106.048">  1  5  2 -1</clus>
<clus scale="   72.970">  2  5  1 -1</clus>
</clustering>
</event>
<event>
 9    1  0.3197504E-005  0.9083035E+02  0.7546771E-02  0.1306641E+00
         21   -1    0    0  501  502  0.00000000000E+00  0.00000000000E+00  0.10715961286E+03  0.10715961286E+03  0.00000000000E+00 0. -1.
          1   -1    0    0  502    0 -0.00000000000E+00 -0.00000000000E+00 -0.22350820528E+03  0.22350820528E+03  0.00000000000E+00 0. -1.
        -24    2    1    2    0    0 -0.49335549399E+01  0.40902832946E+01 -0.14829483462E+03  0.16899982869E+03  0.80799218682E+02 0.  0.
         23    2    1    2    0    0  0.21225432191E+02 -0.24163071470E+02 -0.25266624679E+02  0.98885394535E+02  0.90030805478E+02 0.  0.
         11    1    3    3    0    0 -0.37567513759E+02  0.11576861373E+02 -0.41867948960E+02  0.57430540303E+02  0.00000000000E+00 0. -1.
        -12    1    3    3    0    0  0.32633958819E+02 -0.74865780787E+01 -0.10642688566E+03  0.11156928838E+03  0.00000000000E+00 0.  1.
        -13    1    4    4    0    0 -0.14012113043E+02 -0.35299294934E+02 -0.43441801518E+02  0.57702423293E+02  0.00000000000E+00 0. -1.
         13    1    4    4    0    0  0.35237545234E+02  0.11136223464E+02  0.18175176839E+02  0.41182971241E+02  0.00000000000E+00 0.  1.
          2    1    1    2  501    0 -0.16291877251E+02  0.20072788175E+02  0.57212866878E+02  0.62782594928E+02  0.00000000000E+00 0. -1.
<scales pt_clust_5="13000.00000" pt_clust_6="13000.00000" pt_clust_7="13000.00000" pt_clust_8="13000.00000" pt_clust_9="25.85231"></scales>
<clustering>
<clus scale="   25.852">  1  9  2 -1</clus>
<clus scale="   80.799">  5  6 -1 -1</clus>
<clus scale="   81.689">  2  5  1 -1</clus>
<clus scale="   90.031">  7  8 -1 -1</clus>
<clus scale="   25.852">  1  5  2 -1</clus>
</clustering>
</event>
<event>
 9    1  0.3197504E-005  0.1342468E+03  0.7546771E-02  0.1224064E+00
         21   -1    0    0  501  502  0.00000000000E+00  0.00000000000E+00  0.24128499270E+03  0.24128499270E+03  0.00000000000E+00 0. -1.
          1   -1    0    0  502    0 -0.00000000000E+00 -0.00000000000E+00 -0.93955397120E+02  0.93955397120E+02  0.00000000000E+00 0. -1.
        -24    2    1    2    0    0 -0.10545065486E+03 -0.19655487258E+02  0.19592037193E+02  0.13569319223E+03  0.80762712351E+02 0.  0.
         23    2    1    2    0    0  0.81881794996E+02  0.13175254761E+02  0.85081555102E+02  0.15038400827E+03  0.92186025155E+02 0.  0.
         11    1    3    3    0    0 -0.11394174644E+03 -0.29876436978E+02  0.80089226131E+01  0.11806551533E+03  0.00000000000E+00 0. -1.
        -12    1    3    3    0    0  0.84910915828E+01  0.10220949721E+02  0.11583114580E+02  0.17627676899E+02  0.00000000000E+00 0.  1.
        -13    1    4    4    0    0  0.39032571973E+02  0.22400592824E+02 -0.96295501631E+01  0.46022347506E+02  0.00000000000E+00 0.  1.
         13    1    4    4    0    0  0.42849223023E+02 -0.92253380629E+01  0.94711105265E+02  0.10436166076E+03  0.00000000000E+00 0. -1.
          2    1    1    2  501    0  0.23568859862E+02  0.64802324968E+01  0.42656003287E+02  0.49163189328E+02  0.00000000000E+00 0. -1.
<scales pt_clust_5="13000.00000" pt_clust_6="13000.00000" pt_clust_7="13000.00000" pt_clust_8="13000.00000" pt_clust_9="24.44350"></scales>
<clustering>
<clus scale="   24.443">  1  9  2 -1</clus>
<clus scale="   80.763">  5  6 -1 -1</clus>
<clus scale="   92.186">  7  8 -1 -1</clus>
<clus scale="  126.675">  2  5  1 -1</clus>
<clus scale="   24.443">  1  5  2 -1</clus>
</clustering>
</event>
<event>
 9    1  0.3197504E-005  0.9503088E+02  0.7546771E-02  0.1299339E+00
         21   -1    0    0  501  502  0.00000000000E+00  0.00000000000E+00  0.48409307232E+02  0.48409307232E+02  0.00000000000E+00 0.  1.
          1   -1    0    0  502    0 -0.00000000000E+00 -0.00000000000E+00 -0.52248078494E+03  0.52248078494E+03  0.00000000000E+00 0. -1.
        -24    2    1    2    0    0  0.27107532886E+02 -0.38661476824E+02 -0.24617157401E+03  0.26206263842E+03  0.76464727025E+02 0.  0.
         23    2    1    2    0    0  0.52254419453E+02  0.10416207570E+02 -0.18842227257E+03  0.21579736145E+03  0.90700202167E+02 0.  0.
         13    1    3    3    0    0 -0.12683709527E+02 -0.39500864497E+02 -0.18104395718E+03  0.18573666631E+03  0.00000000000E+00 0. -1.
        -14    1    3    3    0    0  0.39791242413E+02  0.83938767243E+00 -0.65127616831E+02  0.76325972109E+02  0.00000000000E+00 0.  1.
        -13    1    4    4    0    0  0.54204503823E+02 -0.31805238361E+02 -0.11674975891E+03  0.13259037532E+03  0.00000000000E+00 0.  1.
         13    1    4    4    0    0 -0.19500843696E+01  0.42221445931E+02 -0.71672513661E+02  0.83206986125E+02  0.00000000000E+00 0. -1.
          2    1    1    2  501    0 -0.79361952339E+02  0.28245269254E+02 -0.39477631127E+02  0.93030092302E+02  0.00000000000E+00 0. -1.
<scales pt_clust_5="13000.00000" pt_clust_6="13000.00000" pt_clust_7="13000.00000" pt_clust_8="13000.00000" pt_clust_9="84.23844"></scales>
<clustering>
<clus scale="   76.465">  5  6 -1 -1</clus>
<clus scale="   84.238">  1  9  2 -1</clus>
<clus scale="   81.555">  2  5  1 -1</clus>
<clus scale="   90.700">  7  8 -1 -1</clus>
<clus scale="   84.238">  1  5  2 -1</clus>
</clustering>
</event>
<event>
 9    1  0.3197504E-005  0.3255316E+03  0.7546771E-02  0.1073131E+00
          1   -1    0    0  502    0 -0.00000000000E+00  0.00000000000E+00  0.12612474922E+04  0.12612474922E+04  0.00000000000E+00 0. -1.
         21   -1    0    0  501  502  0.00000000000E+00 -0.00000000000E+00 -0.74563885018E+02  0.74563885018E+02  0.00000000000E+00 0. -1.
        -24    2    1    2    0    0 -0.55556580994E+02 -0.19501105259E+03  0.61822078712E+03  0.65551618986E+03  0.79929276372E+02 0.  0.
         23    2    1    2    0    0 -0.38951174885E+02 -0.39572056265E+02  0.26189088194E+03  0.28286934004E+03  0.91351452253E+02 0.  0.
         13    1    3    3    0    0 -0.49944620395E+02 -0.18960176134E+03  0.61727276029E+03  0.64766422906E+03  0.00000000000E+00 0. -1.
        -14    1    3    3    0    0 -0.56119605986E+01 -0.54092912449E+01  0.94802682956E+00  0.78519607998E+01  0.00000000000E+00 0.  1.
        -11    1    4    4    0    0  0.26009530298E+02  0.67003692180E+01  0.57308627642E+02  0.63290358003E+02  0.00000000000E+00 0.  1.
         11    1    4    4    0    0 -0.64960705183E+02 -0.46272425483E+02  0.20458225430E+03  0.21957898204E+03  0.00000000000E+00 0. -1.
          2    1    1    2  501    0  0.94507755879E+02  0.23458310885E+03  0.30657193817E+03  0.39742584737E+03  0.00000000000E+00 0. -1.
<scales pt_clust_5="13000.00000" pt_clust_6="13000.00000" pt_clust_7="13000.00000" pt_clust_8="13000.00000" pt_clust_9="252.90502"></scales>
<clustering>
<clus scale="   79.929">  5  6 -1 -1</clus>
<clus scale="   91.351">  7  8 -1 -1</clus>
<clus scale="   95.406">  5  7 -1 -1</clus>
<clus scale="  252.905">  2  9  1 -1</clus>
<clus scale="  252.905">  2  5  1 -1</clus>
</clustering>
</event>
<event>
 9    1  0.3197504E-005  0.2189573E+03  0.7546771E-02  0.1176818E+00
         -2   -1    0    0    0  501 -0.00000000000E+00  0.00000000000E+00  0.10729103578E+03  0.10729103578E+03  0.00000000000E+00 0.  1.
         21   -1    0    0  501  502  0.00000000000E+00 -0.00000000000E+00 -0.77732348096E+03  0.77732348096E+03  0.00000000000E+00 0.  1.
        -24    2    1    2    0    0 -0.20808543259E+02  0.56666220208E+01  0.94881803962E+01  0.81986479912E+02  0.78528028394E+02 0.  0.
         23    2    1    2    0    0 -0.13393152697E+03 -0.14349756279E+03 -0.40758400005E+03  0.46073421433E+03  0.87304608750E+02 0.  0.
         11    1    3    3    0    0  0.87106087051E+01  0.29583380527E+02  0.26214676347E+02  0.40475429132E+02  0.00000000000E+00 0. -1.
        -12    1    3    3    0    0 -0.29519151964E+02 -0.23916758506E+02 -0.16726495951E+02  0.41511050780E+02  0.00000000000E+00 0.  1.
        -13    1    4    4    0    0 -0.70725637383E+02 -0.12060941943E+03 -0.32801446392E+03  0.35657010023E+03  0.00000000000E+00 0.  1.
         13    1    4    4    0    0 -0.63205889585E+02 -0.22888143364E+02 -0.79569536130E+02  0.10416411409E+03  0.00000000000E+00 0. -1.
         -1    1    1    2    0  502  0.15474007023E+03  0.13783094077E+03 -0.27193662552E+03  0.34189382251E+03  0.00000000000E+00 0.  1.
<scales pt_clust_5="13000.00000" pt_clust_6="13000.00000" pt_clust_7="13000.00000" pt_clust_8="13000.00000" pt_clust_9="200.79902"></scales>
<clustering>
<clus scale="   78.528">  5  6 -1 -1</clus>
<clus scale="   81.436">  1  5  2 -1</clus>
<clus scale="   87.305">  7  8 -1 -1</clus>
<clus scale="  200.799">  2  9  1 -1</clus>
<clus scale="  200.799">  2  5  1 -1</clus>
</clustering>
</event>
<event>
 9    1  0.3197504E-005  0.9978788E+02  0.7546771E-02  0.1288362E+00
         21   -1    0    0  501  502  0.00000000000E+00  0.00000000000E+00  0.33152958167E+03  0.33152958167E+03  0.00000000000E+00 0.  1.
          1   -1    0    0  502    0 -0.00000000000E+00 -0.00000000000E+00 -0.50703537097E+02  0.50703537097E+02  0.00000000000E+00 0. -1.
         23    2    1    2    0    0 -0.10435936568E+01 -0.30269177563E+02  0.25208219843E+02  0.10241888657E+03  0.94534976497E+02 0.  0.
        -24    2    1    2    0    0 -0.21262822984E+02  0.36279208415E+02  0.19910667751E+03  0.21876338081E+03  0.80284862525E+02 0.  0.
         11    1    4    4    0    0 -0.44639822237E+02  0.56063185223E+01  0.63799174574E+02  0.78067145542E+02  0.00000000000E+00 0. -1.
        -12    1    4    4    0    0  0.23376999253E+02  0.30672889893E+02  0.13530750293E+03  0.14069623527E+03  0.00000000000E+00 0.  1.
        -11    1    3    3    0    0 -0.19680078119E+02  0.66781673851E+01  0.50022435317E+02  0.54167771132E+02  0.00000000000E+00 0.  1.
         11    1    3    3    0    0  0.18636484462E+02 -0.36947344948E+02 -0.24814215473E+02  0.48251115442E+02  0.00000000000E+00 0. -1.
          2    1    1    2  501    0  0.22306416641E+02 -0.60100308524E+01  0.56511147224E+02  0.61050851384E+02  0.00000000000E+00 0. -1.
<scales pt_clust_5="13000.00000" pt_clust_6="13000.00000" pt_clust_7="13000.00000" pt_clust_8="13000.00000" pt_clust_9="23.10188"></scales>
<clustering>
<clus scale="   23.102">  1  9  2 -1</clus>
<clus scale="   80.285">  5  6 -1 -1</clus>
<clus scale="   86.408">  1  5  2 -1</clus>
<clus scale="   94.535">  7  8 -1 -1</clus>
<clus scale="   23.102">  1  5  2 -1</clus>
</clustering>
</event>
<event>
 9    1  0.3197504E-005  0.9312552E+02  0.7546771E-02  0.1301739E+00
         -4   -1    0    0    0  501 -0.00000000000E+00  0.00000000000E+00  0.11175147117E+03  0.11175147117E+03  0.00000000000E+00 0.  1.
         21   -1    0    0  501  502  0.00000000000E+00 -0.00000000000E+00 -0.94825494438E+02  0.94825494438E+02  0.00000000000E+00 0.  1.
         23    2    1    2    0    0  0.17370810317E+02  0.50091078586E+01  0.74962264199E+01  0.92819363179E+02  0.90732599201E+02 0.  0.
        -24    2    1    2    0    0 -0.11465702407E+02 -0.26192554420E+02 -0.82213295331E+01  0.85558855519E+02  0.80219793441E+02 0.  0.
         13    1    4    4    0    0 -0.32700418455E+02  0.11959109357E+02 -0.20237223182E+02  0.40272606892E+02  0.00000000000E+00 0. -1.
        -14    1    4    4    0    0  0.21234716047E+02 -0.38151663777E+02  0.12015893649E+02  0.45286248628E+02  0.00000000000E+00 0.  1.
        -11    1    3    3    0    0  0.42672580991E+02  0.27651588447E+01  0.35088457663E+02  0.55315414968E+02  0.00000000000E+00 0.  1.
         11    1    3    3    0    0 -0.25301770674E+02  0.22439490139E+01 -0.27592231244E+02  0.37503948211E+02  0.00000000000E+00 0. -1.
         -3    1    1    2    0  502 -0.59051079096E+01  0.21183446562E+02  0.17651079850E+02  0.28198746914E+02  0.00000000000E+00 0.  1.
<scales pt_clust_5="13000.00000" pt_clust_6="13000.00000" pt_clust_7="13000.00000" pt_clust_8="13000.00000" pt_clust_9="21.99112"></scales>
<clustering>
<clus scale="   21.991">  2  9  1 -1</clus>
<clus scale="   80.220">  5  6 -1 -1</clus>
<clus scale="   82.917">  2  5  1 -1</clus>
<clus scale="   90.733">  7  8 -1 -1</clus>
<clus scale="   21.991">  2  5  1 -1</clus>
</clustering>
</event>
<event>
 9    1  0.3197504E-005  0.1214949E+03  0.7546771E-02  0.1240659E+00
         -4   -1    0    0    0  501 -0.00000000000E+00  0.00000000000E+00  0.38181927248E+03  0.38181927248E+03  0.00000000000E+00 0.  1.
         21   -1    0    0  501  502  0.00000000000E+00 -0.00000000000E+00 -0.13395020757E+03  0.13395020757E+03  0.00000000000E+00 0.  1.
        -24    2    1    2    0    0 -0.71988926175E+02 -0.58114726203E+02  0.31133334133E+03  0.33454486480E+03  0.80200313264E+02 0.  0.
         23    2    1    2    0    0  0.90812674735E+02  0.16394666724E+02 -0.34480959766E+02  0.12704962547E+03  0.80230566229E+02 0.  0.
         11    1    3    3    0    0  0.40921526989E+01 -0.33175590757E+02  0.42663635571E+02  0.54199182059E+02  0.00000000000E+00 0. -1.
        -12    1    3    3    0    0 -0.76081078874E+02 -0.24939135446E+02  0.26866970576E+03  0.28034568274E+03  0.00000000000E+00 0.  1.
        -11    1    4    4    0    0  0.64823582663E+02  0.16062495908E+02 -0.60615817257E+02  0.90190786369E+02  0.00000000000E+00 0. -1.
         11    1    4    4    0    0  0.25989092072E+02  0.33217081583E+00  0.26134857491E+02  0.36858839106E+02  0.00000000000E+00 0.  1.
         -3    1    1    2    0  502 -0.18823748560E+02  0.41720059479E+02 -0.28983316658E+02  0.54174989776E+02  0.00000000000E+00 0.  1.
<scales pt_clust_5="13000.00000" pt_clust_6="13000.00000" pt_clust_7="13000.00000" pt_clust_8="13000.00000" pt_clust_9="45.77004"></scales>
<clustering>
<clus scale="   45.770">  2  9  1 -1</clus>
<clus scale="   80.200">  5  6 -1 -1</clus>
<clus scale="   80.231">  7  8 -1 -1</clus>
<clus scale="  121.475">  1  5  2 -1</clus>
<clus scale="   45.770">  2  5  1 -1</clus>
</clustering>
</event>
<event>
 9    1  0.3197504E-005  0.1409469E+03  0.7546771E-02  0.1213457E+00
         21   -1    0    0  501  502  0.00000000000E+00  0.00000000000E+00  0.65822938020E+03  0.65822938020E+03  0.00000000000E+00 0. -1.
          3   -1    0    0  502    0 -0.00000000000E+00 -0.00000000000E+00 -0.50575370883E+02  0.50575370883E+02  0.00000000000E+00 0. -1.
         23    2    1    2    0    0 -0.50207835737E+02 -0.92694444933E+02  0.13503692962E+03  0.19259467326E+03  0.88003686944E+02 0.  0.
        -24    2    1    2    0    0  0.77210287370E+02  0.98248987577E+02  0.46396521657E+03  0.48731647864E+03  0.81236298104E+02 0.  0.
         11    1    4    4    0    0  0.51927021944E+02  0.10949684773E+03  0.36792165509E+03  0.38736587299E+03  0.00000000000E+00 0. -1.
        -12    1    4    4    0    0  0.25283265426E+02 -0.11247860148E+02  0.96043561485E+02  0.99950605657E+02  0.00000000000E+00 0.  1.
        -13    1    3    3    0    0 -0.53741763255E+02 -0.72689808097E+02  0.46307600763E+02  0.10156957816E+03  0.00000000000E+00 0. -1.
         13    1    3    3    0    0  0.35339275179E+01 -0.20004636836E+02  0.88729328856E+02  0.91025095099E+02  0.00000000000E+00 0.  1.
          4    1    1    2  501    0 -0.27002451633E+02 -0.55545426445E+01  0.86518631240E+01  0.28893599182E+02  0.00000000000E+00 0. -1.
<scales pt_clust_5="13000.00000" pt_clust_6="13000.00000" pt_clust_7="13000.00000" pt_clust_8="13000.00000" pt_clust_9="27.56785"></scales>
<clustering>
<clus scale="   27.568">  1  9  2 -1</clus>
<clus scale="   81.236">  5  6 -1 -1</clus>
<clus scale="   88.004">  7  8 -1 -1</clus>
<clus scale="  136.824">  1  5  2 -1</clus>
<clus scale="   27.568">  1  5  2 -1</clus>
</clustering>
</event>
<event>
 9    1  0.3197504E-005  0.1038832E+03  0.7546771E-02  0.1282647E+00
         21   -1    0    0  501  502  0.00000000000E+00  0.00000000000E+00  0.42719744087E+02  0.42719744087E+02  0.00000000000E+00 0.  1.
          1   -1    0    0  502    0 -0.00000000000E+00 -0.00000000000E+00 -0.32279247196E+03  0.32279247196E+03  0.00000000000E+00 0. -1.
         23    2    1    2    0    0  0.13690603494E+02  0.38576278578E+02 -0.10537372030E+03  0.14889498245E+03  0.96904762408E+02 0.  0.
        -24    2    1    2    0    0  0.19119461139E+02 -0.36039988261E+02 -0.86879839715E+02  0.12283482931E+03  0.76654120531E+02 0.  0.
         11    1    4    4    0    0 -0.16471832479E+02 -0.25276022820E+02 -0.20801268121E+01  0.30241123034E+02  0.00000000000E+00 0. -1.
        -12    1    4    4    0    0  0.35591293618E+02 -0.10763965442E+02 -0.84799712903E+02  0.92593706276E+02  0.00000000000E+00 0.  1.
        -11    1    3    3    0    0 -0.60813259705E+01  0.46885570908E+02 -0.11577685382E+03  0.12505806317E+03  0.00000000000E+00 0.  1.
         11    1    3    3    0    0  0.19771929464E+02 -0.83092923303E+01  0.10403133518E+02  0.23836919280E+02  0.00000000000E+00 0. -1.
          2    1    1    2  501    0 -0.32810064633E+02 -0.25362903166E+01 -0.87819167854E+02  0.93782404279E+02  0.00000000000E+00 0. -1.
<scales pt_clust_5="13000.00000" pt_clust_6="13000.00000" pt_clust_7="13000.00000" pt_clust_8="13000.00000" pt_clust_9="32.90797"></scales>
<clustering>
<clus scale="   32.908">  1  9  2 -1</clus>
<clus scale="   76.654">  5  6 -1 -1</clus>
<clus scale="   85.306">  1  5  2 -1</clus>
<clus scale="   96.905">  7  8 -1 -1</clus>
<clus scale="   32.908">  1  5  2 -1</clus>
</clustering>
</event>
<event>
 9    1  0.3197504E-005  0.9093529E+02  0.7546771E-02  0.1306749E+00
          1   -1    0    0  502    0 -0.00000000000E+00  0.00000000000E+00  0.46191956857E+03  0.46191956857E+03  0.00000000000E+00 0. -1.
         21   -1    0    0  501  502  0.00000000000E+00 -0.00000000000E+00 -0.51113486470E+02  0.51113486470E+02  0.00000000000E+00 0.  1.
        -24    2    1    2    0    0  0.72822639041E+01 -0.94121744310E+01  0.38772236533E+03  0.39620168943E+03  0.80656839323E+02 0.  0.
         23    2    1    2    0    0  0.53346700090E+01 -0.90045508301E+01  0.11668033217E+02  0.91757861240E+02  0.90409189027E+02 0.  0.
         11    1    3    3    0    0  0.31190519259E+02 -0.34704231836E+02  0.22989187964E+03  0.23457942903E+03  0.00000000000E+00 0. -1.
        -12    1    3    3    0    0 -0.23908255355E+02  0.25292057405E+02  0.15783048569E+03  0.16162226040E+03  0.00000000000E+00 0.  1.
        -13    1    4    4    0    0  0.38698983519E+02 -0.51732008354E+01  0.33713807865E+02  0.51584825027E+02  0.00000000000E+00 0. -1.
         13    1    4    4    0    0 -0.33364313511E+02 -0.38313499948E+01 -0.22045774647E+02  0.40173036213E+02  0.00000000000E+00 0.  1.
          2    1    1    2  501    0 -0.12616933913E+02  0.18416725261E+02  0.11415683551E+02  0.25073504375E+02  0.00000000000E+00 0. -1.
<scales pt_clust_5="13000.00000" pt_clust_6="13000.00000" pt_clust_7="13000.00000" pt_clust_8="13000.00000" pt_clust_9="22.32404"></scales>
<clustering>
<clus scale="   22.324">  2  9  1 -1</clus>
<clus scale="   80.657">  5  6 -1 -1</clus>
<clus scale="   81.246">  1  5  2 -1</clus>
<clus scale="   90.409">  7  8 -1 -1</clus>
<clus scale="   22.324">  2  5  1 -1</clus>
</clustering>
</event>
<event>
 9    1  0.3197504E-005  0.1582630E+03  0.7546771E-02  0.1215718E+00
         21   -1    0    0  501  502  0.00000000000E+00  0.00000000000E+00  0.30493521680E+02  0.30493521680E+02  0.00000000000E+00 0. -1.
          1   -1    0    0  502    0 -0.00000000000E+00 -0.00000000000E+00 -0.14644909939E+04  0.14644909939E+04  0.00000000000E+00 0. -1.
        -24    2    1    2    0    0 -0.46408716556E+02  0.55463906362E+01 -0.61365899785E+03  0.62053580041E+03  0.79390065619E+02 0.  0.
         23    2    1    2    0    0 -0.34722347261E+02  0.11480489678E+03 -0.32809127010E+03  0.36124895678E+03  0.92038695877E+02 0.  0.
         13    1    3    3    0    0 -0.33608450780E+02 -0.28975657158E+02 -0.18289723868E+03  0.18820339154E+03  0.00000000000E+00 0. -1.
        -14    1    3    3    0    0 -0.12800265777E+02  0.34522047795E+02 -0.43076175918E+03  0.43233240887E+03  0.00000000000E+00 0.  1.
        -13    1    4    4    0    0 -0.25227935592E+02  0.60010922740E+02 -0.28080590065E+03  0.28825286368E+03  0.00000000000E+00 0.  1.
         13    1    4    4    0    0 -0.94944116692E+01  0.54793974040E+02 -0.47285369450E+02  0.72996093102E+02  0.00000000000E+00 0. -1.
          2    1    1    2  501    0  0.81131063818E+02 -0.12035128742E+03 -0.49224720425E+03  0.51319975837E+03  0.00000000000E+00 0. -1.
<scales pt_clust_5="13000.00000" pt_clust_6="13000.00000" pt_clust_7="13000.00000" pt_clust_8="13000.00000" pt_clust_9="128.74812"></scales>
<clustering>
<clus scale="   79.390">  5  6 -1 -1</clus>
<clus scale="   92.039">  7  8 -1 -1</clus>
<clus scale="   92.127">  2  5  1 -1</clus>
<clus scale="  128.748">  1  9  2 -1</clus>
<clus scale="  128.748">  1  5  2 -1</clus>
</clustering>
</event>
<event>
 9    1  0.3197504E-005  0.1061538E+03  0.7546771E-02  0.1273208E+00
          1   -1    0    0  502    0 -0.00000000000E+00  0.00000000000E+00  0.84393116442E+02  0.84393116442E+02  0.00000000000E+00 0. -1.
         21   -1    0    0  501  502  0.00000000000E+00 -0.00000000000E+00 -0.37286750370E+03  0.37286750370E+03  0.00000000000E+00 0. -1.
        -24    2    1    2    0    0 -0.42712815563E+02 -0.25244913025E+02 -0.38297486397E+02  0.99815113541E+02  0.77683133175E+02 0.  0.
         23    2    1    2    0    0  0.71174207045E+02  0.43109179869E+02 -0.28423604239E+03  0.30959983850E+03  0.90209550870E+02 0.  0.
         11    1    3    3    0    0 -0.27254946399E+02 -0.52647298543E+02 -0.33187993119E+02  0.67941246930E+02  0.00000000000E+00 0. -1.
        -12    1    3    3    0    0 -0.15457869164E+02  0.27402385519E+02 -0.51094932785E+01  0.31873866611E+02  0.00000000000E+00 0.  1.
        -13    1    4    4    0    0  0.19195086406E+02 -0.25908172731E+02 -0.11701559289E+03  0.12137682537E+03  0.00000000000E+00 0.  1.
         13    1    4    4    0    0  0.51979120639E+02  0.69017352600E+02 -0.16722044949E+03  0.18822301313E+03  0.00000000000E+00 0. -1.
          2    1    1    2  501    0 -0.28461391482E+02 -0.17864266844E+02  0.34059141525E+02  0.47845668105E+02  0.00000000000E+00 0. -1.
<scales pt_clust_5="13000.00000" pt_clust_6="13000.00000" pt_clust_7="13000.00000" pt_clust_8="13000.00000" pt_clust_9="33.60333"></scales>
<clustering>
<clus scale="   33.603">  2  9  1 -1</clus>
<clus scale="   77.683">  5  6 -1 -1</clus>
<clus scale="   90.210">  7  8 -1 -1</clus>
<clus scale="   95.737">  1  5  2 -1</clus>
<clus scale="   33.603">  2  5  1 -1</clus>
</clustering>
</event>
<event>
 9    1  0.3197504E-005  0.1142206E+03  0.7546771E-02  0.1266766E+00
         -4   -1    0    0    0  501 -0.00000000000E+00  0.00000000000E+00  0.35680401356E+03  0.35680401356E+03  0.00000000000E+00 0.  1.
         21   -1    0    0  501  502  0.00000000000E+00 -0.00000000000E+00 -0.73535372350E+02  0.73535372350E+02  0.00000000000E+00 0. -1.
        -24    2    1    2    0    0  0.40291821635E+02 -0.23747399397E+02  0.21945931894E+03  0.23802508107E+03  0.79411439231E+02 0.  0.
         23    2    1    2    0    0  0.19931011576E+02 -0.52454501765E+01  0.19600326034E+02  0.11217810631E+03  0.10851264804E+03 0.  0.
         11    1    3    3    0    0  0.21628480690E+02 -0.20560778748E+01  0.58393080314E+01  0.22497025392E+02  0.00000000000E+00 0. -1.
        -12    1    3    3    0    0  0.18663340945E+02 -0.21691321522E+02  0.21362001091E+03  0.21552805568E+03  0.00000000000E+00 0.  1.
        -13    1    4    4    0    0  0.39371798877E+02  0.22218563293E+02  0.49590488854E+02  0.67104542964E+02  0.00000000000E+00 0.  1.
         13    1    4    4    0    0 -0.19440787302E+02 -0.27464013469E+02 -0.29990162820E+02  0.45073563346E+02  0.00000000000E+00 0. -1.
         -3    1    1    2    0  502 -0.60222833211E+02  0.28992849573E+02  0.44208996237E+02  0.80136198528E+02  0.00000000000E+00 0.  1.
<scales pt_clust_5="13000.00000" pt_clust_6="13000.00000" pt_clust_7="13000.00000" pt_clust_8="13000.00000" pt_clust_9="66.83842"></scales>
<clustering>
<clus scale="   66.838">  2  9  1 -1</clus>
<clus scale="   79.411">  5  6 -1 -1</clus>
<clus scale="   87.049">  1  5  2 -1</clus>
<clus scale="  108.513">  7  8 -1 -1</clus>
<clus scale="   66.838">  2  5  1 -1</clus>
</clustering>
</event>
<event>
 9    1  0.3197504E-005  0.1916123E+03  0.7546771E-02  0.1181795E+00
          1   -1    0    0  502    0 -0.00000000000E+00  0.00000000000E+00  0.11093788934E+03  0.11093788934E+03  0.00000000000E+00 0. -1.
         21   -1    0    0  501  502  0.00000000000E+00 -0.00000000000E+00 -0.65623998555E+03  0.65623998555E+03  0.00000000000E+00 0. -1.
         23    2    1    2    0    0  0.56463901038E+02  0.30443680481E+02 -0.24333417278E+03  0.26648369551E+03  0.87675826357E+02 0.  0.
        -24    2    1    2    0    0  0.13405414662E+03 -0.21858583998E+02 -0.18211608319E+02  0.15880461135E+03  0.80242943529E+02 0.  0.
         11    1    4    4    0    0  0.69235635157E+02  0.20135031475E+02  0.16754910993E+02  0.74025128912E+02  0.00000000000E+00 0. -1.
        -12    1    4    4    0    0  0.64818511468E+02 -0.41993615472E+02 -0.34966519312E+02  0.84779482436E+02  0.00000000000E+00 0.  1.
        -13    1    3    3    0    0  0.62958082861E+02  0.53281623429E+02 -0.20949000015E+03  0.22514153716E+03  0.00000000000E+00 0.  1.
         13    1    3    3    0    0 -0.64941818227E+01 -0.22837942949E+02 -0.33844172628E+02  0.41342158344E+02  0.00000000000E+00 0. -1.
          2    1    1    2  501    0 -0.19051804766E+03 -0.85850964832E+01 -0.28375631511E+03  0.34188956803E+03  0.00000000000E+00 0. -1.
<scales pt_clust_5="13000.00000" pt_clust_6="13000.00000" pt_clust_7="13000.00000" pt_clust_8="13000.00000" pt_clust_9="174.00100"></scales>
<clustering>
<clus scale="   80.243">  5  6 -1 -1</clus>
<clus scale="   87.676">  7  8 -1 -1</clus>
<clus scale="  108.637">  1  7  2 -1</clus>
<clus scale="  174.001">  2  9  1 -1</clus>
<clus scale="  174.001">  2  5  1 -1</clus>
</clustering>
</event>
<event>
 9    1  0.3197504E-005  0.9433345E+02  0.7546771E-02  0.1311321E+00
         -2   -1    0    0    0  501 -0.00000000000E+00  0.00000000000E+00  0.45041865612E+03  0.45041865612E+03  0.00000000000E+00 0.  1.
         21   -1    0    0  501  502  0.00000000000E+00 -0.00000000000E+00 -0.44103783174E+02  0.44103783174E+02  0.00000000000E+00 0.  1.
         23    2    1    2    0    0 -0.21717056779E+02  0.94442325721E+01  0.26951088650E+03  0.28607468592E+03  0.92961195669E+02 0.  0.
        -24    2    1    2    0    0 -0.70941190668E+01  0.24099021901E+02  0.55355141717E+01  0.69931885732E+02  0.65028742437E+02 0.  0.
         11    1    4    4    0    0 -0.13752611609E+02  0.29915062345E+02  0.29612798705E+02  0.44282763332E+02  0.00000000000E+00 0. -1.
        -12    1    4    4    0    0  0.66584925424E+01 -0.58160404443E+01 -0.24077284533E+02  0.25649122400E+02  0.00000000000E+00 0.  1.
        -13    1    3    3    0    0 -0.51018731306E+02  0.17822589806E+02  0.22951109890E+03  0.23578782871E+03  0.00000000000E+00 0.  1.
         13    1    3    3    0    0  0.29301674527E+02 -0.83783572334E+01  0.39999787602E+02  0.50286857212E+02  0.00000000000E+00 0. -1.
         -1    1    1    2    0  502  0.28811175846E+02 -0.33543254473E+02  0.13126847228E+03  0.13851586764E+03  0.00000000000E+00 0.  1.
<scales pt_clust_5="13000.00000" pt_clust_6="13000.00000" pt_clust_7="13000.00000" pt_clust_8="13000.00000" pt_clust_9="44.21805"></scales>
<clustering>
<clus scale="   44.218">  2  9  1 -1</clus>
<clus scale="   65.029">  5  6 -1 -1</clus>
<clus scale="   66.976">  2  5  1 -1</clus>
<clus scale="   92.961">  7  8 -1 -1</clus>
<clus scale="   44.218">  2  5  1 -1</clus>
</clustering>
</event>
<event>
 9    1  0.3197504E-005  0.4160877E+03  0.7546771E-02  0.1038539E+00
          1   -1    0    0  502    0 -0.00000000000E+00  0.00000000000E+00  0.25466817119E+04  0.25466817119E+04  0.00000000000E+00 0. -1.
         21   -1    0    0  501  502  0.00000000000E+00 -0.00000000000E+00 -0.22250900018E+03  0.22250900018E+03  0.00000000000E+00 0. -1.
         23    2    1    2    0    0  0.34867949992E+03 -0.27746806265E+03  0.21813922049E+04  0.22283359018E+04  0.91885909118E+02 0.  0.
        -24    2    1    2    0    0 -0.25737981211E+03  0.47466891238E+02  0.84488034816E+02  0.28662227081E+03  0.80725613360E+02 0.  0.
         11    1    4    4    0    0 -0.17525390333E+03  0.56395907161E+01  0.84071090091E+02  0.19445740872E+03  0.00000000000E+00 0. -1.
        -12    1    4    4    0    0 -0.82125908773E+02  0.41827300522E+02  0.41694472492E+00  0.92164862088E+02  0.00000000000E+00 0.  1.
        -13    1    3    3    0    0  0.16316107977E+03 -0.14038876501E+03  0.83324327163E+03  0.86059566174E+03  0.00000000000E+00 0.  1.
         13    1    3    3    0    0  0.18551842015E+03 -0.13707929764E+03  0.13481489332E+04  0.13677402400E+04  0.00000000000E+00 0. -1.
          2    1    1    2  501    0 -0.91299687814E+02  0.23000117142E+03  0.58292472080E+02  0.25423253952E+03  0.00000000000E+00 0. -1.
<scales pt_clust_5="13000.00000" pt_clust_6="13000.00000" pt_clust_7="13000.00000" pt_clust_8="13000.00000" pt_clust_9="247.45943"></scales>
<clustering>
<clus scale="   80.726">  5  6 -1 -1</clus>
<clus scale="   91.886">  7  8 -1 -1</clus>
<clus scale="  247.459">  2  9  1 -1</clus>
<clus scale="  413.766">  2  5  1 -1</clus>
<clus scale="  247.459">  2  5  1 -1</clus>
</clustering>
</event>
<event>
 9    1  0.3197504E-005  0.1013459E+03  0.7546771E-02  0.1283127E+00
         21   -1    0    0  501  502  0.00000000000E+00  0.00000000000E+00  0.19826501249E+03  0.19826501249E+03  0.00000000000E+00 0. -1.
         -2   -1    0    0    0  501 -0.00000000000E+00 -0.00000000000E+00 -0.38785511004E+03  0.38785511004E+03  0.00000000000E+00 0.  1.
        -24    2    1    2    0    0  0.40129155053E+02  0.19574649150E+02 -0.35733198017E+03  0.36882550497E+03  0.79703156066E+02 0.  0.
         23    2    1    2    0    0 -0.39799607311E+02  0.12518417042E+02  0.96880349498E+02  0.13950367737E+03  0.91294875936E+02 0.  0.
         13    1    3    3    0    0  0.28304434778E+02  0.11794198983E+02 -0.36454005610E+02  0.47635477144E+02  0.00000000000E+00 0. -1.
        -14    1    3    3    0    0  0.11824720275E+02  0.77804501669E+01 -0.32087797456E+03  0.32119002782E+03  0.00000000000E+00 0.  1.
        -11    1    4    4    0    0  0.16936266008E+02  0.33562662183E+02  0.23269460688E+02  0.44212636201E+02  0.00000000000E+00 0.  1.
         11    1    4    4    0    0 -0.56735873319E+02 -0.21044245141E+02  0.73610888810E+02  0.95291041164E+02  0.00000000000E+00 0. -1.
         -1    1    1    2    0  502 -0.32954774217E+00 -0.32093066192E+02  0.70861533129E+02  0.77790940197E+02  0.00000000000E+00 0.  1.
<scales pt_clust_5="13000.00000" pt_clust_6="13000.00000" pt_clust_7="13000.00000" pt_clust_8="13000.00000" pt_clust_9="32.09476"></scales>
<clustering>
<clus scale="   32.095">  1  9  2 -1</clus>
<clus scale="   79.703">  5  6 -1 -1</clus>
<clus scale="   91.043">  2  5  1 -1</clus>
<clus scale="   91.295">  7  8 -1 -1</clus>
<clus scale="   32.095">  1  5  2 -1</clus>
</clustering>
</event>
<event>
 9    1  0.3197504E-005  0.2093768E+03  0.7546771E-02  0.1142440E+00
         21   -1    0    0  501  502  0.00000000000E+00  0.00000000000E+00  0.45691196935E+02  0.45691196935E+02  0.00000000000E+00 0. -1.
          1   -1    0    0  502    0 -0.00000000000E+00 -0.00000000000E+00 -0.14865162705E+04  0.14865162705E+04  0.00000000000E+00 0. -1.
        -24    2    1    2    0    0  0.17253360115E+03  0.99349509713E+02 -0.10527272316E+04  0.10752633699E+04  0.91205930352E+02 0.  0.
         23    2    1    2    0    0 -0.15781857122E+03 -0.57289498761E+02 -0.35228848110E+03  0.39977866264E+03  0.86758383393E+02 0.  0.
         11    1    3    3    0    0  0.17478766134E+03  0.68047025834E+02 -0.90892478040E+03  0.92807617183E+03  0.00000000000E+00 0. -1.
        -12    1    3    3    0    0 -0.22540601963E+01  0.31302483880E+02 -0.14380245124E+03  0.14718719805E+03  0.00000000000E+00 0.  1.
        -13    1    4    4    0    0 -0.79272765475E+02  0.16441507302E+02 -0.14015003909E+03  0.16185341505E+03  0.00000000000E+00 0. -1.
         13    1    4    4    0    0 -0.78545805748E+02 -0.73731006063E+02 -0.21213844202E+03  0.23792524758E+03  0.00000000000E+00 0.  1.
          2    1    1    2  501    0 -0.14715029922E+02 -0.42060010952E+02 -0.35809360776E+02  0.57165434889E+02  0.00000000000E+00 0. -1.
<scales pt_clust_5="13000.00000" pt_clust_6="13000.00000" pt_clust_7="13000.00000" pt_clust_8="13000.00000" pt_clust_9="44.55981"></scales>
<clustering>
<clus scale="   44.560">  1  9  2 -1</clus>
<clus scale="   86.758">  7  8 -1 -1</clus>
<clus scale="   91.206">  5  6 -1 -1</clus>
<clus scale="  207.478">  1  7  2 -1</clus>
<clus scale="   44.560">  1  5  2 -1</clus>
</clustering>
</event>
<event>
 9    1  0.3197504E-005  0.9651987E+02  0.7546771E-02  0.1294619E+00
          1   -1    0    0  502    0 -0.00000000000E+00  0.00000000000E+00  0.47679567949E+03  0.47679567949E+03  0.00000000000E+00 0. -1.
         21   -1    0    0  501  502  0.00000000000E+00 -0.00000000000E+00 -0.73427796227E+02  0.73427796227E+02  0.00000000000E+00 0.  1.
        -24    2    1    2    0    0  0.10795123336E+02  0.22159302982E+02  0.39056660646E+03  0.39948819993E+03  0.80255706362E+02 0.  0.
         23    2    1    2    0    0 -0.29204629652E+02 -0.55201977860E+02  0.16412093548E+02  0.11273835113E+03  0.92414340063E+02 0.  0.
         13    1    3    3    0    0  0.27969985923E+02  0.39402463474E+02  0.14765494457E+03  0.15536040968E+03  0.00000000000E+00 0. -1.
        -14    1    3    3    0    0 -0.17174862587E+02 -0.17243160492E+02  0.24291166189E+03  0.24412779025E+03  0.00000000000E+00 0.  1.
        -13    1    4    4    0    0 -0.52096877300E+01 -0.60216427139E+02 -0.24359073694E+02  0.65165354406E+02  0.00000000000E+00 0.  1.
         13    1    4    4    0    0 -0.23994941922E+02  0.50144492797E+01  0.40771167242E+02  0.47572996728E+02  0.00000000000E+00 0. -1.
          2    1    1    2  501    0  0.18409506317E+02  0.33042674878E+02 -0.36108167420E+01  0.37996924658E+02  0.00000000000E+00 0. -1.
<scales pt_clust_5="13000.00000" pt_clust_6="13000.00000" pt_clust_7="13000.00000" pt_clust_8="13000.00000" pt_clust_9="37.82497"></scales>
<clustering>
<clus scale="   37.825">  2  9  1 -1</clus>
<clus scale="   80.256">  5  6 -1 -1</clus>
<clus scale="   84.951">  1  5  2 -1</clus>
<clus scale="   92.414">  7  8 -1 -1</clus>
<clus scale="   37.825">  2  5  1 -1</clus>
</clustering>
</event>
<event>
 9    1  0.3197504E-005  0.1240827E+03  0.7546771E-02  0.1240225E+00
          1   -1    0    0  502    0 -0.00000000000E+00  0.00000000000E+00  0.73873154873E+03  0.73873154873E+03  0.00000000000E+00 0. -1.
         21   -1    0    0  501  502  0.00000000000E+00 -0.00000000000E+00 -0.83820052635E+02  0.83820052635E+02  0.00000000000E+00 0. -1.
         23    2    1    2    0    0  0.31055381277E+02 -0.75870836517E+02  0.58672836240E+03  0.59944445349E+03  0.91447586285E+02 0.  0.
        -24    2    1    2    0    0 -0.16260215509E+02  0.91804414574E+02  0.11737580209E+03  0.16932337279E+03  0.78745669816E+02 0.  0.
         13    1    4    4    0    0  0.30234560566E+02  0.22726834594E+02  0.46772889561E+02  0.60152646335E+02  0.00000000000E+00 0. -1.
        -14    1    4    4    0    0 -0.46494776075E+02  0.69077579980E+02  0.70602912528E+02  0.10917072646E+03  0.00000000000E+00 0.  1.
        -13    1    3    3    0    0  0.51206308452E+02 -0.86086376026E+02  0.48569951487E+03  0.49592032517E+03  0.00000000000E+00 0. -1.
         13    1    3    3    0    0 -0.20150927175E+02  0.10215539508E+02  0.10102884752E+03  0.10352412832E+03  0.00000000000E+00 0.  1.
          2    1    1    2  501    0 -0.14795165769E+02 -0.15933578056E+02 -0.49192668386E+02  0.53783775088E+02  0.00000000000E+00 0. -1.
<scales pt_clust_5="13000.00000" pt_clust_6="13000.00000" pt_clust_7="13000.00000" pt_clust_8="13000.00000" pt_clust_9="21.74341"></scales>
<clustering>
<clus scale="   21.743">  2  9  1 -1</clus>
<clus scale="   78.746">  5  6 -1 -1</clus>
<clus scale="   91.448">  7  8 -1 -1</clus>
<clus scale="  115.042">  2  5  1 -1</clus>
<clus scale="   21.743">  2  5  1 -1</clus>
</clustering>
</event>
<event>
 9    1  0.3197504E-005  0.1945717E+03  0.7546771E-02  0.1155593E+00
         21   -1    0    0  501  502  0.00000000000E+00  0.00000000000E+00  0.58721691637E+02  0.58721691637E+02  0.00000000000E+00 0. -1.
          1   -1    0    0  502    0 -0.00000000000E+00 -0.00000000000E+00 -0.95573804833E+03  0.95573804833E+03  0.00000000000E+00 0. -1.
        -24    2    1    2    0    0 -0.10219946923E+03 -0.12779640903E+03 -0.37099218323E+03  0.41337691894E+03  0.80427752846E+02 0.  0.
         23    2    1    2    0    0  0.46118004356E+02  0.18398256507E+03 -0.39764995264E+03  0.45014589577E+03  0.92354686222E+02 0.  0.
         11    1    3    3    0    0 -0.79376698842E+02 -0.72961742781E+02 -0.31012975696E+03  0.32833602053E+03  0.00000000000E+00 0. -1.
        -12    1    3    3    0    0 -0.22822770386E+02 -0.54834666253E+02 -0.60862426268E+02  0.85040898410E+02  0.00000000000E+00 0.  1.
        -11    1    4    4    0    0  0.50233927812E+02  0.90064801250E+02 -0.12678121579E+03  0.16342763721E+03  0.00000000000E+00 0. -1.
         11    1    4    4    0    0 -0.41159234564E+01  0.93917763820E+02 -0.27086873685E+03  0.28671825856E+03  0.00000000000E+00 0.  1.
          2    1    1    2  501    0  0.56081464872E+02 -0.56186156036E+02 -0.12837422082E+03  0.15093692525E+03  0.00000000000E+00 0. -1.
<scales pt_clust_5="13000.00000" pt_clust_6="13000.00000" pt_clust_7="13000.00000" pt_clust_8="13000.00000" pt_clust_9="79.38523"></scales>
<clustering>
<clus scale="   79.385">  1  9  2 -1</clus>
<clus scale="   80.428">  5  6 -1 -1</clus>
<clus scale="   92.355">  7  8 -1 -1</clus>
<clus scale="  189.202">  2  5  1 -1</clus>
<clus scale="   79.385">  1  5  2 -1</clus>
</clustering>
</event>
<event>
 9    1  0.3197504E-005  0.1889848E+03  0.7546771E-02  0.1175077E+00
          1   -1    0    0  502    0 -0.00000000000E+00  0.00000000000E+00  0.98467435417E+03  0.98467435417E+03  0.00000000000E+00 0. -1.
         21   -1    0    0  501  502  0.00000000000E+00 -0.00000000000E+00 -0.74295953718E+02  0.74295953718E+02  0.00000000000E+00 0. -1.
        -24    2    1    2    0    0  0.70873158628E+02 -0.73129267695E+02  0.39712565804E+03  0.41840803228E+03  0.83579894709E+02 0.  0.
         23    2    1    2    0    0  0.12078768934E+03  0.24690042058E+02  0.36142298836E+03  0.39129833229E+03  0.85372971484E+02 0.  0.
         13    1    3    3    0    0  0.67554802981E+02 -0.72622756996E+02  0.40111400972E+03  0.41319506898E+03  0.00000000000E+00 0. -1.
        -14    1    3    3    0    0  0.33183556468E+01 -0.50651069857E+00 -0.39883516780E+01  0.52129633026E+01  0.00000000000E+00 0.  1.
        -13    1    4    4    0    0  0.78685145600E+02 -0.26629578693E+02  0.18473234165E+03  0.20255005468E+03  0.00000000000E+00 0.  1.
         13    1    4    4    0    0  0.42102543737E+02  0.51319620751E+02  0.17669064671E+03  0.18874827761E+03  0.00000000000E+00 0. -1.
          2    1    1    2  501    0 -0.19166084797E+03  0.48439225637E+02  0.15182975405E+03  0.24926394331E+03  0.00000000000E+00 0. -1.
<scales pt_clust_5="13000.00000" pt_clust_6="13000.00000" pt_clust_7="13000.00000" pt_clust_8="13000.00000" pt_clust_9="168.60224"></scales>
<clustering>
<clus scale="   83.580">  5  6 -1 -1</clus>
<clus scale="   85.373">  7  8 -1 -1</clus>
<clus scale="  131.744">  1  5  2 -1</clus>
<clus scale="  168.602">  2  9  1 -1</clus>
<clus scale="  168.602">  2  5  1 -1</clus>
</clustering>
</event>
<event>
 9    1  0.3197504E-005  0.1283460E+03  0.7546771E-02  0.1234259E+00
         21   -1    0    0  501  502  0.00000000000E+00  0.00000000000E+00  0.85626564066E+02  0.85626564066E+02  0.00000000000E+00 0.  1.
          1   -1    0    0  502    0 -0.00000000000E+00 -0.00000000000E+00 -0.27070432925E+03  0.27070432925E+03  0.00000000000E+00 0. -1.
        -24    2    1    2    0    0  0.50056793246E+02  0.57126055656E+02 -0.12049014545E+03  0.17697743492E+03  0.10504317462E+03 0.  0.
         23    2    1    2    0    0 -0.70506268521E+02 -0.27786016704E+02 -0.77011978296E+02  0.14149340544E+03  0.91358318481E+02 0.  0.
         13    1    3    3    0    0 -0.12767977537E+02  0.32029635270E+02 -0.10077604474E+03  0.10651164246E+03  0.00000000000E+00 0. -1.
        -14    1    3    3    0    0  0.62824770783E+02  0.25096420387E+02 -0.19714100713E+02  0.70465792460E+02  0.00000000000E+00 0.  1.
        -13    1    4    4    0    0  0.42079938091E+01 -0.37011223515E+02 -0.54872934307E+01  0.37651670178E+02  0.00000000000E+00 0. -1.
         13    1    4    4    0    0 -0.74714262330E+02  0.92252068109E+01 -0.71524684866E+02  0.10384173526E+03  0.00000000000E+00 0.  1.
          2    1    1    2  501    0  0.20449475275E+02 -0.29340038952E+02  0.12424358562E+02  0.37860052964E+02  0.00000000000E+00 0. -1.
<scales pt_clust_5="13000.00000" pt_clust_6="13000.00000" pt_clust_7="13000.00000" pt_clust_8="13000.00000" pt_clust_9="35.76337"></scales>
<clustering>
<clus scale="   35.763">  1  9  2 -1</clus>
<clus scale="   91.358">  7  8 -1 -1</clus>
<clus scale="  105.043">  5  6 -1 -1</clus>
<clus scale="  117.409">  1  7  2 -1</clus>
<clus scale="   35.763">  1  5  2 -1</clus>
</clustering>
</event>
<event>
 9    1  0.3197504E-005  0.2168553E+03  0.7546771E-02  0.1137095E+00
         21   -1    0    0  501  502  0.00000000000E+00  0.00000000000E+00  0.76350058396E+03  0.76350058396E+03  0.00000000000E+00 0. -1.
          1   -1    0    0  502    0 -0.00000000000E+00 -0.00000000000E+00 -0.82638744502E+02  0.82638744502E+02  0.00000000000E+00 0. -1.
         23    2    1    2    0    0  0.10696850825E+03  0.17549947225E+03  0.19042636367E+03  0.29471997739E+03  0.91407541124E+02 0.  0.
        -24    2    1    2    0    0 -0.56731233870E+02 -0.17519347887E+03  0.40986551389E+03  0.45646991122E+03  0.80398087264E+02 0.  0.
         11    1    4    4    0    0 -0.16772532527E+02 -0.21391206208E+02  0.14552559175E+03  0.14804255944E+03  0.00000000000E+00 0. -1.
        -12    1    4    4    0    0 -0.39958701344E+02 -0.15380227266E+03  0.26433992214E+03  0.30842735178E+03  0.00000000000E+00 0.  1.
        -11    1    3    3    0    0  0.78750251076E+02  0.11070856038E+03  0.17643003337E+03  0.22267811761E+03  0.00000000000E+00 0. -1.
         11    1    3    3    0    0  0.28218257173E+02  0.64790911864E+02  0.13996330295E+02  0.72041859775E+02  0.00000000000E+00 0.  1.
          2    1    1    2  501    0 -0.50237274379E+02 -0.30599337537E+00  0.80569961901E+02  0.94949439860E+02  0.00000000000E+00 0. -1.
<scales pt_clust_5="13000.00000" pt_clust_6="13000.00000" pt_clust_7="13000.00000" pt_clust_8="13000.00000" pt_clust_9="50.23821"></scales>
<clustering>
<clus scale="   50.238">  1  9  2 -1</clus>
<clus scale="   80.398">  5  6 -1 -1</clus>
<clus scale="   91.408">  7  8 -1 -1</clus>
<clus scale="  212.449">  1  5  2 -1</clus>
<clus scale="   50.238">  1  5  2 -1</clus>
</clustering>
</event>
<event>
 9    1  0.3197504E-005  0.9054439E+02  0.7546771E-02  0.1306706E+00
         21   -1    0    0  501  502  0.00000000000E+00  0.00000000000E+00  0.39350152828E+03  0.39350152828E+03  0.00000000000E+00 0. -1.
          1   -1    0    0  502    0 -0.00000000000E+00 -0.00000000000E+00 -0.40159268575E+02  0.40159268575E+02  0.00000000000E+00 0. -1.
         23    2    1    2    0    0 -0.11195955924E+02  0.97189848448E+01  0.64391575675E+02  0.11191797880E+03  0.90330232292E+02 0.  0.
        -24    2    1    2    0    0 -0.16455338528E+02 -0.15524156941E+01  0.99333923861E+02  0.12994656503E+03  0.82132168928E+02 0.  0.
         11    1    4    4    0    0 -0.69732770652E+01  0.36125149803E+02  0.20644667403E+02  0.42188331722E+02  0.00000000000E+00 0. -1.
        -12    1    4    4    0    0 -0.94820614627E+01 -0.37677565497E+02  0.78689256458E+02  0.87758233308E+02  0.00000000000E+00 0.  1.
        -11    1    3    3    0    0  0.34658021224E+02  0.11888110330E+02  0.53321357133E+02  0.64696775258E+02  0.00000000000E+00 0. -1.
         11    1    3    3    0    0 -0.45853977147E+02 -0.21691254850E+01  0.11070218542E+02  0.47221203544E+02  0.00000000000E+00 0.  1.
          2    1    1    2  501    0  0.27651294451E+02 -0.81665691507E+01  0.18961676017E+03  0.19179625303E+03  0.00000000000E+00 0. -1.
<scales pt_clust_5="13000.00000" pt_clust_6="13000.00000" pt_clust_7="13000.00000" pt_clust_8="13000.00000" pt_clust_9="28.83205"></scales>
<clustering>
<clus scale="   28.832">  1  9  2 -1</clus>
<clus scale="   82.132">  5  6 -1 -1</clus>
<clus scale="   82.368">  1  5  2 -1</clus>
<clus scale="   90.330">  7  8 -1 -1</clus>
<clus scale="   28.832">  1  5  2 -1</clus>
</clustering>
</event>
<event>
 9    1  0.3197504E-005  0.1080557E+03  0.7546771E-02  0.1267515E+00
         21   -1    0    0  501  502  0.00000000000E+00  0.00000000000E+00  0.19349597670E+03  0.19349597670E+03  0.00000000000E+00 0. -1.
         -4   -1    0    0    0  501 -0.00000000000E+00 -0.00000000000E+00 -0.21083958297E+03  0.21083958297E+03  0.00000000000E+00 0.  1.
        -24    2    1    2    0    0  0.46060773866E+02  0.39886035116E+02 -0.16922819442E+03  0.19733655392E+03  0.81185239066E+02 0.  0.
         23    2    1    2    0    0 -0.26379230522E+02 -0.56307066936E+02  0.14322680011E+03  0.17994404819E+03  0.89440452921E+02 0.  0.
         11    1    3    3    0    0  0.44268908778E+02  0.49207396790E+02 -0.65312749321E+02  0.92988490724E+02  0.00000000000E+00 0. -1.
        -12    1    3    3    0    0  0.17918650881E+01 -0.93213616743E+01 -0.10391544510E+03  0.10434806320E+03  0.00000000000E+00 0.  1.
        -13    1    4    4    0    0  0.22734955480E+01 -0.68279018412E+02  0.59325408692E+02  0.90480369439E+02  0.00000000000E+00 0. -1.
         13    1    4    4    0    0 -0.28652726070E+02  0.11971951477E+02  0.83901391421E+02  0.89463678751E+02  0.00000000000E+00 0.  1.
         -3    1    1    2    0  502 -0.19681543344E+02  0.16421031820E+02  0.86577880381E+01  0.27054957552E+02  0.00000000000E+00 0.  1.
<scales pt_clust_5="13000.00000" pt_clust_6="13000.00000" pt_clust_7="13000.00000" pt_clust_8="13000.00000" pt_clust_9="25.63227"></scales>
<clustering>
<clus scale="   25.632">  1  9  2 -1</clus>
<clus scale="   81.185">  5  6 -1 -1</clus>
<clus scale="   89.440">  7  8 -1 -1</clus>
<clus scale="  101.329">  2  5  1 -1</clus>
<clus scale="   25.632">  1  5  2 -1</clus>
</clustering>
</event>
<event>
 9    1  0.3197504E-005  0.9852046E+02  0.7546771E-02  0.1289445E+00
          3   -1    0    0  502    0 -0.00000000000E+00  0.00000000000E+00  0.44562803773E+02  0.44562803773E+02  0.00000000000E+00 0. -1.
         21   -1    0    0  501  502  0.00000000000E+00 -0.00000000000E+00 -0.31203037050E+03  0.31203037050E+03  0.00000000000E+00 0.  1.
         23    2    1    2    0    0  0.63175612834E+01  0.66252135907E+02 -0.48491375132E+02  0.10636404666E+03  0.67324882967E+02 0.  0.
        -24    2    1    2    0    0  0.33138660721E+01 -0.36960170374E+02 -0.14384385946E+03  0.16901551441E+03  0.80611117749E+02 0.  0.
         13    1    4    4    0    0  0.36227768563E+02 -0.32163351306E+02 -0.50761259863E+02  0.70168638901E+02  0.00000000000E+00 0. -1.
        -14    1    4    4    0    0 -0.32913902491E+02 -0.47968190679E+01 -0.93082599593E+02  0.98846875506E+02  0.00000000000E+00 0.  1.
        -11    1    3    3    0    0 -0.17164160423E+02  0.47901478237E+02 -0.55965702952E+02  0.75639407237E+02  0.00000000000E+00 0.  1.
         11    1    3    3    0    0  0.23481721707E+02  0.18350657670E+02  0.74743278191E+01  0.30724639421E+02  0.00000000000E+00 0. -1.
          4    1    1    2  501    0 -0.96314273555E+01 -0.29291965533E+02 -0.75132332135E+02  0.81213613205E+02  0.00000000000E+00 0. -1.
<scales pt_clust_5="13000.00000" pt_clust_6="13000.00000" pt_clust_7="13000.00000" pt_clust_8="13000.00000" pt_clust_9="30.83478"></scales>
<clustering>
<clus scale="   30.835">  2  9  1 -1</clus>
<clus scale="   67.325">  7  8 -1 -1</clus>
<clus scale="   80.611">  5  6 -1 -1</clus>
<clus scale="   87.982">  1  7  2 -1</clus>
<clus scale="   30.835">  2  5  1 -1</clus>
</clustering>
</event>
<event>
 9    1  0.3197504E-005  0.8587350E+02  0.7546771E-02  0.1314593E+00
         21   -1    0    0  501  502  0.00000000000E+00  0.00000000000E+00  0.49320087767E+02  0.49320087767E+02  0.00000000000E+00 0.  1.
          3   -1    0    0  502    0 -0.00000000000E+00 -0.00000000000E+00 -0.22277567540E+03  0.22277567540E+03  0.00000000000E+00 0. -1.
         23    2    1    2    0    0  0.75942548345E+01 -0.11459556557E+00 -0.10872427242E+03  0.13793573336E+03  0.84543558515E+02 0.  0.
        -24    2    1    2    0    0 -0.19187786868E+02  0.21349324708E+02 -0.66865569570E+02  0.10987261025E+03  0.82322665524E+02 0.  0.
         13    1    4    4    0    0  0.29564805018E+02 -0.46349563642E+01 -0.12717048422E+02  0.32515901292E+02  0.00000000000E+00 0. -1.
        -14    1    4    4    0    0 -0.48752591886E+02  0.25984281072E+02 -0.54148521148E+02  0.77356708959E+02  0.00000000000E+00 0.  1.
        -13    1    3    3    0    0  0.21272290099E+02  0.22928071083E+02 -0.10655640253E+03  0.11105167127E+03  0.00000000000E+00 0.  1.
         13    1    3    3    0    0 -0.13678035264E+02 -0.23042666649E+02 -0.21678698845E+01  0.26884062097E+02  0.00000000000E+00 0. -1.
          4    1    1    2  501    0  0.11593532033E+02 -0.21234729142E+02  0.21342543603E+01  0.24287419551E+02  0.00000000000E+00 0. -1.
<scales pt_clust_5="13000.00000" pt_clust_6="13000.00000" pt_clust_7="13000.00000" pt_clust_8="13000.00000" pt_clust_9="24.19346"></scales>
<clustering>
<clus scale="   24.193">  1  9  2 -1</clus>
<clus scale="   82.323">  5  6 -1 -1</clus>
<clus scale="   83.688">  1  5  2 -1</clus>
<clus scale="   84.544">  7  8 -1 -1</clus>
<clus scale="   24.193">  1  5  2 -1</clus>
</clustering>
</event>
<event>
 9    1  0.3197504E-005  0.2252348E+03  0.7546771E-02  0.1155545E+00
         -2   -1    0    0    0  501 -0.00000000000E+00  0.00000000000E+00  0.20541827365E+04  0.20541827365E+04  0.00000000000E+00 0.  1.
         21   -1    0    0  501  502  0.00000000000E+00 -0.00000000000E+00 -0.40190244835E+02  0.40190244835E+02  0.00000000000E+00 0.  1.
         23    2    1    2    0    0 -0.80524072941E+02 -0.60042421390E+01  0.31323934732E+03  0.33619845131E+03  0.91598759311E+02 0.  0.
        -24    2    1    2    0    0  0.22523121808E+03 -0.10697701975E+03  0.92218484746E+03  0.95825358624E+03  0.75178842154E+02 0.  0.
         13    1    4    4    0    0  0.41601532324E+02 -0.41550082476E+02  0.13421844781E+03  0.14653221004E+03  0.00000000000E+00 0. -1.
        -14    1    4    4    0    0  0.18362968576E+03 -0.65426937272E+02  0.78796639965E+03  0.81172137621E+03  0.00000000000E+00 0.  1.
        -13    1    3    3    0    0 -0.58623583079E+02 -0.47317614214E+02  0.19558529765E+03  0.20959315295E+03  0.00000000000E+00 0.  1.
         13    1    3    3    0    0 -0.21900489862E+02  0.41313372075E+02  0.11765404968E+03  0.12660529836E+03  0.00000000000E+00 0. -1.
         -1    1    1    2    0  502 -0.14470714514E+03  0.11298126189E+03  0.77856829691E+03  0.79992094381E+03  0.00000000000E+00 0.  1.
<scales pt_clust_5="13000.00000" pt_clust_6="13000.00000" pt_clust_7="13000.00000" pt_clust_8="13000.00000" pt_clust_9="212.31781"></scales>
<clustering>
<clus scale="   75.179">  5  6 -1 -1</clus>
<clus scale="   91.599">  7  8 -1 -1</clus>
<clus scale="  122.109">  1  7  2 -1</clus>
<clus scale="  212.318">  2  9  1 -1</clus>
<clus scale="  212.318">  2  5  1 -1</clus>
</clustering>
</event>
<event>
 9    1  0.3197504E-005  0.9744343E+02  0.7546771E-02  0.1288854E+00
         -2   -1    0    0    0  501 -0.00000000000E+00  0.00000000000E+00  0.29474380646E+03  0.29474380646E+03  0.00000000000E+00 0.  1.
         21   -1    0    0  501  502  0.00000000000E+00 -0.00000000000E+00 -0.51976753454E+02  0.51976753454E+02  0.00000000000E+00 0.  1.
        -24    2    1    2    0    0  0.41922035867E+01  0.37714134795E+02  0.19319091716E+03  0.21482778918E+03  0.85955325599E+02 0.  0.
         23    2    1    2    0    0  0.21821280996E+01 -0.14898096689E+02  0.22128434963E+02  0.95635633734E+02  0.91813897847E+02 0.  0.
         11    1    3    3    0    0  0.26146956748E+02 -0.19456383100E+02  0.61885865936E+02  0.69943367042E+02  0.00000000000E+00 0. -1.
        -12    1    3    3    0    0 -0.21954753162E+02  0.57170517895E+02  0.13130505122E+03  0.14488442214E+03  0.00000000000E+00 0.  1.
        -11    1    4    4    0    0 -0.24631648142E+02  0.28650833517E+02  0.23463972295E+02  0.44476357172E+02  0.00000000000E+00 0. -1.
         11    1    4    4    0    0  0.26813776242E+02 -0.43548930206E+02 -0.13355373321E+01  0.51159276562E+02  0.00000000000E+00 0.  1.
         -1    1    1    2    0  502 -0.63743316863E+01 -0.22816038107E+02  0.27447700887E+02  0.36257136998E+02  0.00000000000E+00 0.  1.
<scales pt_clust_5="13000.00000" pt_clust_6="13000.00000" pt_clust_7="13000.00000" pt_clust_8="13000.00000" pt_clust_9="23.68975"></scales>
<clustering>
<clus scale="   23.690">  2  9  1 -1</clus>
<clus scale="   85.955">  5  6 -1 -1</clus>
<clus scale="   91.814">  7  8 -1 -1</clus>
<clus scale="   91.944">  1  5  2 -1</clus>
<clus scale="   23.690">  2  5  1 -1</clus>
</clustering>
</event>
<event>
 9    1  0.3197504E-005  0.1149903E+03  0.7546771E-02  0.1256709E+00
         21   -1    0    0  501  502  0.00000000000E+00  0.00000000000E+00  0.11951047220E+03  0.11951047220E+03  0.00000000000E+00 0.  1.
          1   -1    0    0  502    0 -0.00000000000E+00 -0.00000000000E+00 -0.34491936008E+03  0.34491936008E+03  0.00000000000E+00 0. -1.
        -24    2    1    2    0    0  0.65073577886E+02 -0.13233503387E+02 -0.25597403509E+03  0.27609349835E+03  0.79342403808E+02 0.  0.
         23    2    1    2    0    0 -0.76326504620E+02 -0.36203465552E+01  0.73195076739E+02  0.14113472897E+03  0.93395129669E+02 0.  0.
         11    1    3    3    0    0  0.61279210190E+02 -0.11254524145E+02 -0.26166093793E+03  0.26897630445E+03  0.00000000000E+00 0. -1.
        -12    1    3    3    0    0  0.37943676961E+01 -0.19789792412E+01  0.56869028460E+01  0.71171939014E+01  0.00000000000E+00 0.  1.
        -13    1    4    4    0    0 -0.31617829807E+02  0.42753187777E+02  0.17500034180E+02  0.55980116319E+02  0.00000000000E+00 0. -1.
         13    1    4    4    0    0 -0.44708674814E+02 -0.46373534332E+02  0.55695042559E+02  0.85154612651E+02  0.00000000000E+00 0.  1.
          2    1    1    2  501    0  0.11252926734E+02  0.16853849942E+02 -0.42629929534E+02  0.47201604952E+02  0.00000000000E+00 0. -1.
<scales pt_clust_5="13000.00000" pt_clust_6="13000.00000" pt_clust_7="13000.00000" pt_clust_8="13000.00000" pt_clust_9="20.26527"></scales>
<clustering>
<clus scale="   20.265">  1  9  2 -1</clus>
<clus scale="   79.342">  5  6 -1 -1</clus>
<clus scale="   93.395">  7  8 -1 -1</clus>
<clus scale="  103.901">  2  5  1 -1</clus>
<clus scale="   20.265">  1  5  2 -1</clus>
</clustering>
</event>
<event>
 9    1  0.3197504E-005  0.1036154E+03  0.7546771E-02  0.1282154E+00
         -4   -1    0    0    0  501 -0.00000000000E+00  0.00000000000E+00  0.16498447764E+03  0.16498447764E+03  0.00000000000E+00 0.  1.
         21   -1    0    0  501  502  0.00000000000E+00 -0.00000000000E+00 -0.26018602373E+03  0.26018602373E+03  0.00000000000E+00 0.  1.
         23    2    1    2    0    0  0.34613521698E+02  0.49289240379E+01  0.12434957839E+03  0.16222938448E+03  0.98148690090E+02 0.  0.
        -24    2    1    2    0    0 -0.26054053269E+02  0.25113959057E+02 -0.76662240101E+02  0.11667740778E+03  0.80168533713E+02 0.  0.
         11    1    4    4    0    0 -0.14609525545E+02 -0.28257893910E+02 -0.39152501011E+02  0.50446656384E+02  0.00000000000E+00 0. -1.
        -12    1    4    4    0    0 -0.11444527724E+02  0.53371852967E+02 -0.37509739090E+02  0.66230751396E+02  0.00000000000E+00 0.  1.
        -11    1    3    3    0    0  0.53863788951E+02 -0.65141509451E+01  0.12847163949E+03  0.13945861062E+03  0.00000000000E+00 0.  1.
         11    1    3    3    0    0 -0.19250267253E+02  0.11443074983E+02 -0.41220611024E+01  0.22770773858E+02  0.00000000000E+00 0. -1.
         -3    1    1    2    0  502 -0.85594684293E+01 -0.30042883094E+02 -0.14288888437E+03  0.14626370911E+03  0.00000000000E+00 0.  1.
<scales pt_clust_5="13000.00000" pt_clust_6="13000.00000" pt_clust_7="13000.00000" pt_clust_8="13000.00000" pt_clust_9="31.23843"></scales>
<clustering>
<clus scale="   31.238">  2  9  1 -1</clus>
<clus scale="   80.169">  5  6 -1 -1</clus>
<clus scale="   86.775">  2  5  1 -1</clus>
<clus scale="   98.149">  7  8 -1 -1</clus>
<clus scale="   31.238">  2  5  1 -1</clus>
</clustering>
</event>
<event>
 9    1  0.3197504E-005  0.1007159E+03  0.7546771E-02  0.1284166E+00
          3   -1    0    0  502    0 -0.00000000000E+00  0.00000000000E+00  0.62731081963E+03  0.62731081963E+03  0.00000000000E+00 0. -1.
         21   -1    0    0  501  502  0.00000000000E+00 -0.00000000000E+00 -0.48803909371E+02  0.48803909371E+02  0.00000000000E+00 0. -1.
        -24    2    1    2    0    0  0.11918667724E+02 -0.39058669532E+02  0.15014958851E+03  0.17556680322E+03  0.81309096408E+02 0.  0.
         23    2    1    2    0    0 -0.79966545768E+02 -0.69518476061E+01  0.88368577806E+02  0.15077681862E+03  0.92095965505E+02 0.  0.
         11    1    3    3    0    0 -0.12459065095E+02 -0.54711227149E+02  0.12571023172E+03  0.13766484315E+03  0.00000000000E+00 0. -1.
        -12    1    3    3    0    0  0.24377732818E+02  0.15652557617E+02  0.24439356781E+02  0.37901960071E+02  0.00000000000E+00 0.  1.
        -11    1    4    4    0    0 -0.10819978284E+02  0.35752016953E+02  0.45579973971E+02  0.58930575031E+02  0.00000000000E+00 0.  1.
         11    1    4    4    0    0 -0.69146567484E+02 -0.42703864559E+02  0.42788603835E+02  0.91846243588E+02  0.00000000000E+00 0. -1.
          4    1    1    2  501    0  0.68047878044E+02  0.46010517138E+02  0.33998874395E+03  0.34977110716E+03  0.00000000000E+00 0. -1.
<scales pt_clust_5="13000.00000" pt_clust_6="13000.00000" pt_clust_7="13000.00000" pt_clust_8="13000.00000" pt_clust_9="82.14310"></scales>
<clustering>
<clus scale="   81.309">  5  6 -1 -1</clus>
<clus scale="   82.143">  2  9  1 -1</clus>
<clus scale="   90.957">  1  5  2 -1</clus>
<clus scale="   92.096">  7  8 -1 -1</clus>
<clus scale="   82.143">  2  5  1 -1</clus>
</clustering>
</event>
<event>
 9    1  0.3197504E-005  0.2517288E+03  0.7546771E-02  0.1149675E+00
         21   -1    0    0  501  502  0.00000000000E+00  0.00000000000E+00  0.49326254326E+02  0.49326254326E+02  0.00000000000E+00 0. -1.
          1   -1    0    0  502    0 -0.00000000000E+00 -0.00000000000E+00 -0.18598749371E+04  0.18598749371E+04  0.00000000000E+00 0. -1.
        -24    2    1    2    0    0  0.89728605274E+01  0.58499524435E+02 -0.51403498610E+03  0.52375902852E+03  0.81171709591E+02 0.  0.
         23    2    1    2    0    0  0.11367053247E+02  0.19965133089E+03 -0.71802200809E+03  0.75163761105E+03  0.97023865194E+02 0.  0.
         11    1    3    3    0    0 -0.33642472339E+02  0.39933151856E+02 -0.22274064251E+03  0.22877907769E+03  0.00000000000E+00 0. -1.
        -12    1    3    3    0    0  0.42615332866E+02  0.18566372579E+02 -0.29129434359E+03  0.29497995083E+03  0.00000000000E+00 0.  1.
        -13    1    4    4    0    0  0.30359704921E+02  0.14037176212E+03 -0.61260121255E+03  0.62921076668E+03  0.00000000000E+00 0. -1.
         13    1    4    4    0    0 -0.18992651674E+02  0.59279568764E+02 -0.10542079553E+03  0.12242684437E+03  0.00000000000E+00 0.  1.
          2    1    1    2  501    0 -0.20339913774E+02 -0.25815085532E+03 -0.57849168863E+03  0.63380455190E+03  0.00000000000E+00 0. -1.
<scales pt_clust_5="13000.00000" pt_clust_6="13000.00000" pt_clust_7="13000.00000" pt_clust_8="13000.00000" pt_clust_9="232.27943"></scales>
<clustering>
<clus scale="   81.172">  5  6 -1 -1</clus>
<clus scale="   97.024">  7  8 -1 -1</clus>
<clus scale="  100.457">  2  5  1 -1</clus>
<clus scale="  232.279">  1  9  2 -1</clus>
<clus scale="  232.279">  1  5  2 -1</clus>
</clustering>
</event>
<event>
 9    1  0.3197504E-005  0.9443005E+02  0.7546771E-02  0.1297015E+00
         -2   -1    0    0    0  501 -0.00000000000E+00  0.00000000000E+00  0.28520490004E+03  0.28520490004E+03  0.00000000000E+00 0.  1.
         21   -1    0    0  501  502  0.00000000000E+00 -0.00000000000E+00 -0.97660501166E+02  0.97660501166E+02  0.00000000000E+00 0. -1.
        -24    2    1    2    0    0  0.22615831151E+02 -0.62260870845E+01  0.19204917319E+03  0.20976485676E+03  0.81044248574E+02 0.  0.
         23    2    1    2    0    0 -0.69121888531E+02  0.29462596390E+02  0.14972327842E+02  0.11758382403E+03  0.89195880014E+02 0.  0.
         11    1    3    3    0    0 -0.18533000300E+02 -0.16880760499E+02  0.18685264942E+02  0.31266136651E+02  0.00000000000E+00 0. -1.
        -12    1    3    3    0    0  0.41148831451E+02  0.10654673414E+02  0.17336390825E+03  0.17849872011E+03  0.00000000000E+00 0.  1.
        -11    1    4    4    0    0  0.21299367498E+02  0.42049256739E+01  0.90293114518E+01  0.23513249904E+02  0.00000000000E+00 0.  1.
         11    1    4    4    0    0 -0.90421256029E+02  0.25257670716E+02  0.59430163899E+01  0.94070574123E+02  0.00000000000E+00 0. -1.
         -1    1    1    2    0  502  0.46506057380E+02 -0.23236509306E+02 -0.19477102161E+02  0.55516720422E+02  0.00000000000E+00 0.  1.
<scales pt_clust_5="13000.00000" pt_clust_6="13000.00000" pt_clust_7="13000.00000" pt_clust_8="13000.00000" pt_clust_9="51.98797"></scales>
<clustering>
<clus scale="   51.988">  2  9  1 -1</clus>
<clus scale="   81.044">  5  6 -1 -1</clus>
<clus scale="   86.772">  1  5  2 -1</clus>
<clus scale="   89.196">  7  8 -1 -1</clus>
<clus scale="   51.988">  2  5  1 -1</clus>
</clustering>
</event>
<event>
 9    1  0.3197504E-005  0.1072930E+03  0.7546771E-02  0.1268848E+00
         -2   -1    0    0    0  501 -0.00000000000E+00  0.00000000000E+00  0.29391110165E+03  0.29391110165E+03  0.00000000000E+00 0.  1.
         21   -1    0    0  501  502  0.00000000000E+00 -0.00000000000E+00 -0.61082317746E+02  0.61082317746E+02  0.00000000000E+00 0.  1.
        -24    2    1    2    0    0 -0.50545546102E+02 -0.30352701857E+02  0.17311815538E+03  0.19939744334E+03  0.79456314695E+02 0.  0.
         23    2    1    2    0    0  0.71560388016E+02  0.14940988490E+02  0.61395093356E+02  0.12948119267E+03  0.87475136452E+02 0.  0.
         11    1    3    3    0    0 -0.36797216009E+02  0.22326064634E+02  0.59792574748E+02  0.73672520406E+02  0.00000000000E+00 0. -1.
        -12    1    3    3    0    0 -0.13748330094E+02 -0.52678766491E+02  0.11332558064E+03  0.12572492293E+03  0.00000000000E+00 0.  1.
        -13    1    4    4    0    0  0.24484984757E+01 -0.25334947605E+02 -0.44948089284E+01  0.25846818416E+02  0.00000000000E+00 0.  1.
         13    1    4    4    0    0  0.69111889541E+02  0.40275936095E+02  0.65889902285E+02  0.10363437426E+03  0.00000000000E+00 0. -1.
         -1    1    1    2    0  502 -0.21014841914E+02  0.15411713367E+02 -0.16844648361E+01  0.26114783387E+02  0.00000000000E+00 0.  1.
<scales pt_clust_5="13000.00000" pt_clust_6="13000.00000" pt_clust_7="13000.00000" pt_clust_8="13000.00000" pt_clust_9="26.06040"></scales>
<clustering>
<clus scale="   26.060">  2  9  1 -1</clus>
<clus scale="   79.456">  5  6 -1 -1</clus>
<clus scale="   87.475">  7  8 -1 -1</clus>
<clus scale="  100.862">  1  5  2 -1</clus>
<clus scale="   26.060">  2  5  1 -1</clus>
</clustering>
</event>
<event>
 9    1  0.3197504E-005  0.2157619E+03  0.7546771E-02  0.1167993E+00
         -2   -1    0    0    0  501 -0.00000000000E+00  0.00000000000E+00  0.19461293982E+03  0.19461293982E+03  0.00000000000E+00 0.  1.
         21   -1    0    0  501  502  0.00000000000E+00 -0.00000000000E+00 -0.39495034246E+03  0.39495034246E+03  0.00000000000E+00 0.  1.
        -24    2    1    2    0    0  0.66663387523E+02 -0.80499937079E+01 -0.78903097858E+02  0.13059014912E+03  0.79493890083E+02 0.  0.
         23    2    1    2    0    0 -0.24104449533E+03  0.18987123286E+02 -0.26019499500E+02  0.25989431302E+03  0.91679223438E+02 0.  0.
         13    1    3    3    0    0  0.28362350983E+02  0.21332339652E+02  0.28980208657E+01  0.35607445756E+02  0.00000000000E+00 0. -1.
        -14    1    3    3    0    0  0.38301036540E+02 -0.29382333360E+02 -0.81801118723E+02  0.94982703362E+02  0.00000000000E+00 0.  1.
        -11    1    4    4    0    0 -0.10002533092E+03  0.47628533947E+02 -0.33679341931E+02  0.11579223698E+03  0.00000000000E+00 0.  1.
         11    1    4    4    0    0 -0.14101916441E+03 -0.28641410661E+02  0.76598424303E+01  0.14410207605E+03  0.00000000000E+00 0. -1.
         -1    1    1    2    0  502  0.17438110780E+03 -0.10937129579E+02 -0.95414805274E+02  0.19907882014E+03  0.00000000000E+00 0.  1.
<scales pt_clust_5="13000.00000" pt_clust_6="13000.00000" pt_clust_7="13000.00000" pt_clust_8="13000.00000" pt_clust_9="195.31544"></scales>
<clustering>
<clus scale="   79.494">  5  6 -1 -1</clus>
<clus scale="   91.679">  7  8 -1 -1</clus>
<clus scale="  104.058">  1  5  2 -1</clus>
<clus scale="  195.315">  2  9  1 -1</clus>
<clus scale="  195.315">  2  5  1 -1</clus>
</clustering>
</event>
<event>
 9    1  0.3197504E-005  0.9533486E+02  0.7546771E-02  0.1295900E+00
         -2   -1    0    0    0  501 -0.00000000000E+00  0.00000000000E+00  0.66441180532E+03  0.66441180532E+03  0.00000000000E+00 0.  1.
         21   -1    0    0  501  502  0.00000000000E+00 -0.00000000000E+00 -0.16528477744E+03  0.16528477744E+03  0.00000000000E+00 0. -1.
        -24    2    1    2    0    0 -0.67798700125E+01  0.30635395028E+02  0.59687551038E+03  0.60323650429E+03  0.81543921570E+02 0.  0.
         23    2    1    2    0    0 -0.17549112857E+01  0.14619191026E+02  0.24666330111E+02  0.95669381560E+02  0.91254601348E+02 0.  0.
         13    1    3    3    0    0  0.23213390266E+01  0.22810843838E+02  0.39064183055E+02  0.45296066157E+02  0.00000000000E+00 0. -1.
        -14    1    3    3    0    0 -0.91012090392E+01  0.78245511896E+01  0.55781132733E+03  0.55794043813E+03  0.00000000000E+00 0.  1.
        -11    1    4    4    0    0 -0.64516703296E+01  0.35677572933E+02 -0.23283687413E+02  0.43088784620E+02  0.00000000000E+00 0. -1.
         11    1    4    4    0    0  0.46967590439E+01 -0.21058381907E+02  0.47950017524E+02  0.52580596941E+02  0.00000000000E+00 0.  1.
         -1    1    1    2    0  502  0.85347812983E+01 -0.45254586054E+02 -0.12241481261E+03  0.13079069691E+03  0.00000000000E+00 0.  1.
<scales pt_clust_5="13000.00000" pt_clust_6="13000.00000" pt_clust_7="13000.00000" pt_clust_8="13000.00000" pt_clust_9="46.05236"></scales>
<clustering>
<clus scale="   46.052">  2  9  1 -1</clus>
<clus scale="   81.544">  5  6 -1 -1</clus>
<clus scale="   86.086">  1  5  2 -1</clus>
<clus scale="   91.255">  7  8 -1 -1</clus>
<clus scale="   46.052">  2  5  1 -1</clus>
</clustering>
</event>
<event>
 9    1  0.3197504E-005  0.1036771E+03  0.7546771E-02  0.1277766E+00
         -2   -1    0    0    0  501 -0.00000000000E+00  0.00000000000E+00  0.16650088862E+03  0.16650088862E+03  0.00000000000E+00 0.  1.
         21   -1    0    0  501  502  0.00000000000E+00 -0.00000000000E+00 -0.10899083305E+03  0.10899083305E+03  0.00000000000E+00 0.  1.
         23    2    1    2    0    0  0.57699590223E+02  0.23596268448E+02  0.32138159877E+02  0.11519461281E+03  0.91383318514E+02 0.  0.
        -24    2    1    2    0    0 -0.31905729398E+02  0.38570897305E+01 -0.31429498974E+02  0.92139874702E+02  0.80430655814E+02 0.  0.
         13    1    4    4    0    0  0.24188266643E+02 -0.12697817186E+02 -0.15974772807E+02  0.31646487495E+02  0.00000000000E+00 0. -1.
        -14    1    4    4    0    0 -0.56093996041E+02  0.16554906917E+02 -0.15454726167E+02  0.60493387207E+02  0.00000000000E+00 0.  1.
        -11    1    3    3    0    0 -0.16266666205E+02  0.32274540991E+02  0.99880450939E+01  0.37496819470E+02  0.00000000000E+00 0. -1.
         11    1    3    3    0    0  0.73966256428E+02 -0.86782725427E+01  0.22150114783E+02  0.77697793336E+02  0.00000000000E+00 0.  1.
         -1    1    1    2    0  502 -0.25793860825E+02 -0.27453358178E+02  0.56801394673E+02  0.68157234160E+02  0.00000000000E+00 0.  1.
<scales pt_clust_5="13000.00000" pt_clust_6="13000.00000" pt_clust_7="13000.00000" pt_clust_8="13000.00000" pt_clust_9="37.66977"></scales>
<clustering>
<clus scale="   37.670">  2  9  1 -1</clus>
<clus scale="   80.431">  5  6 -1 -1</clus>
<clus scale="   91.383">  7  8 -1 -1</clus>
<clus scale="   94.165">  2  5  1 -1</clus>
<clus scale="   37.670">  2  5  1 -1</clus>
</clustering>
</event>
<event>
 9    1  0.3197504E-005  0.2216587E+03  0.7546771E-02  0.1133511E+00
          1   -1    0    0  502    0 -0.00000000000E+00  0.00000000000E+00  0.79864790531E+03  0.79864790531E+03  0.00000000000E+00 0. -1.
         21   -1    0    0  501  502  0.00000000000E+00 -0.00000000000E+00 -0.87988238917E+02  0.87988238917E+02  0.00000000000E+00 0. -1.
         23    2    1    2    0    0 -0.65342631425E+02  0.16007439504E+03  0.26739079737E+03  0.33144887324E+03  0.92016550816E+02 0.  0.
        -24    2    1    2    0    0  0.46690859194E+02 -0.23728131365E+03  0.34145530948E+03  0.42605633823E+03  0.80310751675E+02 0.  0.
         11    1    4    4    0    0  0.51821311469E+02 -0.10018146471E+03  0.19578311099E+03  0.22594866838E+03  0.00000000000E+00 0. -1.
        -12    1    4    4    0    0 -0.51304522748E+01 -0.13709984894E+03  0.14567219848E+03  0.20010766984E+03  0.00000000000E+00 0.  1.
        -13    1    3    3    0    0 -0.52423097210E+02  0.88627691034E+02  0.79723734078E+02  0.13022642787E+03  0.00000000000E+00 0. -1.
         13    1    3    3    0    0 -0.12919534214E+02  0.71446704007E+02  0.18766706329E+03  0.20122244537E+03  0.00000000000E+00 0.  1.
          2    1    1    2  501    0  0.18651772230E+02  0.77206918608E+02  0.10181355955E+03  0.12913093276E+03  0.00000000000E+00 0. -1.
<scales pt_clust_5="13000.00000" pt_clust_6="13000.00000" pt_clust_7="13000.00000" pt_clust_8="13000.00000" pt_clust_9="79.42794"></scales>
<clustering>
<clus scale="   79.428">  2  9  1 -1</clus>
<clus scale="   80.311">  5  6 -1 -1</clus>
<clus scale="   92.017">  7  8 -1 -1</clus>
<clus scale="  217.061">  2  5  1 -1</clus>
<clus scale="   79.428">  2  5  1 -1</clus>
</clustering>
</event>
<event>
 9    1  0.3197504E-005  0.1914005E+03  0.7546771E-02  0.1159634E+00
          1   -1    0    0  502    0 -0.00000000000E+00  0.00000000000E+00  0.64132121176E+03  0.64132121176E+03  0.00000000000E+00 0. -1.
         21   -1    0    0  501  502  0.00000000000E+00 -0.00000000000E+00 -0.75164613843E+02  0.75164613843E+02  0.00000000000E+00 0. -1.
        -24    2    1    2    0    0  0.13320356669E+02  0.17359954923E+03  0.29042003781E+03  0.34854628098E+03  0.82622492241E+02 0.  0.
         23    2    1    2    0    0  0.12096702247E+01 -0.14117134867E+03  0.13055676901E+03  0.21847422552E+03  0.10370681894E+03 0.  0.
         13    1    3    3    0    0  0.44428278509E+02  0.13541521435E+03  0.23026255513E+03  0.27079881186E+03  0.00000000000E+00 0. -1.
        -14    1    3    3    0    0 -0.31107921841E+02  0.38184334878E+02  0.60157482686E+02  0.77747469119E+02  0.00000000000E+00 0.  1.
        -13    1    4    4    0    0 -0.46691118740E+01 -0.27526839996E+02  0.95353525237E+02  0.99357044547E+02  0.00000000000E+00 0.  1.
         13    1    4    4    0    0  0.58787820986E+01 -0.11364450868E+03  0.35203243769E+02  0.11911718097E+03  0.00000000000E+00 0. -1.
          2    1    1    2  501    0 -0.14530026893E+02 -0.32428200556E+02  0.14517979110E+03  0.14946531911E+03  0.00000000000E+00 0. -1.
<scales pt_clust_5="13000.00000" pt_clust_6="13000.00000" pt_clust_7="13000.00000" pt_clust_8="13000.00000" pt_clust_9="35.53465"></scales>
<clustering>
<clus scale="   35.535">  2  9  1 -1</clus>
<clus scale="   82.622">  5  6 -1 -1</clus>
<clus scale="  103.707">  7  8 -1 -1</clus>
<clus scale="  180.847">  1  5  2 -1</clus>
<clus scale="   35.535">  2  5  1 -1</clus>
</clustering>
</event>
<event>
 9    1  0.3197504E-005  0.1088000E+03  0.7546771E-02  0.1278704E+00
          1   -1    0    0  502    0 -0.00000000000E+00  0.00000000000E+00  0.32449829550E+03  0.32449829550E+03  0.00000000000E+00 0. -1.
         21   -1    0    0  501  502  0.00000000000E+00 -0.00000000000E+00 -0.44099149136E+02  0.44099149136E+02  0.00000000000E+00 0. -1.
         23    2    1    2    0    0  0.15607591399E+02 -0.83499671856E+01  0.18632333475E+03  0.21645104243E+03  0.10872603108E+03 0.  0.
        -24    2    1    2    0    0  0.18587707672E+02 -0.32880548667E+01  0.54531113234E+02  0.98587600823E+02  0.79934714262E+02 0.  0.
         11    1    4    4    0    0  0.40425238614E+02 -0.24341462150E+02  0.16607789968E+02  0.50025247468E+02  0.00000000000E+00 0. -1.
        -12    1    4    4    0    0 -0.21837530942E+02  0.21053407283E+02  0.37923323265E+02  0.48562353355E+02  0.00000000000E+00 0.  1.
        -13    1    3    3    0    0  0.18906304941E+02  0.47243012946E+02  0.61885493600E+02  0.80119691442E+02  0.00000000000E+00 0. -1.
         13    1    3    3    0    0 -0.32987135421E+01 -0.55592980131E+02  0.12443784115E+03  0.13633135099E+03  0.00000000000E+00 0.  1.
          2    1    1    2  501    0 -0.34195299071E+02  0.11638022052E+02  0.39544698375E+02  0.53558801381E+02  0.00000000000E+00 0. -1.
<scales pt_clust_5="13000.00000" pt_clust_6="13000.00000" pt_clust_7="13000.00000" pt_clust_8="13000.00000" pt_clust_9="36.12149"></scales>
<clustering>
<clus scale="   36.121">  2  9  1 -1</clus>
<clus scale="   79.935">  5  6 -1 -1</clus>
<clus scale="   80.035">  2  5  1 -1</clus>
<clus scale="  108.726">  7  8 -1 -1</clus>
<clus scale="   36.121">  2  5  1 -1</clus>
</clustering>
</event>
<event>
 9    1  0.3197504E-005  0.9457882E+02  0.7546771E-02  0.1298153E+00
         21   -1    0    0  501  502  0.00000000000E+00  0.00000000000E+00  0.18076986004E+03  0.18076986004E+03  0.00000000000E+00 0. -1.
          1   -1    0    0  502    0 -0.00000000000E+00 -0.00000000000E+00 -0.11124374469E+03  0.11124374469E+03  0.00000000000E+00 0. -1.
        -24    2    1    2    0    0  0.46564011925E+01 -0.34171568678E+02 -0.40126201533E+02  0.95894266233E+02  0.79976371941E+02 0.  0.
         23    2    1    2    0    0  0.33312532170E+02 -0.28885182898E+01  0.10540192886E+03  0.14289194193E+03  0.90501227188E+02 0.  0.
         11    1    3    3    0    0  0.40218547425E+02 -0.20864300408E+02 -0.35667509022E+02  0.57663001902E+02  0.00000000000E+00 0. -1.
        -12    1    3    3    0    0 -0.35562146232E+02 -0.13307268270E+02 -0.44586925113E+01  0.38231264331E+02  0.00000000000E+00 0.  1.
        -13    1    4    4    0    0  0.56416324258E+02  0.24722313639E+01  0.30200227638E+02  0.64038795430E+02  0.00000000000E+00 0.  1.
         13    1    4    4    0    0 -0.23103792088E+02 -0.53607496536E+01  0.75201701221E+02  0.78853146496E+02  0.00000000000E+00 0. -1.
          2    1    1    2  501    0 -0.37968933362E+02  0.37060086968E+02  0.42503880214E+01  0.53227396565E+02  0.00000000000E+00 0. -1.
<scales pt_clust_5="13000.00000" pt_clust_6="13000.00000" pt_clust_7="13000.00000" pt_clust_8="13000.00000" pt_clust_9="53.05745"></scales>
<clustering>
<clus scale="   53.057">  1  9  2 -1</clus>
<clus scale="   79.976">  5  6 -1 -1</clus>
<clus scale="   84.563">  2  5  1 -1</clus>
<clus scale="   90.501">  7  8 -1 -1</clus>
<clus scale="   53.057">  1  5  2 -1</clus>
</clustering>
</event>
<event>
 9    1  0.3197504E-005  0.1017845E+03  0.7546771E-02  0.1285569E+00
         21   -1    0    0  501  502  0.00000000000E+00  0.00000000000E+00  0.45085865595E+03  0.45085865595E+03  0.00000000000E+00 0.  1.
          1   -1    0    0  502    0 -0.00000000000E+00 -0.00000000000E+00 -0.30785002472E+02  0.30785002472E+02  0.00000000000E+00 0. -1.
        -24    2    1    2    0    0 -0.23490184329E+02 -0.10664273281E+01  0.11128113864E+03  0.13950925725E+03  0.80786230354E+02 0.  0.
         23    2    1    2    0    0  0.31138487144E+02 -0.33222351181E+02  0.19155178822E+03  0.21974320522E+03  0.97578986834E+02 0.  0.
         13    1    3    3    0    0  0.10529911275E+02  0.28352594830E+02  0.77702133659E+02  0.83380874547E+02  0.00000000000E+00 0. -1.
        -14    1    3    3    0    0 -0.34020095603E+02 -0.29419022158E+02  0.33579004986E+02  0.56128382708E+02  0.00000000000E+00 0.  1.
        -13    1    4    4    0    0  0.43235470726E+02 -0.61183706913E+02  0.11391688400E+03  0.13634444756E+03  0.00000000000E+00 0. -1.
         13    1    4    4    0    0 -0.12096983582E+02  0.27961355732E+02  0.77634904220E+02  0.83398757661E+02  0.00000000000E+00 0.  1.
          2    1    1    2  501    0 -0.76483028153E+01  0.34288778509E+02  0.11724072661E+03  0.12239119594E+03  0.00000000000E+00 0. -1.
<scales pt_clust_5="13000.00000" pt_clust_6="13000.00000" pt_clust_7="13000.00000" pt_clust_8="13000.00000" pt_clust_9="35.13142"></scales>
<clustering>
<clus scale="   35.131">  1  9  2 -1</clus>
<clus scale="   80.786">  5  6 -1 -1</clus>
<clus scale="   85.819">  2  5  1 -1</clus>
<clus scale="   97.579">  7  8 -1 -1</clus>
<clus scale="   35.131">  1  5  2 -1</clus>
</clustering>
</event>
<event>
 9    1  0.3197504E-005  0.9050990E+02  0.7546771E-02  0.1306279E+00
         -2   -1    0    0    0  501 -0.00000000000E+00  0.00000000000E+00  0.23294461184E+02  0.23294461184E+02  0.00000000000E+00 0.  1.
         21   -1    0    0  501  502  0.00000000000E+00 -0.00000000000E+00 -0.48262853703E+03  0.48262853703E+03  0.00000000000E+00 0. -1.
        -24    2    1    2    0    0  0.83281247630E+00  0.15198957169E+01 -0.13341020323E+03  0.15696168936E+03  0.82678207172E+02 0.  0.
         23    2    1    2    0    0  0.16962348337E+02 -0.17947504507E+02 -0.29637536672E+03  0.31075596525E+03  0.90117022614E+02 0.  0.
         13    1    3    3    0    0  0.21143199896E+02  0.35872276786E+02 -0.81119542497E+02  0.91182428782E+02  0.00000000000E+00 0. -1.
        -14    1    3    3    0    0 -0.20310387420E+02 -0.34352381069E+02 -0.52290660734E+02  0.65779260578E+02  0.00000000000E+00 0.  1.
        -13    1    4    4    0    0 -0.14185694710E+02 -0.47401573113E+02 -0.18217093346E+03  0.18877073943E+03  0.00000000000E+00 0.  1.
         13    1    4    4    0    0  0.31148043047E+02  0.29454068607E+02 -0.11420443326E+03  0.12198522582E+03  0.00000000000E+00 0. -1.
         -1    1    1    2    0  502 -0.17795160813E+02  0.16427608790E+02 -0.29548505903E+02  0.38205343606E+02  0.00000000000E+00 0.  1.
<scales pt_clust_5="13000.00000" pt_clust_6="13000.00000" pt_clust_7="13000.00000" pt_clust_8="13000.00000" pt_clust_9="24.21848"></scales>
<clustering>
<clus scale="   24.218">  2  9  1 -1</clus>
<clus scale="   82.678">  5  6 -1 -1</clus>
<clus scale="   83.106">  1  5  2 -1</clus>
<clus scale="   90.117">  7  8 -1 -1</clus>
<clus scale="   24.218">  2  5  1 -1</clus>
</clustering>
</event>
<event>
 9    1  0.3197504E-005  0.9040544E+02  0.7546771E-02  0.1316411E+00
         21   -1    0    0  501  502  0.00000000000E+00  0.00000000000E+00  0.19478157884E+03  0.19478157884E+03  0.00000000000E+00 0.  1.
          1   -1    0    0  502    0 -0.00000000000E+00 -0.00000000000E+00 -0.34007433547E+03  0.34007433547E+03  0.00000000000E+00 0. -1.
        -24    2    1    2    0    0  0.85945253647E+01 -0.16006479423E+02 -0.30797857596E+03  0.31568097144E+03  0.66884970137E+02 0.  0.
         23    2    1    2    0    0 -0.48285202469E+02  0.66734543386E+01  0.87492104386E+02  0.13363810886E+03  0.88477568008E+02 0.  0.
         13    1    3    3    0    0  0.28546331579E+02 -0.29650477912E+02 -0.24066836941E+03  0.24416246214E+03  0.00000000000E+00 0. -1.
        -14    1    3    3    0    0 -0.19951806215E+02  0.13643998489E+02 -0.67310206552E+02  0.71518509297E+02  0.00000000000E+00 0.  1.
        -11    1    4    4    0    0 -0.12928065266E+02 -0.23055206640E+02 -0.79520005372E+01  0.27602748727E+02  0.00000000000E+00 0. -1.
         11    1    4    4    0    0 -0.35357137203E+02  0.29728660979E+02  0.95444104923E+02  0.10603536014E+03  0.00000000000E+00 0.  1.
          2    1    1    2  501    0  0.39690677105E+02  0.93330250843E+01  0.75193714933E+02  0.85536834005E+02  0.00000000000E+00 0. -1.
<scales pt_clust_5="13000.00000" pt_clust_6="13000.00000" pt_clust_7="13000.00000" pt_clust_8="13000.00000" pt_clust_9="40.77322"></scales>
<clustering>
<clus scale="   40.773">  1  9  2 -1</clus>
<clus scale="   66.885">  5  6 -1 -1</clus>
<clus scale="   69.415">  2  5  1 -1</clus>
<clus scale="   88.478">  7  8 -1 -1</clus>
<clus scale="   40.773">  1  5  2 -1</clus>
</clustering>
</event>
<event>
 9    1  0.3197504E-005  0.1968990E+03  0.7546771E-02  0.1182932E+00
          1   -1    0    0  502    0 -0.00000000000E+00  0.00000000000E+00  0.25051310467E+03  0.25051310467E+03  0.00000000000E+00 0. -1.
         21   -1    0    0  501  502  0.00000000000E+00 -0.00000000000E+00 -0.33679534524E+03  0.33679534524E+03  0.00000000000E+00 0. -1.
        -24    2    1    2    0    0  0.25337150009E+02 -0.48423342893E+02  0.57586358194E+02  0.11332558494E+03  0.80868462611E+02 0.  0.
         23    2    1    2    0    0 -0.18053164217E+03 -0.31862287954E+02  0.52769507294E+02  0.21092838835E+03  0.89996027091E+02 0.  0.
         11    1    3    3    0    0  0.38534572942E+02 -0.51234732168E+02  0.11280133263E+02  0.65093413635E+02  0.00000000000E+00 0. -1.
        -12    1    3    3    0    0 -0.13197422933E+02  0.28113892750E+01  0.46306224931E+02  0.48232171308E+02  0.00000000000E+00 0.  1.
        -13    1    4    4    0    0 -0.21751986743E+02 -0.11869901736E+01 -0.23573926633E+02  0.32098097916E+02  0.00000000000E+00 0.  1.
         13    1    4    4    0    0 -0.15877965543E+03 -0.30675297780E+02  0.76343433928E+02  0.17883029043E+03  0.00000000000E+00 0. -1.
          2    1    1    2  501    0  0.15519449216E+03  0.80285630847E+02 -0.19663810606E+03  0.26305447662E+03  0.00000000000E+00 0. -1.
<scales pt_clust_5="13000.00000" pt_clust_6="13000.00000" pt_clust_7="13000.00000" pt_clust_8="13000.00000" pt_clust_9="175.12828"></scales>
<clustering>
<clus scale="   80.868">  5  6 -1 -1</clus>
<clus scale="   89.996">  7  8 -1 -1</clus>
<clus scale="   97.604">  1  5  2 -1</clus>
<clus scale="  175.128">  2  9  1 -1</clus>
<clus scale="  175.128">  2  5  1 -1</clus>
</clustering>
</event>
<event>
 9    1  0.3197504E-005  0.3034410E+03  0.7546771E-02  0.1083533E+00
          3   -1    0    0  502    0 -0.00000000000E+00  0.00000000000E+00  0.85933471136E+03  0.85933471136E+03  0.00000000000E+00 0. -1.
         21   -1    0    0  501  502  0.00000000000E+00 -0.00000000000E+00 -0.87577857468E+02  0.87577857468E+02  0.00000000000E+00 0.  1.
        -24    2    1    2    0    0 -0.13502597122E+03 -0.30929433954E+02  0.22413089396E+03  0.27556971743E+03  0.80717834152E+02 0.  0.
         23    2    1    2    0    0 -0.99936393747E+02 -0.12405698127E+01  0.12736425153E+03  0.18878495265E+03  0.97104500259E+02 0.  0.
         11    1    3    3    0    0 -0.68500675568E+02 -0.62402158584E+01  0.17827240238E+03  0.19108200411E+03  0.00000000000E+00 0. -1.
        -12    1    3    3    0    0 -0.66525295650E+02 -0.24689218095E+02  0.45858491586E+02  0.84487713320E+02  0.00000000000E+00 0.  1.
        -13    1    4    4    0    0 -0.10289739798E+03 -0.28951122308E+02  0.11839253772E+03  0.15950810319E+03  0.00000000000E+00 0.  1.
         13    1    4    4    0    0  0.29610042360E+01  0.27710552496E+02  0.89717138067E+01  0.29276849460E+02  0.00000000000E+00 0. -1.
          4    1    1    2  501    0  0.23496236497E+03  0.32170003766E+02  0.42026170840E+03  0.48255789875E+03  0.00000000000E+00 0. -1.
<scales pt_clust_5="13000.00000" pt_clust_6="13000.00000" pt_clust_7="13000.00000" pt_clust_8="13000.00000" pt_clust_9="237.15455"></scales>
<clustering>
<clus scale="   80.718">  5  6 -1 -1</clus>
<clus scale="   97.105">  7  8 -1 -1</clus>
<clus scale="  108.718">  5  7 -1 -1</clus>
<clus scale="  237.155">  2  9  1 -1</clus>
<clus scale="  237.155">  2  5  1 -1</clus>
</clustering>
</event>
<event>
 9    1  0.3197504E-005  0.1161427E+03  0.7546771E-02  0.1253490E+00
         21   -1    0    0  501  502  0.00000000000E+00  0.00000000000E+00  0.16274931611E+03  0.16274931611E+03  0.00000000000E+00 0.  1.
          3   -1    0    0  502    0 -0.00000000000E+00 -0.00000000000E+00 -0.22778615411E+03  0.22778615411E+03  0.00000000000E+00 0. -1.
        -24    2    1    2    0    0 -0.23623607391E+02  0.49869854151E+02 -0.40813880238E+02  0.10536562918E+03  0.79944141828E+02 0.  0.
         23    2    1    2    0    0  0.63686548554E+02 -0.11524236991E+03  0.60186058075E+02  0.17113700794E+03  0.91261895724E+02 0.  0.
         13    1    3    3    0    0  0.17923513001E+02  0.43772543346E+02 -0.42145412045E+02  0.63352376638E+02  0.00000000000E+00 0. -1.
        -14    1    3    3    0    0 -0.41547120392E+02  0.60973108045E+01  0.13315318065E+01  0.42013252539E+02  0.00000000000E+00 0.  1.
        -11    1    4    4    0    0  0.63326799996E+02 -0.49925513166E+02 -0.23982888995E+01  0.80675846771E+02  0.00000000000E+00 0.  1.
         11    1    4    4    0    0  0.35974855865E+00 -0.65316856746E+02  0.62584346975E+02  0.90461161171E+02  0.00000000000E+00 0. -1.
          4    1    1    2  501    0 -0.40062941163E+02  0.65372515761E+02 -0.84409015839E+02  0.11403283311E+03  0.00000000000E+00 0. -1.
<scales pt_clust_5="13000.00000" pt_clust_6="13000.00000" pt_clust_7="13000.00000" pt_clust_8="13000.00000" pt_clust_9="76.67210"></scales>
<clustering>
<clus scale="   76.672">  1  9  2 -1</clus>
<clus scale="   79.944">  5  6 -1 -1</clus>
<clus scale="   91.262">  7  8 -1 -1</clus>
<clus scale="  107.478">  2  5  1 -1</clus>
<clus scale="   76.672">  1  5  2 -1</clus>
</clustering>
</event>
<event>
 9    1  0.3197504E-005  0.9732965E+02  0.7546771E-02  0.1291467E+00
          1   -1    0    0  502    0 -0.00000000000E+00  0.00000000000E+00  0.12887544641E+03  0.12887544641E+03  0.00000000000E+00 0. -1.
         21   -1    0    0  501  502  0.00000000000E+00 -0.00000000000E+00 -0.38725907110E+03  0.38725907110E+03  0.00000000000E+00 0. -1.
        -24    2    1    2    0    0  0.50243521117E+02 -0.99615983483E+01  0.67334434791E+02  0.11706747319E+03  0.80914907860E+02 0.  0.
         23    2    1    2    0    0  0.85768517910E+01 -0.19282601763E+02 -0.33161486963E+02  0.99226407261E+02  0.91108806176E+02 0.  0.
         11    1    3    3    0    0  0.23843689606E+02  0.10521066552E+02  0.77803067576E+02  0.82052006067E+02  0.00000000000E+00 0. -1.
        -12    1    3    3    0    0  0.26399831511E+02 -0.20482664901E+02 -0.10468632785E+02  0.35015467120E+02  0.00000000000E+00 0.  1.
        -13    1    4    4    0    0  0.37956277751E+02 -0.29404849622E+02  0.69202929934E+01  0.48509943899E+02  0.00000000000E+00 0. -1.
         13    1    4    4    0    0 -0.29379425960E+02  0.10122247859E+02 -0.40081779956E+02  0.50716463361E+02  0.00000000000E+00 0.  1.
          2    1    1    2  501    0 -0.58820372908E+02  0.29244200111E+02 -0.29255657252E+03  0.29984063707E+03  0.00000000000E+00 0. -1.
<scales pt_clust_5="13000.00000" pt_clust_6="13000.00000" pt_clust_7="13000.00000" pt_clust_8="13000.00000" pt_clust_9="65.68911"></scales>
<clustering>
<clus scale="   65.689">  2  9  1 -1</clus>
<clus scale="   80.915">  5  6 -1 -1</clus>
<clus scale="   87.861">  1  5  2 -1</clus>
<clus scale="   91.109">  7  8 -1 -1</clus>
<clus scale="   65.689">  2  5  1 -1</clus>
</clustering>
</event>
<event>
 9    1  0.3197504E-005  0.9521429E+02  0.7546771E-02  0.1295339E+00
         21   -1    0    0  501  502  0.00000000000E+00  0.00000000000E+00  0.60619644035E+02  0.60619644035E+02  0.00000000000E+00 0. -1.
          1   -1    0    0  502    0 -0.00000000000E+00 -0.00000000000E+00 -0.27703973355E+03  0.27703973355E+03  0.00000000000E+00 0. -1.
         23    2    1    2    0    0  0.46051453006E+02 -0.26904665557E+02 -0.15018169507E+03  0.18273770089E+03  0.89408771604E+02 0.  0.
        -24    2    1    2    0    0  0.72408241163E+01  0.50206846266E+01 -0.29553867442E+02  0.86622848423E+02  0.80947204894E+02 0.  0.
         11    1    4    4    0    0 -0.15509920495E+02 -0.31620900522E+02 -0.16604204207E+01  0.35258984381E+02  0.00000000000E+00 0. -1.
        -12    1    4    4    0    0  0.22750744612E+02  0.36641585149E+02 -0.27893447021E+02  0.51363864042E+02  0.00000000000E+00 0.  1.
        -13    1    3    3    0    0 -0.26803126674E+02 -0.63994698972E+01 -0.30234247720E+02  0.40908074382E+02  0.00000000000E+00 0.  1.
         13    1    3    3    0    0  0.72854579680E+02 -0.20505195660E+02 -0.11994744735E+03  0.14182962651E+03  0.00000000000E+00 0. -1.
          2    1    1    2  501    0 -0.53292277122E+02  0.21883980931E+02 -0.36684527008E+02  0.68298828277E+02  0.00000000000E+00 0. -1.
<scales pt_clust_5="13000.00000" pt_clust_6="13000.00000" pt_clust_7="13000.00000" pt_clust_8="13000.00000" pt_clust_9="57.61055"></scales>
<clustering>
<clus scale="   57.611">  1  9  2 -1</clus>
<clus scale="   80.947">  5  6 -1 -1</clus>
<clus scale="   87.317">  1  5  2 -1</clus>
<clus scale="   89.409">  7  8 -1 -1</clus>
<clus scale="   57.611">  1  5  2 -1</clus>
</clustering>
</event>
<event>
 9    1  0.3197504E-005  0.1689067E+03  0.7546771E-02  0.1180482E+00
          3   -1    0    0  502    0 -0.00000000000E+00  0.00000000000E+00  0.73691937440E+02  0.73691937440E+02  0.00000000000E+00 0. -1.
         21   -1    0    0  501  502  0.00000000000E+00 -0.00000000000E+00 -0.73807641686E+03  0.73807641686E+03  0.00000000000E+00 0. -1.
         23    2    1    2    0    0 -0.12520805924E+03 -0.91397704361E+02 -0.81324598789E+02  0.19767818451E+03  0.91827968506E+02 0.  0.
        -24    2    1    2    0    0  0.73557068678E+02  0.62768352377E+02 -0.46846269848E+03  0.48517167314E+03  0.81140274473E+02 0.  0.
         11    1    4    4    0    0 -0.14285577851E+02  0.28186258968E+02 -0.13050097711E+03  0.13427229035E+03  0.00000000000E+00 0. -1.
        -12    1    4    4    0    0  0.87842646529E+02  0.34582093409E+02 -0.33796172136E+03  0.35089938279E+03  0.00000000000E+00 0.  1.
        -11    1    3    3    0    0 -0.45635848318E+02  0.13733255353E+02 -0.14214225724E+02  0.49732053720E+02  0.00000000000E+00 0.  1.
         11    1    3    3    0    0 -0.79572210925E+02 -0.10513095971E+03 -0.67110373064E+02  0.14794613079E+03  0.00000000000E+00 0. -1.
          4    1    1    2  501    0  0.51650990565E+02  0.28629351983E+02 -0.11459718215E+03  0.12891849665E+03  0.00000000000E+00 0. -1.
<scales pt_clust_5="13000.00000" pt_clust_6="13000.00000" pt_clust_7="13000.00000" pt_clust_8="13000.00000" pt_clust_9="59.05476"></scales>
<clustering>
<clus scale="   59.055">  2  9  1 -1</clus>
<clus scale="   81.140">  5  6 -1 -1</clus>
<clus scale="   91.828">  7  8 -1 -1</clus>
<clus scale="  163.343">  2  5  1 -1</clus>
<clus scale="   59.055">  2  5  1 -1</clus>
</clustering>
</event>
<event>
 9    1  0.3197504E-005  0.1495004E+03  0.7546771E-02  0.1203279E+00
          1   -1    0    0  502    0 -0.00000000000E+00  0.00000000000E+00  0.71085104573E+03  0.71085104573E+03  0.00000000000E+00 0. -1.
         21   -1    0    0  501  502  0.00000000000E+00 -0.00000000000E+00 -0.53582065439E+02  0.53582065439E+02  0.00000000000E+00 0. -1.
        -24    2    1    2    0    0 -0.10541093887E+03 -0.30336394312E+00  0.33011086923E+03  0.35593509887E+03  0.81271462153E+02 0.  0.
         23    2    1    2    0    0  0.14972658334E+03  0.23387428952E+02  0.17948093804E+03  0.25259644774E+03  0.92879151043E+02 0.  0.
         11    1    3    3    0    0 -0.10338983902E+03 -0.26352898375E+02  0.27394351514E+03  0.29398806702E+03  0.00000000000E+00 0. -1.
        -12    1    3    3    0    0 -0.20210998422E+01  0.26049534432E+02  0.56167354097E+02  0.61947031850E+02  0.00000000000E+00 0.  1.
        -11    1    4    4    0    0  0.14034095879E+03  0.41533997988E+02  0.11859965119E+03  0.18837870093E+03  0.00000000000E+00 0. -1.
         11    1    4    4    0    0  0.93856245491E+01 -0.18146569035E+02  0.60881286856E+02  0.64217746809E+02  0.00000000000E+00 0.  1.
          2    1    1    2  501    0 -0.44315644472E+02 -0.23084065009E+02  0.14767717302E+03  0.15590156456E+03  0.00000000000E+00 0. -1.
<scales pt_clust_5="13000.00000" pt_clust_6="13000.00000" pt_clust_7="13000.00000" pt_clust_8="13000.00000" pt_clust_9="49.96752"></scales>
<clustering>
<clus scale="   49.968">  2  9  1 -1</clus>
<clus scale="   81.271">  5  6 -1 -1</clus>
<clus scale="   92.879">  7  8 -1 -1</clus>
<clus scale="  142.579">  1  5  2 -1</clus>
<clus scale="   49.968">  2  5  1 -1</clus>
</clustering>
</event>
<event>
 9    1  0.3197504E-005  0.9290248E+02  0.7546771E-02  0.1304137E+00
         21   -1    0    0  501  502  0.00000000000E+00  0.00000000000E+00  0.51651822163E+03  0.51651822163E+03  0.00000000000E+00 0. -1.
          1   -1    0    0  502    0 -0.00000000000E+00 -0.00000000000E+00 -0.28236918636E+02  0.28236918636E+02  0.00000000000E+00 0. -1.
        -24    2    1    2    0    0 -0.20986717755E+02 -0.99155075903E+01  0.72477931013E+02  0.10935274612E+03  0.78525237897E+02 0.  0.
         23    2    1    2    0    0 -0.11179212439E+02 -0.73103061491E+01  0.29854811853E+03  0.31260104975E+03  0.91706171330E+02 0.  0.
         13    1    3    3    0    0  0.19773310767E+02  0.18521065891E+02  0.45098619059E+02  0.52610827227E+02  0.00000000000E+00 0. -1.
        -14    1    3    3    0    0 -0.40760028522E+02 -0.28436573481E+02  0.27379311954E+02  0.56741918892E+02  0.00000000000E+00 0.  1.
        -13    1    4    4    0    0  0.17756811231E+02  0.33585378597E+02  0.82595413311E+02  0.90913608996E+02  0.00000000000E+00 0.  1.
         13    1    4    4    0    0 -0.28936023670E+02 -0.40895684746E+02  0.21595270521E+03  0.22168744075E+03  0.00000000000E+00 0. -1.
          2    1    1    2  501    0  0.32165930194E+02  0.17225813739E+02  0.11725525345E+03  0.12280134440E+03  0.00000000000E+00 0. -1.
<scales pt_clust_5="13000.00000" pt_clust_6="13000.00000" pt_clust_7="13000.00000" pt_clust_8="13000.00000" pt_clust_9="36.48802"></scales>
<clustering>
<clus scale="   36.488">  1  9  2 -1</clus>
<clus scale="   78.525">  5  6 -1 -1</clus>
<clus scale="   79.919">  2  5  1 -1</clus>
<clus scale="   91.706">  7  8 -1 -1</clus>
<clus scale="   36.488">  1  5  2 -1</clus>
</clustering>
</event>
<event>
 9    1  0.3197504E-005  0.9729564E+02  0.7546771E-02  0.1295108E+00
         -2   -1    0    0    0  501 -0.00000000000E+00  0.00000000000E+00  0.13230261960E+03  0.13230261960E+03  0.00000000000E+00 0.  1.
         21   -1    0    0  501  502  0.00000000000E+00 -0.00000000000E+00 -0.94810932108E+02  0.94810932108E+02  0.00000000000E+00 0. -1.
        -24    2    1    2    0    0  0.18954381707E+01 -0.28599339442E+02  0.36856527502E+02  0.91046625574E+02  0.78163735239E+02 0.  0.
         23    2    1    2    0    0  0.14824743132E+02  0.17139376637E+02 -0.28354670272E+02  0.10069312978E+03  0.93923308168E+02 0.  0.
         11    1    3    3    0    0  0.54367766336E+01  0.26971616013E+02  0.13758675791E+02  0.30762440898E+02  0.00000000000E+00 0. -1.
        -12    1    3    3    0    0 -0.35413384629E+01 -0.55570955455E+02  0.23097851711E+02  0.60284184675E+02  0.00000000000E+00 0.  1.
        -11    1    4    4    0    0  0.26137395031E+02 -0.10712900721E+01  0.29242429528E+02  0.39235580359E+02  0.00000000000E+00 0.  1.
         11    1    4    4    0    0 -0.11312651899E+02  0.18210666710E+02 -0.57597099800E+02  0.61457549417E+02  0.00000000000E+00 0. -1.
         -1    1    1    2    0  502 -0.16720181303E+02  0.11459962805E+02  0.28989830265E+02  0.35373796362E+02  0.00000000000E+00 0.  1.
<scales pt_clust_5="13000.00000" pt_clust_6="13000.00000" pt_clust_7="13000.00000" pt_clust_8="13000.00000" pt_clust_9="20.27056"></scales>
<clustering>
<clus scale="   20.271">  2  9  1 -1</clus>
<clus scale="   78.164">  5  6 -1 -1</clus>
<clus scale="   82.185">  1  5  2 -1</clus>
<clus scale="   93.923">  7  8 -1 -1</clus>
<clus scale="   20.271">  2  5  1 -1</clus>
</clustering>
</event>
<event>
 9    1  0.3197504E-005  0.9623011E+02  0.7546771E-02  0.1294124E+00
          1   -1    0    0  502    0 -0.00000000000E+00  0.00000000000E+00  0.40703796342E+03  0.40703796342E+03  0.00000000000E+00 0. -1.
         21   -1    0    0  501  502  0.00000000000E+00 -0.00000000000E+00 -0.39286521708E+03  0.39286521708E+03  0.00000000000E+00 0. -1.
        -24    2    1    2    0    0  0.22566251517E+02 -0.21179642941E+02  0.37964407427E+03  0.38946732322E+03  0.81224132793E+02 0.  0.
         23    2    1    2    0    0  0.53210548341E+02  0.27513771558E+02 -0.19064126708E+03  0.21978488099E+03  0.91503721885E+02 0.  0.
         11    1    3    3    0    0  0.46485351090E+02  0.66259188954E+01  0.26409344816E+03  0.26823523263E+03  0.00000000000E+00 0. -1.
        -12    1    3    3    0    0 -0.23919099573E+02 -0.27805561836E+02  0.11555062611E+03  0.12123209059E+03  0.00000000000E+00 0.  1.
        -11    1    4    4    0    0 -0.23586324805E+02 -0.71781873112E-01 -0.21180607393E+02  0.31700757089E+02  0.00000000000E+00 0.  1.
         11    1    4    4    0    0  0.76796873146E+02  0.27585553431E+02 -0.16946065969E+03  0.18808412390E+03  0.00000000000E+00 0. -1.
          2    1    1    2  501    0 -0.75776799858E+02 -0.63341286173E+01 -0.17483006085E+03  0.19065097628E+03  0.00000000000E+00 0. -1.
<scales pt_clust_5="13000.00000" pt_clust_6="13000.00000" pt_clust_7="13000.00000" pt_clust_8="13000.00000" pt_clust_9="76.04107"></scales>
<clustering>
<clus scale="   76.041">  2  9  1 -1</clus>
<clus scale="   81.224">  5  6 -1 -1</clus>
<clus scale="   86.514">  1  5  2 -1</clus>
<clus scale="   91.504">  7  8 -1 -1</clus>
<clus scale="   76.041">  2  5  1 -1</clus>
</clustering>
</event>
<event>
 9    1  0.3197504E-005  0.1042054E+03  0.7546771E-02  0.1279245E+00
          1   -1    0    0  502    0 -0.00000000000E+00  0.00000000000E+00  0.11413914972E+04  0.11413914972E+04  0.00000000000E+00 0. -1.
         21   -1    0    0  501  502  0.00000000000E+00 -0.00000000000E+00 -0.16438929963E+02  0.16438929963E+02  0.00000000000E+00 0. -1.
         23    2    1    2    0    0 -0.31816138060E+02  0.52220864376E+02  0.61775394638E+03  0.62842226946E+03  0.97751343591E+02 0.  0.
        -24    2    1    2    0    0 -0.21092473280E+02 -0.17999455095E+02  0.33107484892E+03  0.34235199221E+03  0.82616331121E+02 0.  0.
         11    1    4    4    0    0 -0.13994104487E+02 -0.51039366481E+02  0.21823754692E+03  0.22456286153E+03  0.00000000000E+00 0. -1.
        -12    1    4    4    0    0 -0.70983687923E+01  0.33039911386E+02  0.11283730200E+03  0.11778913068E+03  0.00000000000E+00 0.  1.
        -13    1    3    3    0    0 -0.47051662002E+02  0.73836828173E+02  0.51066440752E+03  0.51811569480E+03  0.00000000000E+00 0. -1.
         13    1    3    3    0    0  0.15235523942E+02 -0.21615963797E+02  0.10708953885E+03  0.11030657466E+03  0.00000000000E+00 0.  1.
          2    1    1    2  501    0  0.52908611339E+02 -0.34221409282E+02  0.17612377194E+03  0.18705616550E+03  0.00000000000E+00 0. -1.
<scales pt_clust_5="13000.00000" pt_clust_6="13000.00000" pt_clust_7="13000.00000" pt_clust_8="13000.00000" pt_clust_9="63.01132"></scales>
<clustering>
<clus scale="   63.011">  2  9  1 -1</clus>
<clus scale="   82.616">  5  6 -1 -1</clus>
<clus scale="   90.160">  2  5  1 -1</clus>
<clus scale="   97.751">  7  8 -1 -1</clus>
<clus scale="   63.011">  2  5  1 -1</clus>
</clustering>
</event>
<event>
 9    1  0.3197504E-005  0.1092091E+03  0.7546771E-02  0.1268053E+00
         -4   -1    0    0    0  501 -0.00000000000E+00  0.00000000000E+00  0.11852027335E+04  0.11852027335E+04  0.00000000000E+00 0.  1.
         21   -1    0    0  501  502  0.00000000000E+00 -0.00000000000E+00 -0.29392653272E+02  0.29392653272E+02  0.00000000000E+00 0.  1.
        -24    2    1    2    0    0  0.89149347198E+00 -0.64494259412E+02  0.64802280928E+03  0.65629038235E+03  0.81383047189E+02 0.  0.
         23    2    1    2    0    0  0.41978458553E+02 -0.72266071936E+01  0.10967890597E+03  0.15152252475E+03  0.95473547430E+02 0.  0.
         13    1    3    3    0    0 -0.33546321330E+02 -0.43753847685E+01  0.17767495571E+03  0.18086704938E+03  0.00000000000E+00 0. -1.
        -14    1    3    3    0    0  0.34437814802E+02 -0.60118874644E+02  0.47034785357E+03  0.47542333297E+03  0.00000000000E+00 0.  1.
        -11    1    4    4    0    0  0.61176582307E+02  0.22650572789E+02  0.89259375160E+02  0.11055703833E+03  0.00000000000E+00 0.  1.
         11    1    4    4    0    0 -0.19198123754E+02 -0.29877179982E+02  0.20419530809E+02  0.40965486422E+02  0.00000000000E+00 0. -1.
         -3    1    1    2    0  502 -0.42869952025E+02  0.71720866606E+02  0.39810836495E+03  0.40678247963E+03  0.00000000000E+00 0.  1.
<scales pt_clust_5="13000.00000" pt_clust_6="13000.00000" pt_clust_7="13000.00000" pt_clust_8="13000.00000" pt_clust_9="83.55670"></scales>
<clustering>
<clus scale="   81.383">  5  6 -1 -1</clus>
<clus scale="   83.557">  2  9  1 -1</clus>
<clus scale="   95.474">  7  8 -1 -1</clus>
<clus scale="   97.132">  1  5  2 -1</clus>
<clus scale="   83.557">  2  5  1 -1</clus>
</clustering>
</event>
<event>
 9    1  0.3197504E-005  0.1750170E+03  0.7546771E-02  0.1202574E+00
         21   -1    0    0  501  502  0.00000000000E+00  0.00000000000E+00  0.91549021394E+03  0.91549021394E+03  0.00000000000E+00 0. -1.
          3   -1    0    0  502    0 -0.00000000000E+00 -0.00000000000E+00 -0.68000789846E+02  0.68000789846E+02  0.00000000000E+00 0. -1.
        -24    2    1    2    0    0  0.35286982914E+02  0.17633734043E+02  0.25103013776E+02  0.93658066075E+02  0.81151415889E+02 0.  0.
         23    2    1    2    0    0  0.25400339075E+00  0.14166573777E+03  0.51417282608E+03  0.54107070217E+03  0.91184230516E+02 0.  0.
         11    1    3    3    0    0 -0.22965017207E+02 -0.10759875320E+01  0.22879324163E+02  0.32434753562E+02  0.00000000000E+00 0. -1.
        -12    1    3    3    0    0  0.58252000121E+02  0.18709721575E+02  0.22236896126E+01  0.61223312512E+02  0.00000000000E+00 0.  1.
        -13    1    4    4    0    0 -0.38602192642E+02  0.59384630918E+02  0.30225766834E+03  0.31044542473E+03  0.00000000000E+00 0. -1.
         13    1    4    4    0    0  0.38856196032E+02  0.82281106855E+02  0.21191515774E+03  0.23062527744E+03  0.00000000000E+00 0.  1.
          4    1    1    2  501    0 -0.35540986304E+02 -0.15929947181E+03  0.30821358424E+03  0.34876223554E+03  0.00000000000E+00 0. -1.
<scales pt_clust_5="13000.00000" pt_clust_6="13000.00000" pt_clust_7="13000.00000" pt_clust_8="13000.00000" pt_clust_9="149.38676"></scales>
<clustering>
<clus scale="   81.151">  5  6 -1 -1</clus>
<clus scale="   90.231">  2  5  1 -1</clus>
<clus scale="   91.184">  7  8 -1 -1</clus>
<clus scale="  149.387">  1  9  2 -1</clus>
<clus scale="  149.387">  1  5  2 -1</clus>
</clustering>
</event>
<event>
 9    1  0.3197504E-005  0.9147545E+02  0.7546771E-02  0.1304842E+00
         21   -1    0    0  501  502  0.00000000000E+00  0.00000000000E+00  0.21176504785E+02  0.21176504785E+02  0.00000000000E+00 0. -1.
          1   -1    0    0  502    0 -0.00000000000E+00 -0.00000000000E+00 -0.53296320579E+03  0.53296320579E+03  0.00000000000E+00 0. -1.
        -24    2    1    2    0    0 -0.21089362718E+02  0.25767438847E+02 -0.27427837768E+03  0.28739357163E+03  0.79105716791E+02 0.  0.
         23    2    1    2    0    0  0.10454491588E+02  0.11537375785E+01 -0.14780249896E+03  0.17248593976E+03  0.88290391392E+02 0.  0.
         11    1    3    3    0    0  0.80116541879E+01  0.48327462249E+02 -0.15354965696E+03  0.16117452455E+03  0.00000000000E+00 0. -1.
        -12    1    3    3    0    0 -0.29101016906E+02 -0.22560023402E+02 -0.12072872072E+03  0.12621904709E+03  0.00000000000E+00 0.  1.
        -13    1    4    4    0    0  0.31417108191E+02 -0.34060688385E+02 -0.62037283530E+02  0.77432484966E+02  0.00000000000E+00 0. -1.
         13    1    4    4    0    0 -0.20962616604E+02  0.35214425964E+02 -0.85765215431E+02  0.95053454796E+02  0.00000000000E+00 0.  1.
          2    1    1    2  501    0  0.10634871131E+02 -0.26921176426E+02 -0.89705824368E+02  0.94260199181E+02  0.00000000000E+00 0. -1.
<scales pt_clust_5="13000.00000" pt_clust_6="13000.00000" pt_clust_7="13000.00000" pt_clust_8="13000.00000" pt_clust_9="28.94566"></scales>
<clustering>
<clus scale="   28.946">  1  9  2 -1</clus>
<clus scale="   79.106">  5  6 -1 -1</clus>
<clus scale="   82.646">  2  5  1 -1</clus>
<clus scale="   88.290">  7  8 -1 -1</clus>
<clus scale="   28.946">  1  5  2 -1</clus>
</clustering>
</event>
<event>
 9    1  0.3197504E-005  0.1176589E+03  0.7546771E-02  0.1250378E+00
         21   -1    0    0  501  502  0.00000000000E+00  0.00000000000E+00  0.71896638736E+02  0.71896638736E+02  0.00000000000E+00 0. -1.
          1   -1    0    0  502    0 -0.00000000000E+00 -0.00000000000E+00 -0.32991644982E+03  0.32991644982E+03  0.00000000000E+00 0. -1.
         23    2    1    2    0    0  0.87034955590E+02  0.37247226453E+02 -0.86899155067E+02  0.15797342637E+03  0.91878729392E+02 0.  0.
        -24    2    1    2    0    0 -0.48685766908E+02 -0.22664381292E+02 -0.38762411822E+02  0.10526829266E+03  0.81822434521E+02 0.  0.
         13    1    4    4    0    0  0.77437031698E+01  0.20660605477E+02 -0.24016340693E+02  0.32613036929E+02  0.00000000000E+00 0. -1.
        -14    1    4    4    0    0 -0.56429470078E+02 -0.43324986769E+02 -0.14746071128E+02  0.72655255732E+02  0.00000000000E+00 0.  1.
        -11    1    3    3    0    0 -0.22023609827E+01  0.34521546167E+02 -0.51268791489E+02  0.61847203045E+02  0.00000000000E+00 0.  1.
         11    1    3    3    0    0  0.89237316572E+02  0.27256802863E+01 -0.35630363578E+02  0.96126223325E+02  0.00000000000E+00 0. -1.
          2    1    1    2  501    0 -0.38349188682E+02 -0.14582845161E+02 -0.13235824420E+03  0.13857136953E+03  0.00000000000E+00 0. -1.
<scales pt_clust_5="13000.00000" pt_clust_6="13000.00000" pt_clust_7="13000.00000" pt_clust_8="13000.00000" pt_clust_9="41.02830"></scales>
<clustering>
<clus scale="   41.028">  1  9  2 -1</clus>
<clus scale="   81.822">  5  6 -1 -1</clus>
<clus scale="   91.879">  7  8 -1 -1</clus>
<clus scale="  109.986">  1  5  2 -1</clus>
<clus scale="   41.028">  1  5  2 -1</clus>
</clustering>
</event>
<event>
 9    1  0.3197504E-005  0.1238900E+03  0.7546771E-02  0.1240836E+00
          1   -1    0    0  502    0 -0.00000000000E+00  0.00000000000E+00  0.55066874905E+03  0.55066874905E+03  0.00000000000E+00 0. -1.
         21   -1    0    0  501  502  0.00000000000E+00 -0.00000000000E+00 -0.48025186114E+02  0.48025186114E+02  0.00000000000E+00 0. -1.
         23    2    1    2    0    0 -0.55166622775E+02 -0.81186777612E+02  0.29533438106E+03  0.32484158562E+03  0.93086035369E+02 0.  0.
        -24    2    1    2    0    0  0.67590852453E+02  0.14168803128E+02  0.92135601406E+02  0.14002139638E+03  0.79672731104E+02 0.  0.
         13    1    4    4    0    0  0.80252890487E+02  0.81716413308E+01  0.96091982440E+02  0.12546302739E+03  0.00000000000E+00 0. -1.
        -14    1    4    4    0    0 -0.12662038034E+02  0.59971617976E+01 -0.39563810335E+01  0.14558368991E+02  0.00000000000E+00 0.  1.
        -11    1    3    3    0    0 -0.29684692241E+02 -0.17246959622E+02  0.17357315573E+02  0.38469663029E+02  0.00000000000E+00 0.  1.
         11    1    3    3    0    0 -0.25481930534E+02 -0.63939817990E+02  0.27797706549E+03  0.28637192259E+03  0.00000000000E+00 0. -1.
          2    1    1    2  501    0 -0.12424229677E+02  0.67017974483E+02  0.11517358046E+03  0.13383095316E+03  0.00000000000E+00 0. -1.
<scales pt_clust_5="13000.00000" pt_clust_6="13000.00000" pt_clust_7="13000.00000" pt_clust_8="13000.00000" pt_clust_9="68.15992"></scales>
<clustering>
<clus scale="   68.160">  2  9  1 -1</clus>
<clus scale="   79.673">  5  6 -1 -1</clus>
<clus scale="   93.086">  7  8 -1 -1</clus>
<clus scale="  114.155">  2  5  1 -1</clus>
<clus scale="   68.160">  2  5  1 -1</clus>
</clustering>
</event>
<event>
 9    1  0.3197504E-005  0.1220699E+03  0.7546771E-02  0.1243385E+00
         -2   -1    0    0    0  501 -0.00000000000E+00  0.00000000000E+00  0.49454811245E+03  0.49454811245E+03  0.00000000000E+00 0.  1.
         21   -1    0    0  501  502  0.00000000000E+00 -0.00000000000E+00 -0.46099419218E+02  0.46099419218E+02  0.00000000000E+00 0. -1.
         23    2    1    2    0    0  0.37627095846E+02 -0.69245348526E+02  0.33107549301E+03  0.35251669283E+03  0.91903862892E+02 0.  0.
        -24    2    1    2    0    0 -0.16679197489E+02  0.86066890121E+02  0.84412925815E+02  0.14560839305E+03  0.79940958698E+02 0.  0.
         13    1    4    4    0    0  0.10702762751E+02  0.42588340965E+02 -0.32114995172E+01  0.44029872199E+02  0.00000000000E+00 0. -1.
        -14    1    4    4    0    0 -0.27381960239E+02  0.43478549156E+02  0.87624425332E+02  0.10157852085E+03  0.00000000000E+00 0.  1.
        -11    1    3    3    0    0 -0.75165597634E+01 -0.58335021698E+02  0.26686850932E+03  0.27327326011E+03  0.00000000000E+00 0.  1.
         11    1    3    3    0    0  0.45143655610E+02 -0.10910326828E+02  0.64206983694E+02  0.79243432714E+02  0.00000000000E+00 0. -1.
         -1    1    1    2    0  502 -0.20947898357E+02 -0.16821541595E+02  0.32960274405E+02  0.42522445791E+02  0.00000000000E+00 0.  1.
<scales pt_clust_5="13000.00000" pt_clust_6="13000.00000" pt_clust_7="13000.00000" pt_clust_8="13000.00000" pt_clust_9="26.86594"></scales>
<clustering>
<clus scale="   26.866">  2  9  1 -1</clus>
<clus scale="   79.941">  5  6 -1 -1</clus>
<clus scale="   91.904">  7  8 -1 -1</clus>
<clus scale="  113.337">  2  5  1 -1</clus>
<clus scale="   26.866">  2  5  1 -1</clus>
</clustering>
</event>
<event>
 9    1  0.3197504E-005  0.9975208E+02  0.7546771E-02  0.1285144E+00
          3   -1    0    0  502    0 -0.00000000000E+00  0.00000000000E+00  0.21418816846E+03  0.21418816846E+03  0.00000000000E+00 0. -1.
         21   -1    0    0  501  502  0.00000000000E+00 -0.00000000000E+00 -0.15280184452E+03  0.15280184452E+03  0.00000000000E+00 0. -1.
         23    2    1    2    0    0  0.48363530946E+02  0.23023975200E+02  0.13346288154E+03  0.17072786764E+03  0.92013746149E+02 0.  0.
        -24    2    1    2    0    0  0.19104313125E+02 -0.34313534606E+02  0.60495997839E+01  0.92420628587E+02  0.83442084668E+02 0.  0.
         11    1    4    4    0    0  0.20216926962E+01 -0.56177532275E+02  0.22058923120E+02  0.60387071987E+02  0.00000000000E+00 0. -1.
        -12    1    4    4    0    0  0.17082620429E+02  0.21863997669E+02 -0.16009323336E+02  0.32033556601E+02  0.00000000000E+00 0.  1.
        -13    1    3    3    0    0 -0.20903025959E+01  0.46742620632E+02  0.38427878772E+02  0.60547038040E+02  0.00000000000E+00 0. -1.
         13    1    3    3    0    0  0.50453833542E+02 -0.23718645432E+02  0.95035002769E+02  0.11018082960E+03  0.00000000000E+00 0.  1.
          4    1    1    2  501    0 -0.67467844072E+02  0.11289559406E+02 -0.78126157384E+02  0.10384151676E+03  0.00000000000E+00 0. -1.
<scales pt_clust_5="13000.00000" pt_clust_6="13000.00000" pt_clust_7="13000.00000" pt_clust_8="13000.00000" pt_clust_9="68.40588"></scales>
<clustering>
<clus scale="   68.406">  2  9  1 -1</clus>
<clus scale="   83.442">  5  6 -1 -1</clus>
<clus scale="   91.905">  2  5  1 -1</clus>
<clus scale="   92.014">  7  8 -1 -1</clus>
<clus scale="   68.406">  2  5  1 -1</clus>
</clustering>
</event>
<event>
 9    1  0.3197504E-005  0.2186882E+03  0.7546771E-02  0.1135287E+00
         21   -1    0    0  501  502  0.00000000000E+00  0.00000000000E+00  0.17676269376E+03  0.17676269376E+03  0.00000000000E+00 0. -1.
          1   -1    0    0  502    0 -0.00000000000E+00 -0.00000000000E+00 -0.97079079718E+03  0.97079079718E+03  0.00000000000E+00 0. -1.
         23    2    1    2    0    0 -0.31503215267E+02 -0.20891653266E+03 -0.81383751851E+03  0.84593899633E+03  0.92966170097E+02 0.  0.
        -24    2    1    2    0    0  0.38138183782E+02  0.14566354141E+03 -0.73192647350E+02  0.18894530038E+03  0.87582958117E+02 0.  0.
         13    1    4    4    0    0  0.30679658207E+02  0.35327951680E+01 -0.56078167208E+01  0.31387412728E+02  0.00000000000E+00 0. -1.
        -14    1    4    4    0    0  0.74585255749E+01  0.14213074624E+03 -0.67584830629E+02  0.15755788766E+03  0.00000000000E+00 0.  1.
        -11    1    3    3    0    0  0.27819363994E+02 -0.44146314269E+02 -0.13118925665E+03  0.14118581777E+03  0.00000000000E+00 0.  1.
         11    1    3    3    0    0 -0.59322579262E+02 -0.16477021839E+03 -0.68264826186E+03  0.70475317857E+03  0.00000000000E+00 0. -1.
          2    1    1    2  501    0 -0.66349685142E+01  0.63252991249E+02  0.93002062447E+02  0.11266919423E+03  0.00000000000E+00 0. -1.
<scales pt_clust_5="13000.00000" pt_clust_6="13000.00000" pt_clust_7="13000.00000" pt_clust_8="13000.00000" pt_clust_9="63.60003"></scales>
<clustering>
<clus scale="   63.600">  1  9  2 -1</clus>
<clus scale="   87.583">  5  6 -1 -1</clus>
<clus scale="   92.966">  7  8 -1 -1</clus>
<clus scale="  216.455">  1  5  2 -1</clus>
<clus scale="   63.600">  1  5  2 -1</clus>
</clustering>
</event>
<event>
 9    1  0.3197504E-005  0.8844219E+02  0.7546771E-02  0.1310131E+00
         -4   -1    0    0    0  501 -0.00000000000E+00  0.00000000000E+00  0.41552019441E+02  0.41552019441E+02  0.00000000000E+00 0.  1.
         21   -1    0    0  501  502  0.00000000000E+00 -0.00000000000E+00 -0.36691831103E+03  0.36691831103E+03  0.00000000000E+00 0. -1.
         23    2    1    2    0    0 -0.33813299251E+01 -0.11714324001E+02 -0.37132989239E+02  0.96435433852E+02  0.88160508356E+02 0.  0.
        -24    2    1    2    0    0  0.97414728365E+01 -0.12467650195E+02 -0.15440282826E+03  0.17588859630E+03  0.82741926137E+02 0.  0.
         11    1    4    4    0    0  0.91547284730E+01 -0.47673688115E+02 -0.98659567935E+02  0.10995589996E+03  0.00000000000E+00 0. -1.
        -12    1    4    4    0    0  0.58674436349E+00  0.35206037920E+02 -0.55743260323E+02  0.65932696339E+02  0.00000000000E+00 0.  1.
        -13    1    3    3    0    0 -0.96711087442E+01 -0.42186662880E+02  0.55285538067E+01  0.43632668684E+02  0.00000000000E+00 0. -1.
         13    1    3    3    0    0  0.62897788192E+01  0.30472338879E+02 -0.42661543045E+02  0.52802765168E+02  0.00000000000E+00 0.  1.
         -3    1    1    2    0  502 -0.63601429114E+01  0.24181974196E+02 -0.13383047409E+03  0.13614630031E+03  0.00000000000E+00 0.  1.
<scales pt_clust_5="13000.00000" pt_clust_6="13000.00000" pt_clust_7="13000.00000" pt_clust_8="13000.00000" pt_clust_9="25.00439"></scales>
<clustering>
<clus scale="   25.004">  2  9  1 -1</clus>
<clus scale="   82.742">  5  6 -1 -1</clus>
<clus scale="   83.042">  2  5  1 -1</clus>
<clus scale="   88.161">  7  8 -1 -1</clus>
<clus scale="   25.004">  2  5  1 -1</clus>
</clustering>
</event>
<event>
 9    1  0.3197504E-005  0.1358517E+03  0.7546771E-02  0.1222692E+00
         21   -1    0    0  501  502  0.00000000000E+00  0.00000000000E+00  0.16635890211E+03  0.16635890211E+03  0.00000000000E+00 0. -1.
          1   -1    0    0  502    0 -0.00000000000E+00 -0.00000000000E+00 -0.25704905947E+03  0.25704905947E+03  0.00000000000E+00 0. -1.
        -24    2    1    2    0    0  0.23216294014E+02  0.12157958585E+03 -0.77148726417E+02  0.16469128322E+03  0.76489873686E+02 0.  0.
         23    2    1    2    0    0  0.77243817556E+02 -0.67913020403E+02 -0.35882196452E+02  0.14265012819E+03  0.92101798892E+02 0.  0.
         11    1    3    3    0    0 -0.57880278544E+01  0.11475604059E+03 -0.68029993209E+02  0.13353100799E+03  0.00000000000E+00 0. -1.
        -12    1    3    3    0    0  0.29004321868E+02  0.68235452593E+01 -0.91187332079E+01  0.31160275227E+02  0.00000000000E+00 0.  1.
        -11    1    4    4    0    0  0.48823237879E+02  0.13445073776E+02 -0.41350168872E+01  0.50809220920E+02  0.00000000000E+00 0.  1.
         11    1    4    4    0    0  0.28420579677E+02 -0.81358094179E+02 -0.31747179565E+02  0.91840907269E+02  0.00000000000E+00 0. -1.
          2    1    1    2  501    0 -0.10046011157E+03 -0.53666565448E+02  0.22340765509E+02  0.11606655016E+03  0.00000000000E+00 0. -1.
<scales pt_clust_5="13000.00000" pt_clust_6="13000.00000" pt_clust_7="13000.00000" pt_clust_8="13000.00000" pt_clust_9="113.89616"></scales>
<clustering>
<clus scale="   76.490">  5  6 -1 -1</clus>
<clus scale="   92.102">  7  8 -1 -1</clus>
<clus scale="  113.896">  1  9  2 -1</clus>
<clus scale="  125.792">  2  5  1 -1</clus>
<clus scale="  113.896">  1  5  2 -1</clus>
</clustering>
</event>
<event>
 9    1  0.3197504E-005  0.1004431E+03  0.7546771E-02  0.1284249E+00
         21   -1    0    0  501  502  0.00000000000E+00  0.00000000000E+00  0.53572264173E+02  0.53572264173E+02  0.00000000000E+00 0.  1.
          1   -1    0    0  502    0 -0.00000000000E+00 -0.00000000000E+00 -0.62095863155E+03  0.62095863155E+03  0.00000000000E+00 0. -1.
        -24    2    1    2    0    0 -0.14897875766E+02  0.37306704262E+02 -0.52107548790E+03  0.52893024417E+03  0.81448156603E+02 0.  0.
         23    2    1    2    0    0  0.98483310377E+00 -0.60916526273E+02 -0.43376464713E+02  0.11803967839E+03  0.91323901115E+02 0.  0.
         11    1    3    3    0    0  0.23569686314E+02  0.45067954563E+02 -0.26077289286E+03  0.26568619138E+03  0.00000000000E+00 0. -1.
        -12    1    3    3    0    0 -0.38467562080E+02 -0.77612503008E+01 -0.26030259504E+03  0.26324405278E+03  0.00000000000E+00 0.  1.
        -13    1    4    4    0    0  0.13617964453E+02 -0.24913040959E+02  0.26234859440E+02  0.38657165125E+02  0.00000000000E+00 0.  1.
         13    1    4    4    0    0 -0.12633131349E+02 -0.36003485314E+02 -0.69611324154E+02  0.79382513269E+02  0.00000000000E+00 0. -1.
          2    1    1    2  501    0  0.13913042662E+02  0.23609822011E+02 -0.29344147569E+01  0.27560973159E+02  0.00000000000E+00 0. -1.
<scales pt_clust_5="13000.00000" pt_clust_6="13000.00000" pt_clust_7="13000.00000" pt_clust_8="13000.00000" pt_clust_9="27.40431"></scales>
<clustering>
<clus scale="   27.404">  1  9  2 -1</clus>
<clus scale="   81.448">  5  6 -1 -1</clus>
<clus scale="   91.324">  7  8 -1 -1</clus>
<clus scale="   91.556">  2  5  1 -1</clus>
<clus scale="   27.404">  1  5  2 -1</clus>
</clustering>
</event>
<event>
 9    1  0.3197504E-005  0.1254490E+03  0.7546771E-02  0.1247477E+00
         21   -1    0    0  501  502  0.00000000000E+00  0.00000000000E+00  0.15737551069E+03  0.15737551069E+03  0.00000000000E+00 0.  1.
         -2   -1    0    0    0  501 -0.00000000000E+00 -0.00000000000E+00 -0.25351618842E+03  0.25351618842E+03  0.00000000000E+00 0.  1.
         23    2    1    2    0    0 -0.14460140280E+02 -0.23501806424E+02 -0.96485280475E+02  0.13622544735E+03  0.92122378368E+02 0.  0.
        -24    2    1    2    0    0  0.96443466718E+02 -0.28277966284E+02 -0.77978911272E+02  0.15001881486E+03  0.79523257984E+02 0.  0.
         13    1    4    4    0    0  0.43957669614E+02  0.27218156429E+02 -0.28995523656E+02  0.59277695210E+02  0.00000000000E+00 0. -1.
        -14    1    4    4    0    0  0.52485797104E+02 -0.55496122713E+02 -0.48983387617E+02  0.90741119655E+02  0.00000000000E+00 0.  1.
        -13    1    3    3    0    0  0.30960331481E+02  0.94922061209E+01 -0.63060347013E+02  0.70889008089E+02  0.00000000000E+00 0.  1.
         13    1    3    3    0    0 -0.45420471761E+02 -0.32994012545E+02 -0.33424933462E+02  0.65336439264E+02  0.00000000000E+00 0. -1.
         -1    1    1    2    0  502 -0.81983326438E+02  0.51779772707E+02  0.78323514024E+02  0.12464743690E+03  0.00000000000E+00 0.  1.
<scales pt_clust_5="13000.00000" pt_clust_6="13000.00000" pt_clust_7="13000.00000" pt_clust_8="13000.00000" pt_clust_9="97.02324"></scales>
<clustering>
<clus scale="   79.523">  5  6 -1 -1</clus>
<clus scale="   92.122">  7  8 -1 -1</clus>
<clus scale="   96.166">  2  7  1 -1</clus>
<clus scale="   97.023">  1  9  2 -1</clus>
<clus scale="   97.023">  1  5  2 -1</clus>
</clustering>
</event>
<event>
 9    1  0.3197504E-005  0.1222129E+03  0.7546771E-02  0.1243158E+00
          1   -1    0    0  502    0 -0.00000000000E+00  0.00000000000E+00  0.71920666102E+03  0.71920666102E+03  0.00000000000E+00 0. -1.
         21   -1    0    0  501  502  0.00000000000E+00 -0.00000000000E+00 -0.40062866945E+02  0.40062866945E+02  0.00000000000E+00 0. -1.
        -24    2    1    2    0    0  0.69729875358E+02  0.59156019019E+02  0.43814710953E+03  0.45483423124E+03  0.80867782321E+02 0.  0.
         23    2    1    2    0    0 -0.25769030317E+02 -0.31089065037E+02  0.63507169800E+02  0.11944114101E+03  0.92749407877E+02 0.  0.
         11    1    3    3    0    0  0.58331674987E+02  0.78932057850E+02  0.37698292936E+03  0.38954971839E+03  0.00000000000E+00 0. -1.
        -12    1    3    3    0    0  0.11398200371E+02 -0.19776038831E+02  0.61164180163E+02  0.65284512854E+02  0.00000000000E+00 0.  1.
        -11    1    4    4    0    0 -0.21004599980E+02  0.30266176846E+02  0.37691810101E+02  0.52705855746E+02  0.00000000000E+00 0.  1.
         11    1    4    4    0    0 -0.47644303376E+01 -0.61355241883E+02  0.25815359699E+02  0.66735285265E+02  0.00000000000E+00 0. -1.
          2    1    1    2  501    0 -0.43960845041E+02 -0.28066953982E+02  0.17748951475E+03  0.18499415572E+03  0.00000000000E+00 0. -1.
<scales pt_clust_5="13000.00000" pt_clust_6="13000.00000" pt_clust_7="13000.00000" pt_clust_8="13000.00000" pt_clust_9="52.15662"></scales>
<clustering>
<clus scale="   52.157">  2  9  1 -1</clus>
<clus scale="   80.868">  5  6 -1 -1</clus>
<clus scale="   92.749">  7  8 -1 -1</clus>
<clus scale="  113.460">  1  5  2 -1</clus>
<clus scale="   52.157">  2  5  1 -1</clus>
</clustering>
</event>
<event>
 9    1  0.3197504E-005  0.2665488E+03  0.7546771E-02  0.1103608E+00
         21   -1    0    0  501  502  0.00000000000E+00  0.00000000000E+00  0.16632450735E+03  0.16632450735E+03  0.00000000000E+00 0. -1.
         -2   -1    0    0    0  501 -0.00000000000E+00 -0.00000000000E+00 -0.13436332374E+04  0.13436332374E+04  0.00000000000E+00 0.  1.
         23    2    1    2    0    0  0.56675889869E+02  0.26066413068E+03 -0.11578604232E+04  0.11914295010E+04  0.87781265744E+02 0.  0.
        -24    2    1    2    0    0 -0.31214308217E+02 -0.18602261839E+03 -0.78922982440E+02  0.21975130039E+03  0.80517384926E+02 0.  0.
         11    1    4    4    0    0 -0.32772980751E+02 -0.18981376821E+03 -0.86487266922E+02  0.21114777339E+03  0.00000000000E+00 0. -1.
        -12    1    4    4    0    0  0.15586725340E+01  0.37911498209E+01  0.75642844818E+01  0.86035269950E+01  0.00000000000E+00 0.  1.
        -11    1    3    3    0    0  0.20675407831E+02  0.18205194694E+03 -0.92644338199E+03  0.94438748611E+03  0.00000000000E+00 0.  1.
         11    1    3    3    0    0  0.36000482038E+02  0.78612183744E+02 -0.23141704120E+03  0.24704201485E+03  0.00000000000E+00 0. -1.
         -1    1    1    2    0  502 -0.25461581653E+02 -0.74641512296E+02  0.59474675641E+02  0.98776943366E+02  0.00000000000E+00 0.  1.
<scales pt_clust_5="13000.00000" pt_clust_6="13000.00000" pt_clust_7="13000.00000" pt_clust_8="13000.00000" pt_clust_9="78.86474"></scales>
<clustering>
<clus scale="   78.865">  1  9  2 -1</clus>
<clus scale="   80.517">  5  6 -1 -1</clus>
<clus scale="   87.781">  7  8 -1 -1</clus>
<clus scale="  264.246">  1  5  2 -1</clus>
<clus scale="   78.865">  1  5  2 -1</clus>
</clustering>
</event>
<event>
 9    1  0.3197504E-005  0.1077443E+03  0.7546771E-02  0.1268377E+00
         21   -1    0    0  501  502  0.00000000000E+00  0.00000000000E+00  0.20506589900E+02  0.20506589900E+02  0.00000000000E+00 0. -1.
          1   -1    0    0  502    0 -0.00000000000E+00 -0.00000000000E+00 -0.12648034090E+04  0.12648034090E+04  0.00000000000E+00 0. -1.
         23    2    1    2    0    0  0.88411903761E+02 -0.28310106974E+02 -0.75957020513E+03  0.77032308404E+03  0.88502149137E+02 0.  0.
        -24    2    1    2    0    0 -0.35324523695E+02 -0.15041627880E+02 -0.37774377552E+03  0.38793192456E+03  0.79540842365E+02 0.  0.
         13    1    4    4    0    0 -0.38820427982E+02  0.25915066143E+02 -0.22210254579E+03  0.22695408594E+03  0.00000000000E+00 0. -1.
        -14    1    4    4    0    0  0.34959042866E+01 -0.40956694023E+02 -0.15564122974E+03  0.16097783862E+03  0.00000000000E+00 0.  1.
        -13    1    3    3    0    0  0.81289631223E+02  0.16449455492E+02 -0.49006610619E+03  0.49703458347E+03  0.00000000000E+00 0. -1.
         13    1    3    3    0    0  0.71222725382E+01 -0.44759562466E+02 -0.26950409894E+03  0.27328850057E+03  0.00000000000E+00 0.  1.
          2    1    1    2  501    0 -0.53087380065E+02  0.43351734854E+02 -0.10698283845E+03  0.12705499030E+03  0.00000000000E+00 0. -1.
<scales pt_clust_5="13000.00000" pt_clust_6="13000.00000" pt_clust_7="13000.00000" pt_clust_8="13000.00000" pt_clust_9="68.53935"></scales>
<clustering>
<clus scale="   68.539">  1  9  2 -1</clus>
<clus scale="   79.541">  5  6 -1 -1</clus>
<clus scale="   88.502">  7  8 -1 -1</clus>
<clus scale="  100.513">  1  5  2 -1</clus>
<clus scale="   68.539">  1  5  2 -1</clus>
</clustering>
</event>
<event>
 9    1  0.3197504E-005  0.1181560E+03  0.7546771E-02  0.1249101E+00
         21   -1    0    0  501  502  0.00000000000E+00  0.00000000000E+00  0.35053262985E+02  0.35053262985E+02  0.00000000000E+00 0.  1.
          1   -1    0    0  502    0 -0.00000000000E+00 -0.00000000000E+00 -0.49323584923E+03  0.49323584923E+03  0.00000000000E+00 0. -1.
         23    2    1    2    0    0 -0.15715779486E+02  0.79757654734E+02 -0.28224830388E+03  0.30697027697E+03  0.89209734255E+02 0.  0.
        -24    2    1    2    0    0 -0.67768927881E+01 -0.73734164699E+02 -0.15774248571E+03  0.19176982166E+03  0.80064470162E+02 0.  0.
         11    1    4    4    0    0 -0.25268089827E+02 -0.55297283665E+02 -0.15377598608E+03  0.16535815625E+03  0.00000000000E+00 0. -1.
        -12    1    4    4    0    0  0.18491197039E+02 -0.18436881034E+02 -0.39664996257E+01  0.26411665406E+02  0.00000000000E+00 0.  1.
        -13    1    3    3    0    0  0.28989638294E+02  0.14257690738E+00 -0.57876360054E+02  0.64730923906E+02  0.00000000000E+00 0.  1.
         13    1    3    3    0    0 -0.44705417781E+02  0.79615077826E+02 -0.22437194382E+03  0.24223935306E+03  0.00000000000E+00 0. -1.
          2    1    1    2  501    0  0.22492672275E+02 -0.60234900346E+01 -0.18191796655E+02  0.29549013584E+02  0.00000000000E+00 0. -1.
<scales pt_clust_5="13000.00000" pt_clust_6="13000.00000" pt_clust_7="13000.00000" pt_clust_8="13000.00000" pt_clust_9="23.28525"></scales>
<clustering>
<clus scale="   23.285">  1  9  2 -1</clus>
<clus scale="   80.064">  5  6 -1 -1</clus>
<clus scale="   89.210">  7  8 -1 -1</clus>
<clus scale="  111.413">  1  5  2 -1</clus>
<clus scale="   23.285">  1  5  2 -1</clus>
</clustering>
</event>
<event>
 9    1  0.3197504E-005  0.1105644E+03  0.7546771E-02  0.1264545E+00
          1   -1    0    0  502    0 -0.00000000000E+00  0.00000000000E+00  0.79390414445E+03  0.79390414445E+03  0.00000000000E+00 0. -1.
         21   -1    0    0  501  502  0.00000000000E+00 -0.00000000000E+00 -0.38695337067E+02  0.38695337067E+02  0.00000000000E+00 0.  1.
        -24    2    1    2    0    0 -0.57279582407E+02  0.14972651289E+02  0.92108458352E+02  0.13611368688E+03  0.80856890919E+02 0.  0.
         23    2    1    2    0    0 -0.39435776401E+02  0.16255433373E+02  0.22033595292E+03  0.24220684469E+03  0.91086793178E+02 0.  0.
         11    1    3    3    0    0 -0.36341967011E+02  0.42214124393E+02  0.84034745101E+02  0.10081968681E+03  0.00000000000E+00 0. -1.
        -12    1    3    3    0    0 -0.20937615396E+02 -0.27241473103E+02  0.80737132511E+01  0.35294000070E+02  0.00000000000E+00 0.  1.
        -11    1    4    4    0    0 -0.24624829107E+02 -0.36558939193E+02  0.12027405501E+03  0.12809678587E+03  0.00000000000E+00 0. -1.
         11    1    4    4    0    0 -0.14810947294E+02  0.52814372565E+02  0.10006189792E+03  0.11411005882E+03  0.00000000000E+00 0.  1.
          2    1    1    2  501    0  0.96715358807E+02 -0.31228084662E+02  0.44276439611E+03  0.45427894995E+03  0.00000000000E+00 0. -1.
<scales pt_clust_5="13000.00000" pt_clust_6="13000.00000" pt_clust_7="13000.00000" pt_clust_8="13000.00000" pt_clust_9="62.67127"></scales>
<clustering>
<clus scale="   80.857">  5  6 -1 -1</clus>
<clus scale="   91.087">  7  8 -1 -1</clus>
<clus scale="  100.215">  1  5  2 -1</clus>
<clus scale="   62.671">  2  9  1 -1</clus>
<clus scale="   62.671">  2  5  1 -1</clus>
</clustering>
</event>
<event>
 9    1  0.3197504E-005  0.1062208E+03  0.7546771E-02  0.1272040E+00
         21   -1    0    0  501  502  0.00000000000E+00  0.00000000000E+00  0.19854464983E+03  0.19854464983E+03  0.00000000000E+00 0.  1.
         -4   -1    0    0    0  501 -0.00000000000E+00 -0.00000000000E+00 -0.36999528110E+03  0.36999528110E+03  0.00000000000E+00 0.  1.
        -24    2    1    2    0    0  0.44873813887E+02  0.47761375378E+02 -0.29766201731E+03  0.31528349709E+03  0.80661011881E+02 0.  0.
         23    2    1    2    0    0 -0.37493714741E+01 -0.14266069548E+02 -0.23095359142E+02  0.94808778651E+02  0.90761943394E+02 0.  0.
         11    1    3    3    0    0 -0.22877181015E+02  0.21092757776E+02 -0.88968595226E+02  0.94253279934E+02  0.00000000000E+00 0. -1.
        -12    1    3    3    0    0  0.67750994902E+02  0.26668617602E+02 -0.20869342209E+03  0.22103021716E+03  0.00000000000E+00 0.  1.
        -11    1    4    4    0    0  0.70802975828E+01  0.28872192466E+02 -0.37686137243E+02  0.47999781791E+02  0.00000000000E+00 0.  1.
         11    1    4    4    0    0 -0.10829669057E+02 -0.43138262014E+02  0.14590778102E+02  0.46808996860E+02  0.00000000000E+00 0. -1.
         -3    1    1    2    0  502 -0.41124442413E+02 -0.33495305829E+02  0.14930674518E+03  0.15844765518E+03  0.00000000000E+00 0.  1.
<scales pt_clust_5="13000.00000" pt_clust_6="13000.00000" pt_clust_7="13000.00000" pt_clust_8="13000.00000" pt_clust_9="53.03919"></scales>
<clustering>
<clus scale="   53.039">  1  9  2 -1</clus>
<clus scale="   80.661">  5  6 -1 -1</clus>
<clus scale="   90.762">  7  8 -1 -1</clus>
<clus scale="   97.731">  2  5  1 -1</clus>
<clus scale="   53.039">  1  5  2 -1</clus>
</clustering>
</event>
<event>
 9    1  0.3197504E-005  0.1457653E+03  0.7546771E-02  0.1207941E+00
         21   -1    0    0  501  502  0.00000000000E+00  0.00000000000E+00  0.26689839895E+03  0.26689839895E+03  0.00000000000E+00 0. -1.
          1   -1    0    0  502    0 -0.00000000000E+00 -0.00000000000E+00 -0.11411772780E+03  0.11411772780E+03  0.00000000000E+00 0. -1.
        -24    2    1    2    0    0  0.96283345668E+02  0.95739136652E+02  0.26950163173E+02  0.16028473999E+03  0.80798648734E+02 0.  0.
         23    2    1    2    0    0 -0.45514394008E+02 -0.72782675437E+02  0.87713152956E+02  0.15322273311E+03  0.91731841982E+02 0.  0.
         11    1    3    3    0    0  0.62372953290E+02  0.67431428421E+01  0.12201254986E+02  0.63911860408E+02  0.00000000000E+00 0. -1.
        -12    1    3    3    0    0  0.33910392377E+02  0.88995993810E+02  0.14748908186E+02  0.96372879577E+02  0.00000000000E+00 0.  1.
        -11    1    4    4    0    0  0.46396002487E-01 -0.41956098360E+02 -0.81095502254E+01  0.42732670722E+02  0.00000000000E+00 0.  1.
         11    1    4    4    0    0 -0.45560790010E+02 -0.30826577076E+02  0.95822703181E+02  0.11049006238E+03  0.00000000000E+00 0. -1.
          2    1    1    2  501    0 -0.50768951660E+02 -0.22956461215E+02  0.38117355030E+02  0.67508653658E+02  0.00000000000E+00 0. -1.
<scales pt_clust_5="13000.00000" pt_clust_6="13000.00000" pt_clust_7="13000.00000" pt_clust_8="13000.00000" pt_clust_9="55.71791"></scales>
<clustering>
<clus scale="   55.718">  1  9  2 -1</clus>
<clus scale="   80.799">  5  6 -1 -1</clus>
<clus scale="   91.732">  7  8 -1 -1</clus>
<clus scale="  139.145">  2  5  1 -1</clus>
<clus scale="   55.718">  1  5  2 -1</clus>
</clustering>
</event>
<event>
 9    1  0.3197504E-005  0.2042836E+03  0.7546771E-02  0.1177239E+00
          1   -1    0    0  502    0 -0.00000000000E+00  0.00000000000E+00  0.60138828491E+03  0.60138828491E+03  0.00000000000E+00 0. -1.
         21   -1    0    0  501  502  0.00000000000E+00 -0.00000000000E+00 -0.12210574404E+03  0.12210574404E+03  0.00000000000E+00 0. -1.
         23    2    1    2    0    0  0.36679408977E+02 -0.34707547422E+01  0.18839038024E+03  0.21297141728E+03  0.92241335804E+02 0.  0.
        -24    2    1    2    0    0 -0.16367418640E+03 -0.12426023972E+03  0.23360246346E+03  0.32151205684E+03  0.81055815889E+02 0.  0.
         11    1    4    4    0    0 -0.12722280725E+03 -0.13100486402E+03  0.18062311908E+03  0.25685137381E+03  0.00000000000E+00 0. -1.
        -12    1    4    4    0    0 -0.36451379150E+02  0.67446243033E+01  0.52979344374E+02  0.64660683024E+02  0.00000000000E+00 0.  1.
        -11    1    3    3    0    0  0.14170847533E+02 -0.32325433873E+02  0.16677527870E+03  0.17046917663E+03  0.00000000000E+00 0. -1.
         11    1    3    3    0    0  0.22508561443E+02  0.28854679131E+02  0.21615101538E+02  0.42502240652E+02  0.00000000000E+00 0.  1.
          2    1    1    2  501    0  0.12699477743E+03  0.12773099446E+03  0.57289697176E+02  0.18901055484E+03  0.00000000000E+00 0. -1.
<scales pt_clust_5="13000.00000" pt_clust_6="13000.00000" pt_clust_7="13000.00000" pt_clust_8="13000.00000" pt_clust_9="187.51469"></scales>
<clustering>
<clus scale="   81.056">  5  6 -1 -1</clus>
<clus scale="   92.241">  7  8 -1 -1</clus>
<clus scale="   99.327">  1  7  2 -1</clus>
<clus scale="  187.515">  2  9  1 -1</clus>
<clus scale="  187.515">  2  5  1 -1</clus>
</clustering>
</event>
<event>
 9    1  0.3197504E-005  0.1241897E+03  0.7546771E-02  0.1239247E+00
         21   -1    0    0  501  502  0.00000000000E+00  0.00000000000E+00  0.18008365574E+03  0.18008365574E+03  0.00000000000E+00 0. -1.
         -2   -1    0    0    0  501 -0.00000000000E+00 -0.00000000000E+00 -0.18456649695E+03  0.18456649695E+03  0.00000000000E+00 0.  1.
         23    2    1    2    0    0  0.85136541938E+02 -0.22851968767E+02 -0.47777043377E+02  0.13549755976E+03  0.91139999875E+02 0.  0.
        -24    2    1    2    0    0 -0.60368423583E+02  0.50477589928E+02  0.10686280550E+03  0.15554823192E+03  0.81137288611E+02 0.  0.
         11    1    4    4    0    0 -0.59426506765E+02  0.32357145222E+02  0.25698276152E+02  0.72380217949E+02  0.00000000000E+00 0. -1.
        -12    1    4    4    0    0 -0.94191681789E+00  0.18120444706E+02  0.81164529345E+02  0.83168013968E+02  0.00000000000E+00 0.  1.
        -13    1    3    3    0    0  0.43463029253E+02 -0.50292367563E+02 -0.79660619839E-01  0.66470771718E+02  0.00000000000E+00 0.  1.
         13    1    3    3    0    0  0.41673512684E+02  0.27440398795E+02 -0.47697382757E+02  0.69026788042E+02  0.00000000000E+00 0. -1.
         -1    1    1    2    0  502 -0.24768118355E+02 -0.27625621161E+02 -0.63568603331E+02  0.73604361017E+02  0.00000000000E+00 0.  1.
<scales pt_clust_5="13000.00000" pt_clust_6="13000.00000" pt_clust_7="13000.00000" pt_clust_8="13000.00000" pt_clust_9="37.10305"></scales>
<clustering>
<clus scale="   37.103">  1  9  2 -1</clus>
<clus scale="   81.137">  5  6 -1 -1</clus>
<clus scale="   91.140">  7  8 -1 -1</clus>
<clus scale="  117.046">  1  5  2 -1</clus>
<clus scale="   37.103">  1  5  2 -1</clus>
</clustering>
</event>
<event>
 9    1  0.3197504E-005  0.1345794E+03  0.7546771E-02  0.1224156E+00
         21   -1    0    0  501  502  0.00000000000E+00  0.00000000000E+00  0.58882708925E+02  0.58882708925E+02  0.00000000000E+00 0. -1.
          1   -1    0    0  502    0 -0.00000000000E+00 -0.00000000000E+00 -0.70439762808E+03  0.70439762808E+03  0.00000000000E+00 0. -1.
        -24    2    1    2    0    0 -0.91321406310E+02 -0.52128819876E+02 -0.51222279437E+03  0.52867148011E+03  0.77873806236E+02 0.  0.
         23    2    1    2    0    0  0.83652729985E+02 -0.13567852341E+02 -0.70721089290E+02  0.14355944273E+03  0.91793111262E+02 0.  0.
         11    1    3    3    0    0 -0.10331899467E+03 -0.47922991523E+02 -0.40539022981E+03  0.42108510565E+03  0.00000000000E+00 0. -1.
        -12    1    3    3    0    0  0.11997588361E+02 -0.42058283533E+01 -0.10683256456E+03  0.10758637446E+03  0.00000000000E+00 0.  1.
        -11    1    4    4    0    0  0.42615422340E+02 -0.34293098075E+02 -0.79750814009E+02  0.96707203102E+02  0.00000000000E+00 0.  1.
         11    1    4    4    0    0  0.41037307646E+02  0.20725245733E+02  0.90297247195E+01  0.46852239626E+02  0.00000000000E+00 0. -1.
          2    1    1    2  501    0  0.76686763247E+01  0.65696672217E+02 -0.62571035493E+02  0.91049414165E+02  0.00000000000E+00 0. -1.
<scales pt_clust_5="13000.00000" pt_clust_6="13000.00000" pt_clust_7="13000.00000" pt_clust_8="13000.00000" pt_clust_9="66.14273"></scales>
<clustering>
<clus scale="   66.143">  1  9  2 -1</clus>
<clus scale="   77.874">  5  6 -1 -1</clus>
<clus scale="   91.793">  7  8 -1 -1</clus>
<clus scale="  125.499">  2  5  1 -1</clus>
<clus scale="   66.143">  1  5  2 -1</clus>
</clustering>
</event>
<event>
 9    1  0.3197504E-005  0.1418589E+03  0.7546771E-02  0.1230480E+00
         21   -1    0    0  501  502  0.00000000000E+00  0.00000000000E+00  0.82288069762E+03  0.82288069762E+03  0.00000000000E+00 0.  1.
         -2   -1    0    0    0  501 -0.00000000000E+00 -0.00000000000E+00 -0.46967203886E+02  0.46967203886E+02  0.00000000000E+00 0.  1.
        -24    2    1    2    0    0  0.41945890225E+02  0.25387560486E+02  0.88904884028E+02  0.12936894735E+03  0.80176431695E+02 0.  0.
         23    2    1    2    0    0  0.91235759195E+02 -0.23342338065E+02  0.44505537060E+03  0.46428535432E+03  0.92831992529E+02 0.  0.
         13    1    3    3    0    0 -0.21667008708E+02  0.34256276042E+01  0.41856577497E+02  0.47256399255E+02  0.00000000000E+00 0. -1.
        -14    1    3    3    0    0  0.63612898933E+02  0.21961932882E+02  0.47048306532E+02  0.82112548092E+02  0.00000000000E+00 0.  1.
        -11    1    4    4    0    0  0.10797635620E+03 -0.76688833214E+01  0.38732009403E+03  0.40216235590E+03  0.00000000000E+00 0.  1.
         11    1    4    4    0    0 -0.16740597003E+02 -0.15673454744E+02  0.57735276569E+02  0.62122998416E+02  0.00000000000E+00 0. -1.
         -1    1    1    2    0  502 -0.13318164942E+03 -0.20452224213E+01  0.24195323911E+03  0.27619359984E+03  0.00000000000E+00 0.  1.
<scales pt_clust_5="13000.00000" pt_clust_6="13000.00000" pt_clust_7="13000.00000" pt_clust_8="13000.00000" pt_clust_9="107.26682"></scales>
<clustering>
<clus scale="   80.176">  5  6 -1 -1</clus>
<clus scale="   92.832">  7  8 -1 -1</clus>
<clus scale="   93.980">  2  5  1 -1</clus>
<clus scale="  107.267">  1  9  2 -1</clus>
<clus scale="  107.267">  1  5  2 -1</clus>
</clustering>
</event>
<event>
 9    1  0.3197504E-005  0.9580962E+02  0.7546771E-02  0.1295445E+00
         21   -1    0    0  501  502  0.00000000000E+00  0.00000000000E+00  0.43424630169E+03  0.43424630169E+03  0.00000000000E+00 0. -1.
         -4   -1    0    0    0  501 -0.00000000000E+00 -0.00000000000E+00 -0.29099544189E+02  0.29099544189E+02  0.00000000000E+00 0.  1.
         23    2    1    2    0    0 -0.19091008189E+02 -0.76854721882E+01  0.96901430547E+02  0.13522374277E+03  0.92043686851E+02 0.  0.
        -24    2    1    2    0    0  0.39598891670E+02  0.10288324739E+02  0.26497331867E+03  0.28016571848E+03  0.81289903168E+02 0.  0.
         13    1    4    4    0    0  0.61936633244E+02  0.70172893787E+01  0.14114367513E+03  0.15429493160E+03  0.00000000000E+00 0. -1.
        -14    1    4    4    0    0 -0.22337741574E+02  0.32710353608E+01  0.12382964354E+03  0.12587078688E+03  0.00000000000E+00 0.  1.
        -13    1    3    3    0    0  0.27385360518E+02  0.23812978201E+02  0.51590329596E+02  0.63075970142E+02  0.00000000000E+00 0. -1.
         13    1    3    3    0    0 -0.46476368708E+02 -0.31498450389E+02  0.45311100951E+02  0.72147772624E+02  0.00000000000E+00 0.  1.
         -3    1    1    2    0  502 -0.20507883481E+02 -0.26028525512E+01  0.43272008289E+02  0.47956384638E+02  0.00000000000E+00 0.  1.
<scales pt_clust_5="13000.00000" pt_clust_6="13000.00000" pt_clust_7="13000.00000" pt_clust_8="13000.00000" pt_clust_9="20.67240"></scales>
<clustering>
<clus scale="   20.672">  1  9  2 -1</clus>
<clus scale="   81.290">  5  6 -1 -1</clus>
<clus scale="   85.531">  1  5  2 -1</clus>
<clus scale="   92.044">  7  8 -1 -1</clus>
<clus scale="   20.672">  1  5  2 -1</clus>
</clustering>
</event>
<event>
 9    1  0.3721406E-005  0.8977487E+02  0.7546771E-02  0.1310287E+00
         21   -1    0    0  501  502  0.00000000000E+00  0.00000000000E+00  0.22394047901E+03  0.22394047901E+03  0.00000000000E+00 0.  1.
          1   -1    0    0  502    0 -0.00000000000E+00 -0.00000000000E+00 -0.87192064772E+02  0.87192064772E+02  0.00000000000E+00 0. -1.
         23    2    1    2    0    0  0.49786382664E+01 -0.78705420740E+01 -0.42913142909E+02  0.99566089608E+02  0.89359588707E+02 0.  0.
        -24    2    1    2    0    0 -0.17440609925E+02 -0.99242585658E+01  0.99121638224E+02  0.12814802571E+03  0.78702932261E+02 0.  0.
         13    1    4    4    0    0 -0.21298573330E+02 -0.41073101842E+02  0.39779777503E+02  0.61016879787E+02  0.00000000000E+00 0. -1.
        -14    1    4    4    0    0  0.38579634050E+01  0.31148843276E+02  0.59341860721E+02  0.67131145923E+02  0.00000000000E+00 0.  1.
        -11    1    3    3    0    0 -0.21069558699E+02 -0.41767901302E+02 -0.26561175239E+02  0.53795723928E+02  0.00000000000E+00 0.  1.
         11    1    3    3    0    0  0.26048196965E+02  0.33897359228E+02 -0.16351967670E+02  0.45770365680E+02  0.00000000000E+00 0. -1.
          2    1    1    2  501    0  0.12461971658E+02  0.17794800640E+02  0.80539918920E+02  0.83418428462E+02  0.00000000000E+00 0. -1.
<scales pt_clust_5="13000.00000" pt_clust_6="13000.00000" pt_clust_7="13000.00000" pt_clust_8="13000.00000" pt_clust_9="21.72454"></scales>
<clustering>
<clus scale="   21.725">  1  9  2 -1</clus>
<clus scale="   78.703">  5  6 -1 -1</clus>
<clus scale="   79.174">  1  5  2 -1</clus>
<clus scale="   89.360">  7  8 -1 -1</clus>
<clus scale="   21.725">  1  5  2 -1</clus>
</clustering>
</event>
<event>
 9    1  0.3197504E-005  0.1280511E+03  0.7546771E-02  0.1254268E+00
         21   -1    0    0  501  502  0.00000000000E+00  0.00000000000E+00  0.29874437600E+03  0.29874437600E+03  0.00000000000E+00 0. -1.
         -2   -1    0    0    0  501 -0.00000000000E+00 -0.00000000000E+00 -0.10050496740E+03  0.10050496740E+03  0.00000000000E+00 0.  1.
        -24    2    1    2    0    0 -0.10002425112E+02  0.11888774050E+02  0.12007463403E+03  0.14371336636E+03  0.77422364177E+02 0.  0.
         23    2    1    2    0    0  0.66676388010E+02 -0.67904919866E+02  0.10794721080E+03  0.17046694524E+03  0.91375928132E+02 0.  0.
         13    1    3    3    0    0  0.27551270441E+02  0.26637070804E+02  0.64735196672E+02  0.75227998326E+02  0.00000000000E+00 0. -1.
        -14    1    3    3    0    0 -0.37553695553E+02 -0.14748296754E+02  0.55339437361E+02  0.68485368031E+02  0.00000000000E+00 0.  1.
        -11    1    4    4    0    0  0.51104892919E+02 -0.20012427855E+02  0.40801628381E+01  0.55035035002E+02  0.00000000000E+00 0.  1.
         11    1    4    4    0    0  0.15571495091E+02 -0.47892492011E+02  0.10386704796E+03  0.11543191024E+03  0.00000000000E+00 0. -1.
         -1    1    1    2    0  502 -0.56673962898E+02  0.56016145816E+02 -0.29782436237E+02  0.85069031797E+02  0.00000000000E+00 0.  1.
<scales pt_clust_5="13000.00000" pt_clust_6="13000.00000" pt_clust_7="13000.00000" pt_clust_8="13000.00000" pt_clust_9="89.70811"></scales>
<clustering>
<clus scale="   77.422">  5  6 -1 -1</clus>
<clus scale="   78.966">  2  5  1 -1</clus>
<clus scale="   89.708">  1  9  2 -1</clus>
<clus scale="   91.376">  7  8 -1 -1</clus>
<clus scale="   89.708">  1  5  2 -1</clus>
</clustering>
</event>
<event>
 9    1  0.3197504E-005  0.9862755E+02  0.7546771E-02  0.1290404E+00
         21   -1    0    0  501  502  0.00000000000E+00  0.00000000000E+00  0.16979673638E+03  0.16979673638E+03  0.00000000000E+00 0. -1.
          1   -1    0    0  502    0 -0.00000000000E+00 -0.00000000000E+00 -0.87502921909E+02  0.87502921909E+02  0.00000000000E+00 0. -1.
         23    2    1    2    0    0  0.40796146761E+02  0.24274822759E+02 -0.10111648104E+02  0.10347869799E+03  0.91389293136E+02 0.  0.
        -24    2    1    2    0    0 -0.13112434342E+01 -0.29259701638E+02  0.59573769207E+02  0.10222806643E+03  0.77741199433E+02 0.  0.
         13    1    4    4    0    0 -0.48592663564E+01 -0.55944832661E+02  0.40198251411E+02  0.69060380737E+02  0.00000000000E+00 0. -1.
        -14    1    4    4    0    0  0.35480229221E+01  0.26685131023E+02  0.19375517796E+02  0.33167685693E+02  0.00000000000E+00 0.  1.
        -11    1    3    3    0    0 -0.27235051871E+02 -0.37824455922E+01 -0.11674802668E+02  0.29872327703E+02  0.00000000000E+00 0.  1.
         11    1    3    3    0    0  0.68031198632E+02  0.28057268351E+02  0.15631545642E+01  0.73606370287E+02  0.00000000000E+00 0. -1.
          2    1    1    2  501    0 -0.39484903327E+02  0.49848788793E+01  0.32831693367E+02  0.51592893866E+02  0.00000000000E+00 0. -1.
<scales pt_clust_5="13000.00000" pt_clust_6="13000.00000" pt_clust_7="13000.00000" pt_clust_8="13000.00000" pt_clust_9="39.79832"></scales>
<clustering>
<clus scale="   39.798">  1  9  2 -1</clus>
<clus scale="   77.741">  5  6 -1 -1</clus>
<clus scale="   86.134">  1  5  2 -1</clus>
<clus scale="   91.389">  7  8 -1 -1</clus>
<clus scale="   39.798">  1  5  2 -1</clus>
</clustering>
</event>
<event>
 9    1  0.3197504E-005  0.2686472E+03  0.7546771E-02  0.1102056E+00
          1   -1    0    0  502    0 -0.00000000000E+00  0.00000000000E+00  0.24579022559E+03  0.24579022559E+03  0.00000000000E+00 0. -1.
         21   -1    0    0  501  502  0.00000000000E+00 -0.00000000000E+00 -0.23002197579E+03  0.23002197579E+03  0.00000000000E+00 0. -1.
        -24    2    1    2    0    0 -0.11350002145E+03  0.17994870782E+02  0.31960154780E+02  0.14421112964E+03  0.81051392176E+02 0.  0.
         23    2    1    2    0    0 -0.88166236424E+02  0.81650984032E+01  0.57295926628E+01  0.12706702663E+03  0.90957390833E+02 0.  0.
         13    1    3    3    0    0 -0.60329586934E+02  0.50106243540E+02  0.15320367364E+02  0.79906247300E+02  0.00000000000E+00 0. -1.
        -14    1    3    3    0    0 -0.53170434517E+02 -0.32111372758E+02  0.16639787416E+02  0.64304882337E+02  0.00000000000E+00 0.  1.
        -13    1    4    4    0    0 -0.69455137191E+02  0.21903041921E+02  0.41951218841E+02  0.84045607201E+02  0.00000000000E+00 0.  1.
         13    1    4    4    0    0 -0.18711099234E+02 -0.13737943518E+02 -0.36221626178E+02  0.43021419428E+02  0.00000000000E+00 0. -1.
          2    1    1    2  501    0  0.20166625788E+03 -0.26159969185E+02 -0.21921497637E+02  0.20453404512E+03  0.00000000000E+00 0. -1.
<scales pt_clust_5="13000.00000" pt_clust_6="13000.00000" pt_clust_7="13000.00000" pt_clust_8="13000.00000" pt_clust_9="203.35590"></scales>
<clustering>
<clus scale="   81.051">  5  6 -1 -1</clus>
<clus scale="   90.957">  7  8 -1 -1</clus>
<clus scale="   93.156">  5  7 -1 -1</clus>
<clus scale="  203.356">  2  9  1 -1</clus>
<clus scale="  203.356">  2  5  1 -1</clus>
</clustering>
</event>
<event>
 9    1  0.3197504E-005  0.4199249E+03  0.7546771E-02  0.1086676E+00
         21   -1    0    0  501  502  0.00000000000E+00  0.00000000000E+00  0.53450775936E+03  0.53450775936E+03  0.00000000000E+00 0.  1.
         -4   -1    0    0    0  501 -0.00000000000E+00 -0.00000000000E+00 -0.44997838016E+03  0.44997838016E+03  0.00000000000E+00 0.  1.
        -24    2    1    2    0    0  0.26059589620E+02  0.10198480838E+02 -0.50567669510E+02  0.11679907128E+03  0.10149789471E+03 0.  0.
         23    2    1    2    0    0  0.20695598896E+02  0.40171016181E+03 -0.46415549893E+02  0.41513695942E+03  0.91569262806E+02 0.  0.
         13    1    3    3    0    0 -0.90128346378E+01 -0.38858152667E+02 -0.30188304025E+01  0.40003756747E+02  0.00000000000E+00 0. -1.
        -14    1    3    3    0    0  0.35072424258E+02  0.49056633505E+02 -0.47548839107E+02  0.76795314536E+02  0.00000000000E+00 0.  1.
        -13    1    4    4    0    0 -0.30495933541E+02  0.25489484541E+03 -0.37032418398E+02  0.25936997551E+03  0.00000000000E+00 0.  1.
         13    1    4    4    0    0  0.51191532438E+02  0.14681531639E+03 -0.93831314954E+01  0.15576698391E+03  0.00000000000E+00 0. -1.
         -3    1    1    2    0  502 -0.46755188516E+02 -0.41190864265E+03  0.18151259860E+03  0.45255010882E+03  0.00000000000E+00 0.  1.
<scales pt_clust_5="13000.00000" pt_clust_6="13000.00000" pt_clust_7="13000.00000" pt_clust_8="13000.00000" pt_clust_9="409.81950"></scales>
<clustering>
<clus scale="   91.569">  7  8 -1 -1</clus>
<clus scale="  101.498">  5  6 -1 -1</clus>
<clus scale="  105.285">  2  5  1 -1</clus>
<clus scale="  409.819">  1  9  2 -1</clus>
<clus scale="  409.819">  1  5  2 -1</clus>
</clustering>
</event>
<event>
 9    1  0.3197504E-005  0.1605870E+03  0.7546771E-02  0.1205996E+00
         -2   -1    0    0    0  501 -0.00000000000E+00  0.00000000000E+00  0.81869794717E+02  0.81869794717E+02  0.00000000000E+00 0.  1.
         21   -1    0    0  501  502  0.00000000000E+00 -0.00000000000E+00 -0.54384897207E+03  0.54384897207E+03  0.00000000000E+00 0. -1.
         23    2    1    2    0    0  0.47127853660E+02 -0.34284082580E+02 -0.80649174433E+02  0.13518892816E+03  0.91516796548E+02 0.  0.
        -24    2    1    2    0    0 -0.73819949576E+02  0.15094326975E+03 -0.21888167358E+03  0.28875944030E+03  0.85085672695E+02 0.  0.
         13    1    4    4    0    0  0.39211663794E+01  0.72486132690E+02 -0.12137824181E+03  0.14142946144E+03  0.00000000000E+00 0. -1.
        -14    1    4    4    0    0 -0.77741115956E+02  0.78457137058E+02 -0.97503431768E+02  0.14732997886E+03  0.00000000000E+00 0.  1.
        -11    1    3    3    0    0 -0.21422885383E+02  0.53183917994E+01  0.14381116770E+00  0.22073649248E+02  0.00000000000E+00 0.  1.
         11    1    3    3    0    0  0.68550739043E+02 -0.39602474379E+02 -0.80792985601E+02  0.11311527891E+03  0.00000000000E+00 0. -1.
         -1    1    1    2    0  502  0.26692095917E+02 -0.11665918717E+03 -0.16244832934E+03  0.20177039832E+03  0.00000000000E+00 0.  1.
<scales pt_clust_5="13000.00000" pt_clust_6="13000.00000" pt_clust_7="13000.00000" pt_clust_8="13000.00000" pt_clust_9="136.19328"></scales>
<clustering>
<clus scale="   85.086">  5  6 -1 -1</clus>
<clus scale="   91.517">  7  8 -1 -1</clus>
<clus scale="  108.498">  1  7  2 -1</clus>
<clus scale="  136.193">  2  9  1 -1</clus>
<clus scale="  136.193">  2  5  1 -1</clus>
</clustering>
</event>
<event>
 9    1  0.3659374E-005  0.8289425E+02  0.7546771E-02  0.1325525E+00
         21   -1    0    0  501  502  0.00000000000E+00  0.00000000000E+00  0.27649377501E+03  0.27649377501E+03  0.00000000000E+00 0. -1.
          3   -1    0    0  502    0 -0.00000000000E+00 -0.00000000000E+00 -0.61967137436E+02  0.61967137436E+02  0.00000000000E+00 0. -1.
         23    2    1    2    0    0  0.14583970676E+02  0.38285691019E+02 -0.11590314956E+02  0.80979955933E+02  0.68883463362E+02 0.  0.
        -24    2    1    2    0    0  0.14127853793E+02 -0.11238698408E+02  0.11003933828E+03  0.13488437743E+03  0.75889621887E+02 0.  0.
         13    1    4    4    0    0  0.39904914688E+02  0.13587369421E+02  0.56774201634E+02  0.70713003014E+02  0.00000000000E+00 0. -1.
        -14    1    4    4    0    0 -0.25777060895E+02 -0.24826067829E+02  0.53265136648E+02  0.64171374415E+02  0.00000000000E+00 0.  1.
        -13    1    3    3    0    0 -0.23373169329E+02  0.92355687316E+01  0.11801901581E+02  0.27764827664E+02  0.00000000000E+00 0.  1.
         13    1    3    3    0    0  0.37957140004E+02  0.29050122287E+02 -0.23392216537E+02  0.53215128269E+02  0.00000000000E+00 0. -1.
          4    1    1    2  501    0 -0.28711824469E+02 -0.27046992611E+02  0.11607761425E+03  0.12259657908E+03  0.00000000000E+00 0. -1.
<scales pt_clust_5="13000.00000" pt_clust_6="13000.00000" pt_clust_7="13000.00000" pt_clust_8="13000.00000" pt_clust_9="39.44501"></scales>
<clustering>
<clus scale="   39.445">  1  9  2 -1</clus>
<clus scale="   68.883">  7  8 -1 -1</clus>
<clus scale="   75.890">  5  6 -1 -1</clus>
<clus scale="   76.532">  2  7  1 -1</clus>
<clus scale="   39.445">  1  5  2 -1</clus>
</clustering>
</event>
<event>
 9    1  0.3197504E-005  0.9564413E+02  0.7546771E-02  0.1297576E+00
         21   -1    0    0  501  502  0.00000000000E+00  0.00000000000E+00  0.10524981394E+03  0.10524981394E+03  0.00000000000E+00 0.  1.
         -2   -1    0    0    0  501 -0.00000000000E+00 -0.00000000000E+00 -0.20504155639E+03  0.20504155639E+03  0.00000000000E+00 0.  1.
         23    2    1    2    0    0  0.17947974778E+02  0.61179360932E+01 -0.15656478014E+03  0.18379667479E+03  0.94388179046E+02 0.  0.
        -24    2    1    2    0    0  0.34703585393E+01 -0.12130858093E+02  0.21733559572E+02  0.84989692708E+02  0.81189279763E+02 0.  0.
         13    1    4    4    0    0 -0.26654202242E+02 -0.63146466732E+01  0.40596941454E+02  0.48973798251E+02  0.00000000000E+00 0. -1.
        -14    1    4    4    0    0  0.30124560781E+02 -0.58162114203E+01 -0.18863381881E+02  0.36015894457E+02  0.00000000000E+00 0.  1.
        -11    1    3    3    0    0  0.45541107793E+02  0.26470583977E+02 -0.13049113279E+03  0.14072178243E+03  0.00000000000E+00 0.  1.
         11    1    3    3    0    0 -0.27593133015E+02 -0.20352647884E+02 -0.26073647352E+02  0.43074892358E+02  0.00000000000E+00 0. -1.
         -1    1    1    2    0  502 -0.21418333318E+02  0.60129220003E+01  0.35039478114E+02  0.41505002826E+02  0.00000000000E+00 0.  1.
<scales pt_clust_5="13000.00000" pt_clust_6="13000.00000" pt_clust_7="13000.00000" pt_clust_8="13000.00000" pt_clust_9="22.24635"></scales>
<clustering>
<clus scale="   22.246">  1  9  2 -1</clus>
<clus scale="   81.189">  5  6 -1 -1</clus>
<clus scale="   82.646">  1  5  2 -1</clus>
<clus scale="   94.388">  7  8 -1 -1</clus>
<clus scale="   22.246">  1  5  2 -1</clus>
</clustering>
</event>
<event>
 9    1  0.3197504E-005  0.1013244E+03  0.7546771E-02  0.1281810E+00
         21   -1    0    0  501  502  0.00000000000E+00  0.00000000000E+00  0.56746995068E+02  0.56746995068E+02  0.00000000000E+00 0.  1.
          1   -1    0    0  502    0 -0.00000000000E+00 -0.00000000000E+00 -0.34305034511E+03  0.34305034511E+03  0.00000000000E+00 0. -1.
         23    2    1    2    0    0 -0.39242646715E+01  0.39237964040E+02 -0.24433181797E+03  0.26410022594E+03  0.92173067623E+02 0.  0.
        -24    2    1    2    0    0 -0.19860478090E+02 -0.53131533407E+02 -0.27265771783E+02  0.10447204989E+03  0.83388179404E+02 0.  0.
         11    1    4    4    0    0 -0.24254920849E+02 -0.65686298773E+01 -0.47324539355E+02  0.53582274205E+02  0.00000000000E+00 0. -1.
        -12    1    4    4    0    0  0.43944427589E+01 -0.46562903530E+02  0.20058767572E+02  0.50889775680E+02  0.00000000000E+00 0.  1.
        -13    1    3    3    0    0 -0.45027862566E+02  0.29532740972E+02 -0.17317173755E+03  0.18135088056E+03  0.00000000000E+00 0. -1.
         13    1    3    3    0    0  0.41103597894E+02  0.97052230682E+01 -0.71160080426E+02  0.82749345380E+02  0.00000000000E+00 0.  1.
          2    1    1    2  501    0  0.23784742762E+02  0.13893569367E+02 -0.14705760289E+02  0.31225064350E+02  0.00000000000E+00 0. -1.
<scales pt_clust_5="13000.00000" pt_clust_6="13000.00000" pt_clust_7="13000.00000" pt_clust_8="13000.00000" pt_clust_9="27.54533"></scales>
<clustering>
<clus scale="   27.545">  1  9  2 -1</clus>
<clus scale="   83.388">  5  6 -1 -1</clus>
<clus scale="   92.173">  7  8 -1 -1</clus>
<clus scale="   93.404">  1  5  2 -1</clus>
<clus scale="   27.545">  1  5  2 -1</clus>
</clustering>
</event>
<event>
 9    1  0.3197504E-005  0.1453737E+03  0.7546771E-02  0.1220635E+00
          1   -1    0    0  502    0 -0.00000000000E+00  0.00000000000E+00  0.89468804214E+03  0.89468804214E+03  0.00000000000E+00 0. -1.
         21   -1    0    0  501  502  0.00000000000E+00 -0.00000000000E+00 -0.78240638746E+02  0.78240638746E+02  0.00000000000E+00 0. -1.
        -24    2    1    2    0    0 -0.20654562753E+02 -0.68001321342E+02  0.47971185886E+03  0.49153839558E+03  0.80223039948E+02 0.  0.
         23    2    1    2    0    0  0.93319206913E+02 -0.82391843203E+02  0.45469459234E+02  0.14563116495E+03  0.60366168307E+02 0.  0.
         13    1    3    3    0    0 -0.47612623122E+02 -0.41382913678E+02  0.37309603735E+03  0.37839154392E+03  0.00000000000E+00 0. -1.
        -14    1    3    3    0    0  0.26958060370E+02 -0.26618407664E+02  0.10661582150E+03  0.11314685166E+03  0.00000000000E+00 0.  1.
        -11    1    4    4    0    0  0.93556299905E+01 -0.43392747947E+02  0.24519806321E+02  0.50711727331E+02  0.00000000000E+00 0.  1.
         11    1    4    4    0    0  0.83963576923E+02 -0.38999095256E+02  0.20949652913E+02  0.94919437617E+02  0.00000000000E+00 0. -1.
          2    1    1    2  501    0 -0.72664644161E+02  0.15039316454E+03  0.29126608531E+03  0.33575912036E+03  0.00000000000E+00 0. -1.
<scales pt_clust_5="13000.00000" pt_clust_6="13000.00000" pt_clust_7="13000.00000" pt_clust_8="13000.00000" pt_clust_9="132.24771"></scales>
<clustering>
<clus scale="   60.366">  7  8 -1 -1</clus>
<clus scale="   80.223">  5  6 -1 -1</clus>
<clus scale="  107.175">  1  5  2 -1</clus>
<clus scale="  132.248">  2  9  1 -1</clus>
<clus scale="  132.248">  2  5  1 -1</clus>
</clustering>
</event>
<event>
 9    1  0.3197504E-005  0.9521129E+02  0.7546771E-02  0.1299235E+00
         -2   -1    0    0    0  501 -0.00000000000E+00  0.00000000000E+00  0.24730386139E+03  0.24730386139E+03  0.00000000000E+00 0.  1.
         21   -1    0    0  501  502  0.00000000000E+00 -0.00000000000E+00 -0.57340268980E+02  0.57340268980E+02  0.00000000000E+00 0.  1.
        -24    2    1    2    0    0  0.17276295097E+02 -0.19065207441E+02  0.84832930847E+02  0.11988183422E+03  0.80703627627E+02 0.  0.
         23    2    1    2    0    0  0.11934031337E+02 -0.17305505178E+02  0.40753612662E+02  0.10526087269E+03  0.94747521137E+02 0.  0.
         11    1    3    3    0    0  0.39179537289E+02  0.92309762738E+01  0.70805939879E+02  0.81447702161E+02  0.00000000000E+00 0. -1.
        -12    1    3    3    0    0 -0.21903242192E+02 -0.28296183714E+02  0.14026990969E+02  0.38434132057E+02  0.00000000000E+00 0.  1.
        -13    1    4    4    0    0 -0.13388600331E+02  0.22664450932E+02  0.50502068434E+02  0.56950775860E+02  0.00000000000E+00 0. -1.
         13    1    4    4    0    0  0.25322631669E+02 -0.39969956110E+02 -0.97484557716E+01  0.48310096833E+02  0.00000000000E+00 0.  1.
         -1    1    1    2    0  502 -0.29210326435E+02  0.36370712619E+02  0.64377048896E+02  0.79501423455E+02  0.00000000000E+00 0.  1.
<scales pt_clust_5="13000.00000" pt_clust_6="13000.00000" pt_clust_7="13000.00000" pt_clust_8="13000.00000" pt_clust_9="46.64841"></scales>
<clustering>
<clus scale="   46.648">  2  9  1 -1</clus>
<clus scale="   80.704">  5  6 -1 -1</clus>
<clus scale="   81.248">  1  5  2 -1</clus>
<clus scale="   94.748">  7  8 -1 -1</clus>
<clus scale="   46.648">  2  5  1 -1</clus>
</clustering>
</event>
<event>
 9    1  0.3197504E-005  0.9993942E+02  0.7546771E-02  0.1286487E+00
         -2   -1    0    0    0  501 -0.00000000000E+00  0.00000000000E+00  0.42431818709E+03  0.42431818709E+03  0.00000000000E+00 0.  1.
         21   -1    0    0  501  502  0.00000000000E+00 -0.00000000000E+00 -0.38803754871E+02  0.38803754871E+02  0.00000000000E+00 0. -1.
        -24    2    1    2    0    0 -0.24667558663E+02  0.55435727878E+02  0.18105080361E+03  0.20722077071E+03  0.80495005753E+02 0.  0.
         23    2    1    2    0    0  0.23599076560E+02  0.29486872666E+01  0.12166136379E+03  0.15457942311E+03  0.92345543694E+02 0.  0.
         11    1    3    3    0    0 -0.28844668098E+02 -0.13408291976E+02  0.55117168524E+02  0.63637248821E+02  0.00000000000E+00 0. -1.
        -12    1    3    3    0    0  0.41771094356E+01  0.68844019854E+02  0.12593363509E+03  0.14358352189E+03  0.00000000000E+00 0.  1.
        -11    1    4    4    0    0  0.52973761010E+02 -0.20087263657E+02  0.85784504246E+02  0.10280417640E+03  0.00000000000E+00 0.  1.
         11    1    4    4    0    0 -0.29374684450E+02  0.23035950923E+02  0.35876859539E+02  0.51775246710E+02  0.00000000000E+00 0. -1.
         -1    1    1    2    0  502  0.10684821021E+01 -0.58384415144E+02  0.82802264824E+02  0.10132174814E+03  0.00000000000E+00 0.  1.
<scales pt_clust_5="13000.00000" pt_clust_6="13000.00000" pt_clust_7="13000.00000" pt_clust_8="13000.00000" pt_clust_9="58.39419"></scales>
<clustering>
<clus scale="   58.394">  2  9  1 -1</clus>
<clus scale="   80.495">  5  6 -1 -1</clus>
<clus scale="   89.105">  1  5  2 -1</clus>
<clus scale="   92.346">  7  8 -1 -1</clus>
<clus scale="   58.394">  2  5  1 -1</clus>
</clustering>
</event>
<event>
 9    1  0.3197504E-005  0.9059650E+02  0.7546771E-02  0.1306490E+00
         21   -1    0    0  501  502  0.00000000000E+00  0.00000000000E+00  0.69291962828E+02  0.69291962828E+02  0.00000000000E+00 0. -1.
          1   -1    0    0  502    0 -0.00000000000E+00 -0.00000000000E+00 -0.28159547627E+03  0.28159547627E+03  0.00000000000E+00 0. -1.
         23    2    1    2    0    0 -0.25402648679E+02  0.22219137039E+02 -0.11202019779E+03  0.14787779958E+03  0.90445200449E+02 0.  0.
        -24    2    1    2    0    0 -0.42718176090E+02  0.21845281769E+02 -0.51928503280E+02  0.10856225919E+03  0.82384074693E+02 0.  0.
         11    1    4    4    0    0 -0.19641347922E+02  0.48376140640E+02 -0.88521734837E+01  0.52956534128E+02  0.00000000000E+00 0. -1.
        -12    1    4    4    0    0 -0.23076828168E+02 -0.26530858871E+02 -0.43076329796E+02  0.55605725060E+02  0.00000000000E+00 0.  1.
        -13    1    3    3    0    0  0.32301245313E+02  0.13337199127E+02 -0.24530196114E+02  0.42696391542E+02  0.00000000000E+00 0. -1.
         13    1    3    3    0    0 -0.57703893993E+02  0.88819379127E+01 -0.87490001678E+02  0.10518140804E+03  0.00000000000E+00 0.  1.
          2    1    1    2  501    0  0.68120824769E+02 -0.44064418808E+02 -0.48354812371E+02  0.94447380332E+02  0.00000000000E+00 0. -1.
<scales pt_clust_5="13000.00000" pt_clust_6="13000.00000" pt_clust_7="13000.00000" pt_clust_8="13000.00000" pt_clust_9="81.13026"></scales>
<clustering>
<clus scale="   81.130">  1  9  2 -1</clus>
<clus scale="   82.384">  5  6 -1 -1</clus>
<clus scale="   82.550">  1  5  2 -1</clus>
<clus scale="   90.445">  7  8 -1 -1</clus>
<clus scale="   81.130">  1  5  2 -1</clus>
</clustering>
</event>
<event>
 9    1  0.3197504E-005  0.1346312E+03  0.7546771E-02  0.1240632E+00
         21   -1    0    0  501  502  0.00000000000E+00  0.00000000000E+00  0.31184108566E+03  0.31184108566E+03  0.00000000000E+00 0.  1.
         -4   -1    0    0    0  501 -0.00000000000E+00 -0.00000000000E+00 -0.20568071456E+03  0.20568071456E+03  0.00000000000E+00 0.  1.
        -24    2    1    2    0    0  0.33850120743E+01  0.41288113151E+02  0.28120182086E+02  0.93645320126E+02  0.79136178494E+02 0.  0.
         23    2    1    2    0    0  0.95809792645E+02  0.25509666154E+02  0.20810817231E+03  0.24718682878E+03  0.89230362019E+02 0.  0.
         11    1    3    3    0    0 -0.86253181588E+01 -0.22282704152E+02  0.13020423157E+02  0.27211145453E+02  0.00000000000E+00 0. -1.
        -12    1    3    3    0    0  0.12010330233E+02  0.63570817302E+02  0.15099758929E+02  0.66434174673E+02  0.00000000000E+00 0.  1.
        -11    1    4    4    0    0  0.77965719478E+01  0.38661508196E+02  0.35843544518E+02  0.53294075034E+02  0.00000000000E+00 0. -1.
         11    1    4    4    0    0  0.88013220697E+02 -0.13151842042E+02  0.17226462779E+03  0.19389275375E+03  0.00000000000E+00 0.  1.
         -3    1    1    2    0  502 -0.99194804719E+02 -0.66797779305E+02 -0.13006798330E+03  0.17668965132E+03  0.00000000000E+00 0.  1.
<scales pt_clust_5="13000.00000" pt_clust_6="13000.00000" pt_clust_7="13000.00000" pt_clust_8="13000.00000" pt_clust_9="100.81421"></scales>
<clustering>
<clus scale="   79.136">  5  6 -1 -1</clus>
<clus scale="   89.230">  7  8 -1 -1</clus>
<clus scale="   89.324">  2  5  1 -1</clus>
<clus scale="  100.814">  1  9  2 -1</clus>
<clus scale="  100.814">  1  5  2 -1</clus>
</clustering>
</event>
<event>
 9    1  0.3197504E-005  0.1149930E+03  0.7546771E-02  0.1255387E+00
          1   -1    0    0  502    0 -0.00000000000E+00  0.00000000000E+00  0.22380162212E+03  0.22380162212E+03  0.00000000000E+00 0. -1.
         21   -1    0    0  501  502  0.00000000000E+00 -0.00000000000E+00 -0.70941285018E+02  0.70941285018E+02  0.00000000000E+00 0.  1.
         23    2    1    2    0    0 -0.74400998217E+02  0.20859730229E+02  0.11338579875E+03  0.16328469108E+03  0.88515050137E+02 0.  0.
        -24    2    1    2    0    0  0.59703404059E+02 -0.35121886319E+02  0.39153224685E+02  0.11097574519E+03  0.77360181379E+02 0.  0.
         11    1    4    4    0    0  0.29282328086E+02 -0.53710735552E+02  0.43495999321E+02  0.75061307000E+02  0.00000000000E+00 0. -1.
        -12    1    4    4    0    0  0.30421075973E+02  0.18588849232E+02 -0.43427746360E+01  0.35914438193E+02  0.00000000000E+00 0.  1.
        -13    1    3    3    0    0  0.11634404287E+02  0.20046923719E+02  0.53933087524E+02  0.58702780544E+02  0.00000000000E+00 0.  1.
         13    1    3    3    0    0 -0.86035402504E+02  0.81280651006E+00  0.59452711227E+02  0.10458191053E+03  0.00000000000E+00 0. -1.
          2    1    1    2  501    0  0.14697594158E+02  0.14262156090E+02  0.32131366467E+00  0.20482470868E+02  0.00000000000E+00 0. -1.
<scales pt_clust_5="13000.00000" pt_clust_6="13000.00000" pt_clust_7="13000.00000" pt_clust_8="13000.00000" pt_clust_9="20.47995"></scales>
<clustering>
<clus scale="   20.480">  2  9  1 -1</clus>
<clus scale="   77.360">  5  6 -1 -1</clus>
<clus scale="   88.515">  7  8 -1 -1</clus>
<clus scale="  106.645">  2  5  1 -1</clus>
<clus scale="   20.480">  2  5  1 -1</clus>
</clustering>
</event>
<event>
 9    1  0.3197504E-005  0.2012629E+03  0.7546771E-02  0.1176617E+00
         -2   -1    0    0    0  501 -0.00000000000E+00  0.00000000000E+00  0.14346595225E+03  0.14346595225E+03  0.00000000000E+00 0.  1.
         21   -1    0    0  501  502  0.00000000000E+00 -0.00000000000E+00 -0.52570499517E+03  0.52570499517E+03  0.00000000000E+00 0.  1.
        -24    2    1    2    0    0  0.65213547349E+02 -0.20542833707E+02 -0.11160648804E+02  0.10592583875E+03  0.80130571313E+02 0.  0.
         23    2    1    2    0    0 -0.61898468637E+02 -0.16286748292E+03 -0.67805367053E+02  0.20880913005E+03  0.92986276290E+02 0.  0.
         13    1    3    3    0    0  0.24301609894E+02  0.28539577160E+01 -0.42701995089E+02  0.49215583942E+02  0.00000000000E+00 0. -1.
        -14    1    3    3    0    0  0.40911937454E+02 -0.23396791423E+02  0.31541346285E+02  0.56710254810E+02  0.00000000000E+00 0.  1.
        -11    1    4    4    0    0 -0.21113430131E+02 -0.68371131258E+02 -0.77437765130E+02  0.10543716607E+03  0.00000000000E+00 0.  1.
         11    1    4    4    0    0 -0.40785038506E+02 -0.94496351664E+02  0.96323980765E+01  0.10337196398E+03  0.00000000000E+00 0. -1.
         -1    1    1    2    0  502 -0.33150787111E+01  0.18341031663E+03 -0.30327302707E+03  0.35443597862E+03  0.00000000000E+00 0.  1.
<scales pt_clust_5="13000.00000" pt_clust_6="13000.00000" pt_clust_7="13000.00000" pt_clust_8="13000.00000" pt_clust_9="178.49457"></scales>
<clustering>
<clus scale="   80.131">  5  6 -1 -1</clus>
<clus scale="   92.986">  7  8 -1 -1</clus>
<clus scale="  105.336">  1  5  2 -1</clus>
<clus scale="  178.495">  2  9  1 -1</clus>
<clus scale="  178.495">  2  5  1 -1</clus>
</clustering>
</event>
<event>
 9    1  0.3197504E-005  0.9103072E+02  0.7546771E-02  0.1304972E+00
         21   -1    0    0  501  502  0.00000000000E+00  0.00000000000E+00  0.47887288936E+02  0.47887288936E+02  0.00000000000E+00 0.  1.
         -4   -1    0    0    0  501 -0.00000000000E+00 -0.00000000000E+00 -0.33112051196E+03  0.33112051196E+03  0.00000000000E+00 0.  1.
        -24    2    1    2    0    0  0.81497832755E+01 -0.92657010721E+01 -0.21519871726E+03  0.23049824099E+03  0.81649733636E+02 0.  0.
         23    2    1    2    0    0 -0.18682212100E+02  0.39595570773E+02 -0.45440423664E+02  0.10924984011E+03  0.89184422336E+02 0.  0.
         13    1    3    3    0    0  0.41511764148E+02  0.82664984919E+01 -0.85016469802E+02  0.94970320088E+02  0.00000000000E+00 0. -1.
        -14    1    3    3    0    0 -0.33361980873E+02 -0.17532199564E+02 -0.13018224746E+03  0.13552792090E+03  0.00000000000E+00 0.  1.
        -11    1    4    4    0    0  0.35361419627E+02  0.12798481467E+02 -0.26566780172E+02  0.46043728505E+02  0.00000000000E+00 0. -1.
         11    1    4    4    0    0 -0.54043631727E+02  0.26797089306E+02 -0.18873643492E+02  0.63206111605E+02  0.00000000000E+00 0.  1.
         -3    1    1    2    0  502  0.10532428825E+02 -0.30329869701E+02 -0.22594082102E+02  0.39259719804E+02  0.00000000000E+00 0.  1.
<scales pt_clust_5="13000.00000" pt_clust_6="13000.00000" pt_clust_7="13000.00000" pt_clust_8="13000.00000" pt_clust_9="32.10659"></scales>
<clustering>
<clus scale="   32.107">  1  9  2 -1</clus>
<clus scale="   81.650">  5  6 -1 -1</clus>
<clus scale="   83.662">  2  5  1 -1</clus>
<clus scale="   89.184">  7  8 -1 -1</clus>
<clus scale="   32.107">  1  5  2 -1</clus>
</clustering>
</event>
<event>
 9    1  0.3197504E-005  0.1889120E+03  0.7546771E-02  0.1178771E+00
          1   -1    0    0  502    0 -0.00000000000E+00  0.00000000000E+00  0.49611357969E+03  0.49611357969E+03  0.00000000000E+00 0. -1.
         21   -1    0    0  501  502  0.00000000000E+00 -0.00000000000E+00 -0.13180967193E+03  0.13180967193E+03  0.00000000000E+00 0. -1.
         23    2    1    2    0    0 -0.79046255870E+02 -0.21214959942E+02  0.23256737216E+02  0.12354223174E+03  0.89573556946E+02 0.  0.
        -24    2    1    2    0    0  0.12861133494E+03  0.15713619103E+03  0.14674391757E+03  0.26213108234E+03  0.77112054686E+02 0.  0.
         11    1    4    4    0    0  0.35711100441E+02  0.38237676887E+02  0.83471701254E+02  0.98513590629E+02  0.00000000000E+00 0. -1.
        -12    1    4    4    0    0  0.92900234504E+02  0.11889851414E+03  0.63272216311E+02  0.16361749171E+03  0.00000000000E+00 0.  1.
        -13    1    3    3    0    0  0.14913290614E+02 -0.18862562406E+02  0.16796875310E+02  0.29331510661E+02  0.00000000000E+00 0. -1.
         13    1    3    3    0    0 -0.93959546484E+02 -0.23523975355E+01  0.64598619066E+01  0.94210721075E+02  0.00000000000E+00 0.  1.
          2    1    1    2  501    0 -0.49565079075E+02 -0.13592123109E+03  0.19430325298E+03  0.24224993755E+03  0.00000000000E+00 0. -1.
<scales pt_clust_5="13000.00000" pt_clust_6="13000.00000" pt_clust_7="13000.00000" pt_clust_8="13000.00000" pt_clust_9="172.45729"></scales>
<clustering>
<clus scale="   77.112">  5  6 -1 -1</clus>
<clus scale="   89.574">  7  8 -1 -1</clus>
<clus scale="  121.334">  1  7  2 -1</clus>
<clus scale="  172.457">  2  9  1 -1</clus>
<clus scale="  172.457">  2  5  1 -1</clus>
</clustering>
</event>
<event>
 9    1  0.3197504E-005  0.1967754E+03  0.7546771E-02  0.1153587E+00
         21   -1    0    0  501  502  0.00000000000E+00  0.00000000000E+00  0.15689133100E+03  0.15689133100E+03  0.00000000000E+00 0.  1.
          1   -1    0    0  502    0 -0.00000000000E+00 -0.00000000000E+00 -0.40713870725E+03  0.40713870725E+03  0.00000000000E+00 0. -1.
         23    2    1    2    0    0  0.15873962733E+03 -0.92074803191E+02 -0.21659617761E+03  0.29861378303E+03  0.92629631266E+02 0.  0.
        -24    2    1    2    0    0 -0.16498992929E+03  0.13952130299E+02 -0.30251766462E+02  0.18697025830E+03  0.81402514743E+02 0.  0.
         13    1    4    4    0    0 -0.34885218041E+02 -0.31185080297E+02 -0.81098247379E+01  0.47489545462E+02  0.00000000000E+00 0. -1.
        -14    1    4    4    0    0 -0.13010471125E+03  0.45137210596E+02 -0.22141941724E+02  0.13948071283E+03  0.00000000000E+00 0.  1.
        -13    1    3    3    0    0  0.13007285823E+03 -0.32546477420E+02 -0.11107625784E+03  0.17411535457E+03  0.00000000000E+00 0. -1.
         13    1    3    3    0    0  0.28666769104E+02 -0.59528325771E+02 -0.10551991977E+03  0.12449842846E+03  0.00000000000E+00 0.  1.
          2    1    1    2  501    0  0.62503019572E+01  0.78122672892E+02 -0.33994321704E+01  0.78445996925E+02  0.00000000000E+00 0. -1.
<scales pt_clust_5="13000.00000" pt_clust_6="13000.00000" pt_clust_7="13000.00000" pt_clust_8="13000.00000" pt_clust_9="78.37231"></scales>
<clustering>
<clus scale="   78.372">  1  9  2 -1</clus>
<clus scale="   81.403">  5  6 -1 -1</clus>
<clus scale="   92.630">  7  8 -1 -1</clus>
<clus scale="  191.746">  1  5  2 -1</clus>
<clus scale="   78.372">  1  5  2 -1</clus>
</clustering>
</event>
<event>
 9    1  0.3197504E-005  0.9609566E+02  0.7546771E-02  0.1293685E+00
         21   -1    0    0  501  502  0.00000000000E+00  0.00000000000E+00  0.86397278825E+02  0.86397278825E+02  0.00000000000E+00 0. -1.
          1   -1    0    0  502    0 -0.00000000000E+00 -0.00000000000E+00 -0.18793134711E+03  0.18793134711E+03  0.00000000000E+00 0. -1.
         23    2    1    2    0    0 -0.16481327286E+02  0.53206239299E+02 -0.80346886807E+02  0.13297507124E+03  0.90134395776E+02 0.  0.
        -24    2    1    2    0    0 -0.13536832165E+02 -0.45029188448E+01 -0.79763189166E+01  0.82637030531E+02  0.81004537209E+02 0.  0.
         11    1    4    4    0    0 -0.32817128320E+02  0.21476186392E+02 -0.24567362021E+02  0.46278999231E+02  0.00000000000E+00 0. -1.
        -12    1    4    4    0    0  0.19280296156E+02 -0.25979105237E+02  0.16591043105E+02  0.36358031300E+02  0.00000000000E+00 0.  1.
        -13    1    3    3    0    0  0.14683991718E+02  0.63185147567E+02 -0.26728950165E+02  0.70159954837E+02  0.00000000000E+00 0.  1.
         13    1    3    3    0    0 -0.31165319003E+02 -0.99789082677E+01 -0.53617936642E+02  0.62815116402E+02  0.00000000000E+00 0. -1.
          2    1    1    2  501    0  0.30018159451E+02 -0.48703320454E+02 -0.13210862558E+02  0.58716524162E+02  0.00000000000E+00 0. -1.
<scales pt_clust_5="13000.00000" pt_clust_6="13000.00000" pt_clust_7="13000.00000" pt_clust_8="13000.00000" pt_clust_9="57.21104"></scales>
<clustering>
<clus scale="   57.211">  1  9  2 -1</clus>
<clus scale="   81.005">  5  6 -1 -1</clus>
<clus scale="   87.589">  1  5  2 -1</clus>
<clus scale="   90.134">  7  8 -1 -1</clus>
<clus scale="   57.211">  1  5  2 -1</clus>
</clustering>
</event>
<event>
 9    1  0.3197504E-005  0.1057189E+03  0.7546771E-02  0.1272771E+00
         21   -1    0    0  501  502  0.00000000000E+00  0.00000000000E+00  0.14828181380E+03  0.14828181380E+03  0.00000000000E+00 0. -1.
          1   -1    0    0  502    0 -0.00000000000E+00 -0.00000000000E+00 -0.18349318561E+03  0.18349318561E+03  0.00000000000E+00 0. -1.
         23    2    1    2    0    0  0.25905833997E+02 -0.58587429329E+02 -0.10987260434E+03  0.15573441955E+03  0.89875586997E+02 0.  0.
        -24    2    1    2    0    0  0.23238747748E+02  0.29526995736E+02  0.79008691915E+02  0.11878152713E+03  0.80341738314E+02 0.  0.
         13    1    4    4    0    0  0.26037420705E+02 -0.22206656778E+02  0.17746340953E+02  0.38548871572E+02  0.00000000000E+00 0. -1.
        -14    1    4    4    0    0 -0.27986729566E+01  0.51733652514E+02  0.61262350962E+02  0.80232655560E+02  0.00000000000E+00 0.  1.
        -11    1    3    3    0    0 -0.30060593272E+02 -0.25241402781E+01 -0.21439786177E+02  0.37009120272E+02  0.00000000000E+00 0.  1.
         11    1    3    3    0    0  0.55966427270E+02 -0.56063289051E+02 -0.88432818164E+02  0.11872529928E+03  0.00000000000E+00 0. -1.
          2    1    1    2  501    0 -0.49144581746E+02  0.29060433593E+02 -0.43474593837E+01  0.57259052722E+02  0.00000000000E+00 0. -1.
<scales pt_clust_5="13000.00000" pt_clust_6="13000.00000" pt_clust_7="13000.00000" pt_clust_8="13000.00000" pt_clust_9="57.09377"></scales>
<clustering>
<clus scale="   57.094">  1  9  2 -1</clus>
<clus scale="   80.342">  5  6 -1 -1</clus>
<clus scale="   89.876">  7  8 -1 -1</clus>
<clus scale="   97.743">  1  5  2 -1</clus>
<clus scale="   57.094">  1  5  2 -1</clus>
</clustering>
</event>
<event>
 9    1  0.3197504E-005  0.9344720E+02  0.7546771E-02  0.1301300E+00
         -2   -1    0    0    0  501 -0.00000000000E+00  0.00000000000E+00  0.95139799280E+02  0.95139799280E+02  0.00000000000E+00 0.  1.
         21   -1    0    0  501  502  0.00000000000E+00 -0.00000000000E+00 -0.25184654063E+03  0.25184654063E+03  0.00000000000E+00 0.  1.
        -24    2    1    2    0    0 -0.76640556294E+01  0.25227787993E+02  0.31502127561E+02  0.89943079351E+02  0.80013714115E+02 0.  0.
         23    2    1    2    0    0  0.36953489501E+02  0.29361290951E+02 -0.15737657873E+03  0.18784449905E+03  0.91052306384E+02 0.  0.
         11    1    3    3    0    0  0.37597011646E+01 -0.23850725137E+02 -0.85077749672E+01  0.25600286664E+02  0.00000000000E+00 0. -1.
        -12    1    3    3    0    0 -0.11423756794E+02  0.49078513130E+02  0.40009902529E+02  0.64342792686E+02  0.00000000000E+00 0.  1.
        -13    1    4    4    0    0  0.44686041548E+02 -0.16783197558E+02 -0.42912683675E+02  0.64187354282E+02  0.00000000000E+00 0. -1.
         13    1    4    4    0    0 -0.77325520477E+01  0.46144488508E+02 -0.11446389506E+03  0.12365714477E+03  0.00000000000E+00 0.  1.
         -1    1    1    2    0  502 -0.29289433871E+02 -0.54589078944E+02 -0.30832290177E+02  0.69198761506E+02  0.00000000000E+00 0.  1.
<scales pt_clust_5="13000.00000" pt_clust_6="13000.00000" pt_clust_7="13000.00000" pt_clust_8="13000.00000" pt_clust_9="61.95032"></scales>
<clustering>
<clus scale="   61.950">  2  9  1 -1</clus>
<clus scale="   80.014">  5  6 -1 -1</clus>
<clus scale="   82.729">  1  5  2 -1</clus>
<clus scale="   91.052">  7  8 -1 -1</clus>
<clus scale="   61.950">  2  5  1 -1</clus>
</clustering>
</event>
<event>
 9    1  0.3197504E-005  0.1729188E+03  0.7546771E-02  0.1205812E+00
         -2   -1    0    0    0  501 -0.00000000000E+00  0.00000000000E+00  0.11588592197E+04  0.11588592197E+04  0.00000000000E+00 0.  1.
         21   -1    0    0  501  502  0.00000000000E+00 -0.00000000000E+00 -0.43506652317E+02  0.43506652317E+02  0.00000000000E+00 0. -1.
        -24    2    1    2    0    0 -0.92260561478E+01  0.31466715973E+02  0.38987912769E+03  0.39952195761E+03  0.80850393191E+02 0.  0.
         23    2    1    2    0    0  0.10168626993E+03  0.96069107723E+02  0.24474723041E+03  0.29696649274E+03  0.93373015724E+02 0.  0.
         11    1    3    3    0    0  0.34551900653E+02  0.15722367475E+02  0.12677940668E+03  0.13234063865E+03  0.00000000000E+00 0. -1.
        -12    1    3    3    0    0 -0.43777956801E+02  0.15744348498E+02  0.26309972100E+03  0.26718131896E+03  0.00000000000E+00 0.  1.
        -11    1    4    4    0    0 -0.17965388881E+02  0.16340946188E+02  0.31494476982E+02  0.39770388486E+02  0.00000000000E+00 0.  1.
         11    1    4    4    0    0  0.11965165882E+03  0.79728161535E+02  0.21325275343E+03  0.25719610425E+03  0.00000000000E+00 0. -1.
         -1    1    1    2    0  502 -0.92460213786E+02 -0.12753582370E+03  0.48072620929E+03  0.50587742167E+03  0.00000000000E+00 0.  1.
<scales pt_clust_5="13000.00000" pt_clust_6="13000.00000" pt_clust_7="13000.00000" pt_clust_8="13000.00000" pt_clust_9="145.54180"></scales>
<clustering>
<clus scale="   80.850">  5  6 -1 -1</clus>
<clus scale="   87.247">  1  5  2 -1</clus>
<clus scale="   93.373">  7  8 -1 -1</clus>
<clus scale="  145.542">  2  9  1 -1</clus>
<clus scale="  145.542">  2  5  1 -1</clus>
</clustering>
</event>
<event>
 9    1  0.3197504E-005  0.1153265E+03  0.7546771E-02  0.1255573E+00
         21   -1    0    0  501  502  0.00000000000E+00  0.00000000000E+00  0.17036910948E+03  0.17036910948E+03  0.00000000000E+00 0.  1.
         -4   -1    0    0    0  501 -0.00000000000E+00 -0.00000000000E+00 -0.21769585054E+03  0.21769585054E+03  0.00000000000E+00 0.  1.
         23    2    1    2    0    0  0.14145076220E+00 -0.87889629343E+02 -0.15015808938E+03  0.19719013736E+03  0.92800277536E+02 0.  0.
        -24    2    1    2    0    0  0.17445694342E+02  0.16348747785E+02  0.34462716326E+02  0.90367732124E+02  0.80043827917E+02 0.  0.
         13    1    4    4    0    0  0.23405515937E+02  0.33942833134E+02 -0.97879427846E+01  0.42376148024E+02  0.00000000000E+00 0. -1.
        -14    1    4    4    0    0 -0.59598215952E+01 -0.17594085349E+02  0.44250659110E+02  0.47991584100E+02  0.00000000000E+00 0.  1.
        -11    1    3    3    0    0 -0.22140991571E+02 -0.10701891212E+02  0.24632879848E+01  0.24714808738E+02  0.00000000000E+00 0. -1.
         11    1    3    3    0    0  0.22282442333E+02 -0.77187738131E+02 -0.15262137736E+03  0.17247532862E+03  0.00000000000E+00 0.  1.
         -3    1    1    2    0  502 -0.17587145104E+02  0.71540881558E+02  0.68368632000E+02  0.10050709054E+03  0.00000000000E+00 0.  1.
<scales pt_clust_5="13000.00000" pt_clust_6="13000.00000" pt_clust_7="13000.00000" pt_clust_8="13000.00000" pt_clust_9="73.67093"></scales>
<clustering>
<clus scale="   73.671">  1  9  2 -1</clus>
<clus scale="   80.044">  5  6 -1 -1</clus>
<clus scale="   92.800">  7  8 -1 -1</clus>
<clus scale="  105.334">  1  5  2 -1</clus>
<clus scale="   73.671">  1  5  2 -1</clus>
</clustering>
</event>
<event>
 9    1  0.3197504E-005  0.9384849E+02  0.7546771E-02  0.1299170E+00
         21   -1    0    0  501  502  0.00000000000E+00  0.00000000000E+00  0.46158420244E+02  0.46158420244E+02  0.00000000000E+00 0.  1.
         -2   -1    0    0    0  501 -0.00000000000E+00 -0.00000000000E+00 -0.25665934046E+03  0.25665934046E+03  0.00000000000E+00 0.  1.
        -24    2    1    2    0    0 -0.16551353694E+02 -0.86494726701E+01 -0.11470661113E+03  0.14180067022E+03  0.81246924575E+02 0.  0.
         23    2    1    2    0    0  0.14899524269E+02  0.38435134281E+02 -0.70630220110E+02  0.12198959310E+03  0.90518381891E+02 0.  0.
         13    1    3    3    0    0  0.24667414184E+02  0.50721228644E+01 -0.86289255865E+02  0.89889061796E+02  0.00000000000E+00 0. -1.
        -14    1    3    3    0    0 -0.41218767879E+02 -0.13721595535E+02 -0.28417355264E+02  0.51911608429E+02  0.00000000000E+00 0.  1.
        -11    1    4    4    0    0  0.21832284445E+02  0.59396183266E+02 -0.76366652447E+02  0.99178731775E+02  0.00000000000E+00 0.  1.
         11    1    4    4    0    0 -0.69327601757E+01 -0.20961048985E+02  0.57364323367E+01  0.22810861320E+02  0.00000000000E+00 0. -1.
         -1    1    1    2    0  502  0.16518294250E+01 -0.29785661611E+02 -0.25164088981E+02  0.39027497387E+02  0.00000000000E+00 0.  1.
<scales pt_clust_5="13000.00000" pt_clust_6="13000.00000" pt_clust_7="13000.00000" pt_clust_8="13000.00000" pt_clust_9="29.83143"></scales>
<clustering>
<clus scale="   29.831">  1  9  2 -1</clus>
<clus scale="   81.247">  5  6 -1 -1</clus>
<clus scale="   84.941">  2  5  1 -1</clus>
<clus scale="   90.518">  7  8 -1 -1</clus>
<clus scale="   29.831">  1  5  2 -1</clus>
</clustering>
</event>
<event>
 9    1  0.3197504E-005  0.1198707E+03  0.7546771E-02  0.1246717E+00
         21   -1    0    0  501  502  0.00000000000E+00  0.00000000000E+00  0.78400333964E+02  0.78400333964E+02  0.00000000000E+00 0. -1.
          3   -1    0    0  502    0 -0.00000000000E+00 -0.00000000000E+00 -0.36848370153E+03  0.36848370153E+03  0.00000000000E+00 0. -1.
        -24    2    1    2    0    0  0.43065815685E+02  0.73360866993E+02 -0.15069618124E+03  0.19080955128E+03  0.80389455349E+02 0.  0.
         23    2    1    2    0    0 -0.91976038599E+02 -0.55640748094E+01 -0.99834406619E+02  0.16359185169E+03  0.91130865192E+02 0.  0.
         11    1    3    3    0    0  0.10403822579E+01  0.74971131208E+02 -0.97602781777E+02  0.12307743871E+03  0.00000000000E+00 0. -1.
        -12    1    3    3    0    0  0.42025433427E+02 -0.16102642149E+01 -0.53093399466E+02  0.67732112564E+02  0.00000000000E+00 0.  1.
        -13    1    4    4    0    0 -0.19055193988E+02  0.24854128974E+02  0.56234405292E+01  0.31819038771E+02  0.00000000000E+00 0.  1.
         13    1    4    4    0    0 -0.72920844611E+02 -0.30418203783E+02 -0.10545784715E+03  0.13177281292E+03  0.00000000000E+00 0. -1.
          4    1    1    2  501    0  0.48910222914E+02 -0.67796792184E+02 -0.39552779704E+02  0.92482632522E+02  0.00000000000E+00 0. -1.
<scales pt_clust_5="13000.00000" pt_clust_6="13000.00000" pt_clust_7="13000.00000" pt_clust_8="13000.00000" pt_clust_9="83.59794"></scales>
<clustering>
<clus scale="   80.389">  5  6 -1 -1</clus>
<clus scale="   83.598">  1  9  2 -1</clus>
<clus scale="   91.131">  7  8 -1 -1</clus>
<clus scale="  111.922">  2  5  1 -1</clus>
<clus scale="   83.598">  1  5  2 -1</clus>
</clustering>
</event>
<event>
 9    1  0.3197504E-005  0.2667784E+03  0.7546771E-02  0.1103138E+00
          1   -1    0    0  502    0 -0.00000000000E+00  0.00000000000E+00  0.80699143734E+03  0.80699143734E+03  0.00000000000E+00 0. -1.
         21   -1    0    0  501  502  0.00000000000E+00 -0.00000000000E+00 -0.50921675882E+03  0.50921675882E+03  0.00000000000E+00 0. -1.
        -24    2    1    2    0    0 -0.41355257418E+02 -0.68657646692E+02  0.28291683642E+03  0.30554653123E+03  0.83021784203E+02 0.  0.
         23    2    1    2    0    0 -0.10570352295E+03 -0.51920418525E+02  0.48292810505E+03  0.50543386902E+03  0.91514352322E+02 0.  0.
         11    1    3    3    0    0  0.24786335714E+02 -0.29488552040E+02  0.92895115441E+02  0.10056559855E+03  0.00000000000E+00 0. -1.
        -12    1    3    3    0    0 -0.66141593132E+02 -0.39169094652E+02  0.19002172098E+03  0.20498093268E+03  0.00000000000E+00 0.  1.
        -11    1    4    4    0    0 -0.20286016285E+02 -0.25832097397E+02  0.32393288471E+02  0.46131820370E+02  0.00000000000E+00 0.  1.
         11    1    4    4    0    0 -0.85417506666E+02 -0.26088321128E+02  0.45053481657E+03  0.45930204865E+03  0.00000000000E+00 0. -1.
          2    1    1    2  501    0  0.14705878037E+03  0.12057806522E+03 -0.46807026295E+03  0.50522779590E+03  0.00000000000E+00 0. -1.
<scales pt_clust_5="13000.00000" pt_clust_6="13000.00000" pt_clust_7="13000.00000" pt_clust_8="13000.00000" pt_clust_9="190.17191"></scales>
<clustering>
<clus scale="   83.022">  5  6 -1 -1</clus>
<clus scale="   91.514">  7  8 -1 -1</clus>
<clus scale="  102.802">  5  7 -1 -1</clus>
<clus scale="  190.172">  2  9  1 -1</clus>
<clus scale="  190.172">  2  5  1 -1</clus>
</clustering>
</event>
<event>
 9    1  0.3197504E-005  0.1281372E+03  0.7546771E-02  0.1233528E+00
         21   -1    0    0  501  502  0.00000000000E+00  0.00000000000E+00  0.14189025899E+03  0.14189025899E+03  0.00000000000E+00 0. -1.
          1   -1    0    0  502    0 -0.00000000000E+00 -0.00000000000E+00 -0.20214680683E+03  0.20214680683E+03  0.00000000000E+00 0. -1.
         23    2    1    2    0    0  0.60250750166E+02 -0.80227445158E+02 -0.67620579412E+02  0.15257172516E+03  0.92946181776E+02 0.  0.
        -24    2    1    2    0    0 -0.55185666506E+02  0.35121322733E+02  0.61408898821E+02  0.12088868000E+03  0.81018855831E+02 0.  0.
         13    1    4    4    0    0 -0.21982470890E+02  0.54189450904E+02  0.14336057289E+02  0.60210033668E+02  0.00000000000E+00 0. -1.
        -14    1    4    4    0    0 -0.33203195615E+02 -0.19068128172E+02  0.47072841533E+02  0.60678646334E+02  0.00000000000E+00 0.  1.
        -11    1    3    3    0    0  0.77564549251E+02 -0.35138167073E+02 -0.26619251681E+02  0.89216224117E+02  0.00000000000E+00 0. -1.
         11    1    3    3    0    0 -0.17313799084E+02 -0.45089278084E+02 -0.41001327730E+02  0.63355501044E+02  0.00000000000E+00 0.  1.
          2    1    1    2  501    0 -0.50650836608E+01  0.45106122425E+02 -0.54044867253E+02  0.70576660655E+02  0.00000000000E+00 0. -1.
<scales pt_clust_5="13000.00000" pt_clust_6="13000.00000" pt_clust_7="13000.00000" pt_clust_8="13000.00000" pt_clust_9="45.38964"></scales>
<clustering>
<clus scale="   45.390">  1  9  2 -1</clus>
<clus scale="   81.019">  5  6 -1 -1</clus>
<clus scale="   92.946">  7  8 -1 -1</clus>
<clus scale="  119.767">  1  5  2 -1</clus>
<clus scale="   45.390">  1  5  2 -1</clus>
</clustering>
</event>
<event>
 9    1  0.3197504E-005  0.1266261E+03  0.7546771E-02  0.1254489E+00
          1   -1    0    0  502    0 -0.00000000000E+00  0.00000000000E+00  0.10580117797E+03  0.10580117797E+03  0.00000000000E+00 0. -1.
         21   -1    0    0  501  502  0.00000000000E+00 -0.00000000000E+00 -0.15752594220E+03  0.15752594220E+03  0.00000000000E+00 0.  1.
        -24    2    1    2    0    0  0.72118177330E+01 -0.88132759864E+01  0.32008127862E+02  0.87290882636E+02  0.80408294307E+02 0.  0.
         23    2    1    2    0    0  0.14098943967E+02  0.23116115875E+02 -0.73490354521E+02  0.14840239290E+03  0.12605277854E+03 0.  0.
         11    1    3    3    0    0  0.42237300229E+02  0.63233382595E+01  0.12876578161E+02  0.44606954643E+02  0.00000000000E+00 0. -1.
        -12    1    3    3    0    0 -0.35025482496E+02 -0.15136614246E+02  0.19131549701E+02  0.42683927993E+02  0.00000000000E+00 0.  1.
        -11    1    4    4    0    0 -0.48329631401E+02 -0.17092449621E+02 -0.47041799616E+02  0.69576116710E+02  0.00000000000E+00 0. -1.
         11    1    4    4    0    0  0.62428575368E+02  0.40208565496E+02 -0.26448554905E+02  0.78826276192E+02  0.00000000000E+00 0.  1.
          2    1    1    2  501    0 -0.21310761700E+02 -0.14302839889E+02 -0.10242537577E+02  0.27633844632E+02  0.00000000000E+00 0. -1.
<scales pt_clust_5="13000.00000" pt_clust_6="13000.00000" pt_clust_7="13000.00000" pt_clust_8="13000.00000" pt_clust_9="25.66554"></scales>
<clustering>
<clus scale="   25.666">  2  9  1 -1</clus>
<clus scale="   80.408">  5  6 -1 -1</clus>
<clus scale="   81.304">  1  5  2 -1</clus>
<clus scale="  126.053">  7  8 -1 -1</clus>
<clus scale="   25.666">  2  5  1 -1</clus>
</clustering>
</event>
<event>
 9    1  0.3197504E-005  0.9782964E+02  0.7546771E-02  0.1288291E+00
         21   -1    0    0  501  502  0.00000000000E+00  0.00000000000E+00  0.11180785799E+03  0.11180785799E+03  0.00000000000E+00 0. -1.
          3   -1    0    0  502    0 -0.00000000000E+00 -0.00000000000E+00 -0.22177263853E+03  0.22177263853E+03  0.00000000000E+00 0. -1.
        -24    2    1    2    0    0  0.23729745432E+02 -0.22888044769E+02 -0.11157019871E+03  0.14516088035E+03  0.86814794429E+02 0.  0.
         23    2    1    2    0    0 -0.46982030041E+02 -0.46853015221E+02 -0.59716916328E+01  0.11451496962E+03  0.93142369440E+02 0.  0.
         11    1    3    3    0    0 -0.34969967694E+01 -0.51807453311E+02 -0.51398697824E+02  0.73062078693E+02  0.00000000000E+00 0. -1.
        -12    1    3    3    0    0  0.27226742201E+02  0.28919408542E+02 -0.60171500887E+02  0.72098801657E+02  0.00000000000E+00 0.  1.
        -13    1    4    4    0    0 -0.67527575391E+02 -0.14324760989E+02 -0.22552289069E+02  0.72620781859E+02  0.00000000000E+00 0.  1.
         13    1    4    4    0    0  0.20545545350E+02 -0.32528254232E+02  0.16580597436E+02  0.41894187765E+02  0.00000000000E+00 0. -1.
          4    1    1    2  501    0  0.23252284610E+02  0.69741059990E+02  0.75771098122E+01  0.73904646546E+02  0.00000000000E+00 0. -1.
<scales pt_clust_5="13000.00000" pt_clust_6="13000.00000" pt_clust_7="13000.00000" pt_clust_8="13000.00000" pt_clust_9="73.51520"></scales>
<clustering>
<clus scale="   73.515">  1  9  2 -1</clus>
<clus scale="   86.815">  5  6 -1 -1</clus>
<clus scale="   91.826">  2  5  1 -1</clus>
<clus scale="   93.142">  7  8 -1 -1</clus>
<clus scale="   73.515">  1  5  2 -1</clus>
</clustering>
</event>
<event>
 9    1  0.3197504E-005  0.8601831E+02  0.7546771E-02  0.1315379E+00
         21   -1    0    0  501  502  0.00000000000E+00  0.00000000000E+00  0.81669687052E+02  0.81669687052E+02  0.00000000000E+00 0. -1.
          1   -1    0    0  502    0 -0.00000000000E+00 -0.00000000000E+00 -0.32519062531E+03  0.32519062531E+03  0.00000000000E+00 0. -1.
         23    2    1    2    0    0  0.30223018079E+01 -0.12186569867E+02 -0.23524748371E+03  0.25041263553E+03  0.84896776431E+02 0.  0.
        -24    2    1    2    0    0 -0.30061432373E+02  0.32250069041E+01 -0.54507668750E+02  0.10214273455E+03  0.80919477766E+02 0.  0.
         13    1    4    4    0    0 -0.37374012040E+01 -0.28300742393E+02 -0.53985653061E+02  0.61068411836E+02  0.00000000000E+00 0. -1.
        -14    1    4    4    0    0 -0.26324031169E+02  0.31525749297E+02 -0.52201568993E+00  0.41074322710E+02  0.00000000000E+00 0.  1.
        -11    1    3    3    0    0  0.43779382672E+02 -0.20969785885E+01 -0.11905620870E+03  0.12686769682E+03  0.00000000000E+00 0.  1.
         11    1    3    3    0    0 -0.40757080864E+02 -0.10089591278E+02 -0.11619127501E+03  0.12354493872E+03  0.00000000000E+00 0. -1.
          2    1    1    2  501    0  0.27039130565E+02  0.89615629626E+01  0.46234214209E+02  0.54304942279E+02  0.00000000000E+00 0. -1.
<scales pt_clust_5="13000.00000" pt_clust_6="13000.00000" pt_clust_7="13000.00000" pt_clust_8="13000.00000" pt_clust_9="28.48551"></scales>
<clustering>
<clus scale="   28.486">  1  9  2 -1</clus>
<clus scale="   80.919">  5  6 -1 -1</clus>
<clus scale="   82.095">  1  5  2 -1</clus>
<clus scale="   84.897">  7  8 -1 -1</clus>
<clus scale="   28.486">  1  5  2 -1</clus>
</clustering>
</event>
<event>
 9    1  0.3197504E-005  0.1416594E+03  0.7546771E-02  0.1211512E+00
          1   -1    0    0  502    0 -0.00000000000E+00  0.00000000000E+00  0.44081801898E+02  0.44081801898E+02  0.00000000000E+00 0. -1.
         21   -1    0    0  501  502  0.00000000000E+00 -0.00000000000E+00 -0.67008679676E+03  0.67008679676E+03  0.00000000000E+00 0. -1.
        -24    2    1    2    0    0 -0.13667867026E+02  0.11071604034E+03 -0.17852672282E+03  0.22556861959E+03  0.81021967434E+02 0.  0.
         23    2    1    2    0    0 -0.14617845678E+02 -0.12313675267E+03 -0.42484774956E+03  0.45030512059E+03  0.83082790333E+02 0.  0.
         13    1    3    3    0    0 -0.34404293585E+02  0.69192359124E+02 -0.15575407190E+03  0.17386940182E+03  0.00000000000E+00 0. -1.
        -14    1    3    3    0    0  0.20736426558E+02  0.41523681211E+02 -0.22772650925E+02  0.51699217769E+02  0.00000000000E+00 0.  1.
        -11    1    4    4    0    0  0.24518262862E+02 -0.24486722975E+02 -0.50802747977E+02  0.61495235732E+02  0.00000000000E+00 0.  1.
         11    1    4    4    0    0 -0.39136108540E+02 -0.98650029696E+02 -0.37404500158E+03  0.38880988485E+03  0.00000000000E+00 0. -1.
          2    1    1    2  501    0  0.28285712705E+02  0.12420712335E+02 -0.22630522479E+02  0.38294858478E+02  0.00000000000E+00 0. -1.
<scales pt_clust_5="13000.00000" pt_clust_6="13000.00000" pt_clust_7="13000.00000" pt_clust_8="13000.00000" pt_clust_9="30.89266"></scales>
<clustering>
<clus scale="   30.893">  2  9  1 -1</clus>
<clus scale="   81.022">  5  6 -1 -1</clus>
<clus scale="   83.083">  7  8 -1 -1</clus>
<clus scale="  140.461">  1  5  2 -1</clus>
<clus scale="   30.893">  2  5  1 -1</clus>
</clustering>
</event>
<event>
 9    1  0.3197504E-005  0.9477835E+02  0.7546771E-02  0.1297492E+00
         21   -1    0    0  501  502  0.00000000000E+00  0.00000000000E+00  0.22494617575E+03  0.22494617575E+03  0.00000000000E+00 0.  1.
          3   -1    0    0  502    0 -0.00000000000E+00 -0.00000000000E+00 -0.14472170040E+03  0.14472170040E+03  0.00000000000E+00 0. -1.
        -24    2    1    2    0    0  0.16668447698E+02  0.34326300578E+01 -0.10085481568E+03  0.13184521363E+03  0.83197634654E+02 0.  0.
         23    2    1    2    0    0 -0.30120344090E+02  0.30001351950E+02  0.17281061169E+03  0.20084759353E+03  0.93107099978E+02 0.  0.
         11    1    3    3    0    0  0.49384729842E+02  0.10781405981E+02 -0.69498956110E+02  0.85937158185E+02  0.00000000000E+00 0. -1.
        -12    1    3    3    0    0 -0.32716282144E+02 -0.73487759229E+01 -0.31355859574E+02  0.45908055443E+02  0.00000000000E+00 0.  1.
        -11    1    4    4    0    0 -0.31443856899E+02  0.59487912193E+02  0.14687998829E+03  0.16155884004E+03  0.00000000000E+00 0.  1.
         11    1    4    4    0    0  0.13235128085E+01 -0.29486560242E+02  0.25930623405E+02  0.39288753496E+02  0.00000000000E+00 0. -1.
          4    1    1    2  501    0  0.13451896393E+02 -0.33433982008E+02  0.82686793372E+01  0.36975068999E+02  0.00000000000E+00 0. -1.
<scales pt_clust_5="13000.00000" pt_clust_6="13000.00000" pt_clust_7="13000.00000" pt_clust_8="13000.00000" pt_clust_9="36.03866"></scales>
<clustering>
<clus scale="   36.039">  1  9  2 -1</clus>
<clus scale="   83.198">  5  6 -1 -1</clus>
<clus scale="   85.064">  2  5  1 -1</clus>
<clus scale="   93.107">  7  8 -1 -1</clus>
<clus scale="   36.039">  1  5  2 -1</clus>
</clustering>
</event>
<event>
 9    1  0.3197504E-005  0.1123528E+03  0.7546771E-02  0.1263756E+00
          1   -1    0    0  502    0 -0.00000000000E+00  0.00000000000E+00  0.75838536481E+03  0.75838536481E+03  0.00000000000E+00 0. -1.
         21   -1    0    0  501  502  0.00000000000E+00 -0.00000000000E+00 -0.37711284076E+02  0.37711284076E+02  0.00000000000E+00 0. -1.
        -24    2    1    2    0    0 -0.33224171753E+02  0.49770733989E+02  0.19887670783E+03  0.21967467780E+03  0.71582453174E+02 0.  0.
         23    2    1    2    0    0  0.10555784495E+03  0.49676189400E+01  0.21407629051E+03  0.25560939010E+03  0.91325605849E+02 0.  0.
         11    1    3    3    0    0 -0.46571320994E+02  0.53926536807E+02  0.19047287563E+03  0.20336389960E+03  0.00000000000E+00 0. -1.
        -12    1    3    3    0    0  0.13347149241E+02 -0.41558028185E+01  0.84038321940E+01  0.16310778199E+02  0.00000000000E+00 0.  1.
        -13    1    4    4    0    0  0.17515103050E+02 -0.22471947271E+02  0.12203639568E+03  0.12531819150E+03  0.00000000000E+00 0.  1.
         13    1    4    4    0    0  0.88042741900E+02  0.27439566211E+02  0.92039894824E+02  0.13029119861E+03  0.00000000000E+00 0. -1.
          2    1    1    2  501    0 -0.72333673197E+02 -0.54738352929E+02  0.30772108240E+03  0.32081258098E+03  0.00000000000E+00 0. -1.
<scales pt_clust_5="13000.00000" pt_clust_6="13000.00000" pt_clust_7="13000.00000" pt_clust_8="13000.00000" pt_clust_9="90.71084"></scales>
<clustering>
<clus scale="   71.582">  5  6 -1 -1</clus>
<clus scale="   90.711">  2  9  1 -1</clus>
<clus scale="   91.326">  7  8 -1 -1</clus>
<clus scale="   96.989">  1  5  2 -1</clus>
<clus scale="   90.711">  2  5  1 -1</clus>
</clustering>
</event>
<event>
 9    1  0.3197504E-005  0.1653314E+03  0.7546771E-02  0.1184195E+00
         21   -1    0    0  501  502  0.00000000000E+00  0.00000000000E+00  0.25839411982E+03  0.25839411982E+03  0.00000000000E+00 0. -1.
          1   -1    0    0  502    0 -0.00000000000E+00 -0.00000000000E+00 -0.14836446887E+03  0.14836446887E+03  0.00000000000E+00 0. -1.
        -24    2    1    2    0    0 -0.57433401367E+02 -0.12460363264E+03 -0.28563279511E+02  0.16138188872E+03  0.80022448174E+02 0.  0.
         23    2    1    2    0    0  0.85885584102E+02  0.11645516638E+03  0.10261385406E+03  0.19878895326E+03  0.89717922173E+02 0.  0.
         13    1    3    3    0    0 -0.11212110615E+02 -0.10444747448E+03 -0.34594933859E+02  0.11059744933E+03  0.00000000000E+00 0. -1.
        -14    1    3    3    0    0 -0.46221290752E+02 -0.20156158165E+02  0.60316543481E+01  0.50784439397E+02  0.00000000000E+00 0.  1.
        -13    1    4    4    0    0 -0.10507176169E+02  0.23388858742E+02 -0.59698995671E+01  0.26326396737E+02  0.00000000000E+00 0.  1.
         13    1    4    4    0    0  0.96392760271E+02  0.93066307640E+02  0.10858375363E+03  0.17246255652E+03  0.00000000000E+00 0. -1.
          2    1    1    2  501    0 -0.28452182735E+02  0.81484662594E+01  0.35979076401E+02  0.46587746709E+02  0.00000000000E+00 0. -1.
<scales pt_clust_5="13000.00000" pt_clust_6="13000.00000" pt_clust_7="13000.00000" pt_clust_8="13000.00000" pt_clust_9="29.59602"></scales>
<clustering>
<clus scale="   29.596">  1  9  2 -1</clus>
<clus scale="   80.022">  5  6 -1 -1</clus>
<clus scale="   89.718">  7  8 -1 -1</clus>
<clus scale="  160.277">  2  5  1 -1</clus>
<clus scale="   29.596">  1  5  2 -1</clus>
</clustering>
</event>
<event>
 9    1  0.3197504E-005  0.1084289E+03  0.7546771E-02  0.1267967E+00
         21   -1    0    0  501  502  0.00000000000E+00  0.00000000000E+00  0.40865390764E+02  0.40865390764E+02  0.00000000000E+00 0. -1.
         -2   -1    0    0    0  501 -0.00000000000E+00 -0.00000000000E+00 -0.52886039886E+03  0.52886039886E+03  0.00000000000E+00 0.  1.
         23    2    1    2    0    0 -0.62729777883E+01  0.57798762128E+02 -0.36525634218E+03  0.38087536232E+03  0.90960425244E+02 0.  0.
        -24    2    1    2    0    0  0.34658294890E+02 -0.55719121462E+02 -0.12255359848E+03  0.16038842840E+03  0.79995284624E+02 0.  0.
         11    1    4    4    0    0  0.40355037466E+02 -0.21492214688E+02 -0.16181632865E+02  0.48500408073E+02  0.00000000000E+00 0. -1.
        -12    1    4    4    0    0 -0.56967425756E+01 -0.34226906774E+02 -0.10637196561E+03  0.11188802032E+03  0.00000000000E+00 0.  1.
        -11    1    3    3    0    0 -0.40498291331E+02  0.10889178301E+00 -0.12242137592E+03  0.12894617769E+03  0.00000000000E+00 0.  1.
         11    1    3    3    0    0  0.34225313542E+02  0.57689870345E+02 -0.24283496626E+03  0.25192918463E+03  0.00000000000E+00 0. -1.
         -1    1    1    2    0  502 -0.28385317102E+02 -0.20796406663E+01 -0.18506743685E+00  0.28461998915E+02  0.00000000000E+00 0.  1.
<scales pt_clust_5="13000.00000" pt_clust_6="13000.00000" pt_clust_7="13000.00000" pt_clust_8="13000.00000" pt_clust_9="28.46140"></scales>
<clustering>
<clus scale="   28.461">  1  9  2 -1</clus>
<clus scale="   79.995">  5  6 -1 -1</clus>
<clus scale="   90.960">  7  8 -1 -1</clus>
<clus scale="   99.410">  1  5  2 -1</clus>
<clus scale="   28.461">  1  5  2 -1</clus>
</clustering>
</event>
<event>
 9    1  0.3197504E-005  0.1177765E+03  0.7546771E-02  0.1249869E+00
          1   -1    0    0  502    0 -0.00000000000E+00  0.00000000000E+00  0.11079214951E+04  0.11079214951E+04  0.00000000000E+00 0. -1.
         21   -1    0    0  501  502  0.00000000000E+00 -0.00000000000E+00 -0.19065444827E+02  0.19065444827E+02  0.00000000000E+00 0. -1.
        -24    2    1    2    0    0  0.64191285979E+02  0.27672601488E+02  0.56497919963E+03  0.57493676526E+03  0.80402076888E+02 0.  0.
         23    2    1    2    0    0 -0.95106074509E+02  0.25986152104E+01  0.39125803118E+03  0.41255170878E+03  0.89800597102E+02 0.  0.
         11    1    3    3    0    0  0.82483146018E+02  0.30298226929E+02  0.45317130076E+03  0.46161204465E+03  0.00000000000E+00 0. -1.
        -12    1    3    3    0    0 -0.18291860039E+02 -0.26256254407E+01  0.11180789887E+03  0.11332472061E+03  0.00000000000E+00 0.  1.
        -13    1    4    4    0    0 -0.76054509662E+02 -0.30713069034E+02  0.17959997042E+03  0.19744298018E+03  0.00000000000E+00 0. -1.
         13    1    4    4    0    0 -0.19051564847E+02  0.33311684245E+02  0.21165806077E+03  0.21510872859E+03  0.00000000000E+00 0.  1.
          2    1    1    2  501    0  0.30914788530E+02 -0.30271216698E+02  0.13261881947E+03  0.13949846590E+03  0.00000000000E+00 0. -1.
<scales pt_clust_5="13000.00000" pt_clust_6="13000.00000" pt_clust_7="13000.00000" pt_clust_8="13000.00000" pt_clust_9="43.26743"></scales>
<clustering>
<clus scale="   43.267">  2  9  1 -1</clus>
<clus scale="   80.402">  5  6 -1 -1</clus>
<clus scale="   89.801">  7  8 -1 -1</clus>
<clus scale="  110.777">  1  5  2 -1</clus>
<clus scale="   43.267">  2  5  1 -1</clus>
</clustering>
</event>
<event>
 9    1  0.3197504E-005  0.1798391E+03  0.7546771E-02  0.1200872E+00
         21   -1    0    0  501  502  0.00000000000E+00  0.00000000000E+00  0.11336119873E+03  0.11336119873E+03  0.00000000000E+00 0. -1.
         -4   -1    0    0    0  501 -0.00000000000E+00 -0.00000000000E+00 -0.42565068244E+03  0.42565068244E+03  0.00000000000E+00 0.  1.
        -24    2    1    2    0    0 -0.81318222545E+01  0.22993251666E+02 -0.11233593038E+03  0.14165101336E+03  0.82769753997E+02 0.  0.
         23    2    1    2    0    0 -0.39827004719E+01 -0.16530508680E+03 -0.60847402371E+02  0.19798699460E+03  0.90303986795E+02 0.  0.
         11    1    3    3    0    0  0.33330666485E+02  0.29234369659E+02 -0.56073628561E+02  0.71483099524E+02  0.00000000000E+00 0. -1.
        -12    1    3    3    0    0 -0.41462488739E+02 -0.62411179925E+01 -0.56262301823E+02  0.70167913840E+02  0.00000000000E+00 0.  1.
        -11    1    4    4    0    0  0.34435485105E+02 -0.37838786700E+02 -0.35998553161E+02  0.62557751263E+02  0.00000000000E+00 0.  1.
         11    1    4    4    0    0 -0.38418185577E+02 -0.12746630010E+03 -0.24848849211E+02  0.13542924334E+03  0.00000000000E+00 0. -1.
         -3    1    1    2    0  502  0.12114522726E+02  0.14231183514E+03 -0.13910615096E+03  0.19937387320E+03  0.00000000000E+00 0.  1.
<scales pt_clust_5="13000.00000" pt_clust_6="13000.00000" pt_clust_7="13000.00000" pt_clust_8="13000.00000" pt_clust_9="155.52275"></scales>
<clustering>
<clus scale="   82.770">  5  6 -1 -1</clus>
<clus scale="   86.288">  2  5  1 -1</clus>
<clus scale="   90.304">  7  8 -1 -1</clus>
<clus scale="  155.523">  1  9  2 -1</clus>
<clus scale="  155.523">  1  5  2 -1</clus>
</clustering>
</event>
<event>
 9    1  0.3197504E-005  0.1985661E+03  0.7546771E-02  0.1172787E+00
          3   -1    0    0  502    0 -0.00000000000E+00  0.00000000000E+00  0.56189218343E+02  0.56189218343E+02  0.00000000000E+00 0. -1.
         21   -1    0    0  501  502  0.00000000000E+00 -0.00000000000E+00 -0.11825725098E+04  0.11825725098E+04  0.00000000000E+00 0. -1.
        -24    2    1    2    0    0 -0.72747060269E+02 -0.52750903125E+02 -0.18730938316E+03  0.22225994252E+03  0.78992939378E+02 0.  0.
         23    2    1    2    0    0  0.11312501185E+03  0.18369731027E+03 -0.73101110276E+03  0.76736834433E+03  0.89078467738E+02 0.  0.
         11    1    3    3    0    0 -0.87503186038E+02 -0.56504645812E+02 -0.16798741506E+03  0.19765969287E+03  0.00000000000E+00 0. -1.
        -12    1    3    3    0    0  0.14756125769E+02  0.37537426863E+01 -0.19321968097E+02  0.24600249653E+02  0.00000000000E+00 0.  1.
        -13    1    4    4    0    0  0.82447543856E+01  0.61555406610E+02 -0.31961951683E+03  0.32559741952E+03  0.00000000000E+00 0.  1.
         13    1    4    4    0    0  0.10488025746E+03  0.12214190366E+03 -0.41139158592E+03  0.44177092481E+03  0.00000000000E+00 0. -1.
          4    1    1    2  501    0 -0.40377951579E+02 -0.13094640715E+03 -0.20806280549E+03  0.24913344125E+03  0.00000000000E+00 0. -1.
<scales pt_clust_5="13000.00000" pt_clust_6="13000.00000" pt_clust_7="13000.00000" pt_clust_8="13000.00000" pt_clust_9="177.46422"></scales>
<clustering>
<clus scale="   78.993">  5  6 -1 -1</clus>
<clus scale="   89.078">  7  8 -1 -1</clus>
<clus scale="  119.644">  1  5  2 -1</clus>
<clus scale="  177.464">  2  9  1 -1</clus>
<clus scale="  177.464">  2  5  1 -1</clus>
</clustering>
</event>
<event>
 9    1  0.3197504E-005  0.1091763E+03  0.7546771E-02  0.1267131E+00
         21   -1    0    0  501  502  0.00000000000E+00  0.00000000000E+00  0.26660753897E+03  0.26660753897E+03  0.00000000000E+00 0. -1.
          3   -1    0    0  502    0 -0.00000000000E+00 -0.00000000000E+00 -0.13707427260E+03  0.13707427260E+03  0.00000000000E+00 0. -1.
        -24    2    1    2    0    0  0.46087267869E+02 -0.42395818425E+02 -0.34183813555E+02  0.10680009781E+03  0.79475065921E+02 0.  0.
         23    2    1    2    0    0 -0.25093097272E+02  0.50932922980E+02 -0.21640174432E+02  0.11014406598E+03  0.91867251771E+02 0.  0.
         11    1    3    3    0    0  0.45893123015E+02  0.10918695477E+02 -0.98354479387E+01  0.48188511983E+02  0.00000000000E+00 0. -1.
        -12    1    3    3    0    0  0.19414485449E+00 -0.53314513902E+02 -0.24348365616E+02  0.58611585825E+02  0.00000000000E+00 0.  1.
        -11    1    4    4    0    0 -0.44653729087E+02  0.62791024285E+01  0.16738716119E+02  0.48099555778E+02  0.00000000000E+00 0.  1.
         11    1    4    4    0    0  0.19560631815E+02  0.44653820551E+02 -0.38378890551E+02  0.62044510206E+02  0.00000000000E+00 0. -1.
          4    1    1    2  501    0 -0.20994170597E+02 -0.85371045550E+01  0.18535725436E+03  0.18673764777E+03  0.00000000000E+00 0. -1.
<scales pt_clust_5="13000.00000" pt_clust_6="13000.00000" pt_clust_7="13000.00000" pt_clust_8="13000.00000" pt_clust_9="22.66357"></scales>
<clustering>
<clus scale="   22.664">  1  9  2 -1</clus>
<clus scale="   79.475">  5  6 -1 -1</clus>
<clus scale="   91.867">  7  8 -1 -1</clus>
<clus scale="   98.976">  2  5  1 -1</clus>
<clus scale="   22.664">  1  5  2 -1</clus>
</clustering>
</event>
<event>
 9    1  0.3197504E-005  0.1012503E+03  0.7546771E-02  0.1284478E+00
         -2   -1    0    0    0  501 -0.00000000000E+00  0.00000000000E+00  0.17695418568E+02  0.17695418568E+02  0.00000000000E+00 0.  1.
         21   -1    0    0  501  502  0.00000000000E+00 -0.00000000000E+00 -0.86472128944E+03  0.86472128944E+03  0.00000000000E+00 0.  1.
         23    2    1    2    0    0 -0.23430128089E+02 -0.64371362056E+01 -0.29297617328E+03  0.30854420632E+03  0.93670067378E+02 0.  0.
        -24    2    1    2    0    0  0.57018167883E+02 -0.26476678910E+02 -0.40117223549E+03  0.41392565406E+03  0.80269537018E+02 0.  0.
         13    1    4    4    0    0  0.57456625814E+02 -0.42811490539E+02 -0.20667758899E+03  0.21874577336E+03  0.00000000000E+00 0. -1.
        -14    1    4    4    0    0 -0.43845793096E+00  0.16334811629E+02 -0.19449464649E+03  0.19517988070E+03  0.00000000000E+00 0.  1.
        -11    1    3    3    0    0 -0.23771066656E+02 -0.42419132308E+02 -0.88988713657E+02  0.10140728551E+03  0.00000000000E+00 0.  1.
         11    1    3    3    0    0  0.34093856729E+00  0.35981996102E+02 -0.20398745962E+03  0.20713692081E+03  0.00000000000E+00 0. -1.
         -1    1    1    2    0  502 -0.33588039794E+02  0.32913815115E+02 -0.15287746211E+03  0.15994684762E+03  0.00000000000E+00 0.  1.
<scales pt_clust_5="13000.00000" pt_clust_6="13000.00000" pt_clust_7="13000.00000" pt_clust_8="13000.00000" pt_clust_9="47.02635"></scales>
<clustering>
<clus scale="   47.026">  2  9  1 -1</clus>
<clus scale="   80.270">  5  6 -1 -1</clus>
<clus scale="   88.998">  2  5  1 -1</clus>
<clus scale="   93.670">  7  8 -1 -1</clus>
<clus scale="   47.026">  2  5  1 -1</clus>
</clustering>
</event>
<event>
 9    1  0.3197504E-005  0.9837422E+02  0.7546771E-02  0.1288155E+00
         21   -1    0    0  501  502  0.00000000000E+00  0.00000000000E+00  0.58418726338E+02  0.58418726338E+02  0.00000000000E+00 0. -1.
          1   -1    0    0  502    0 -0.00000000000E+00 -0.00000000000E+00 -0.28517303056E+03  0.28517303056E+03  0.00000000000E+00 0. -1.
         23    2    1    2    0    0 -0.37322729116E+02  0.16690771075E+02 -0.19315594832E+03  0.21808170565E+03  0.92622038528E+02 0.  0.
        -24    2    1    2    0    0  0.18482943685E+02  0.11018548425E+02 -0.29117358338E+02  0.91704382476E+02  0.84254647303E+02 0.  0.
         13    1    4    4    0    0  0.20499120068E+02  0.46807298581E+02 -0.17929194620E+02  0.54153422271E+02  0.00000000000E+00 0. -1.
        -14    1    4    4    0    0 -0.20161763829E+01 -0.35788750156E+02 -0.11188163718E+02  0.37550960205E+02  0.00000000000E+00 0.  1.
        -13    1    3    3    0    0  0.12159597718E+02 -0.30122119042E+02 -0.51315278039E+02  0.60732657051E+02  0.00000000000E+00 0.  1.
         13    1    3    3    0    0 -0.49482326834E+02  0.46812890117E+02 -0.14184067028E+03  0.15734904860E+03  0.00000000000E+00 0. -1.
          2    1    1    2  501    0  0.18839785431E+02 -0.27709319500E+02 -0.44809975723E+01  0.33805668777E+02  0.00000000000E+00 0. -1.
<scales pt_clust_5="13000.00000" pt_clust_6="13000.00000" pt_clust_7="13000.00000" pt_clust_8="13000.00000" pt_clust_9="33.50737"></scales>
<clustering>
<clus scale="   33.507">  1  9  2 -1</clus>
<clus scale="   84.255">  5  6 -1 -1</clus>
<clus scale="   90.540">  1  5  2 -1</clus>
<clus scale="   92.622">  7  8 -1 -1</clus>
<clus scale="   33.507">  1  5  2 -1</clus>
</clustering>
</event>
<event>
 9    1  0.3197504E-005  0.1240383E+03  0.7546771E-02  0.1239278E+00
          1   -1    0    0  502    0 -0.00000000000E+00  0.00000000000E+00  0.19692395609E+03  0.19692395609E+03  0.00000000000E+00 0. -1.
         21   -1    0    0  501  502  0.00000000000E+00 -0.00000000000E+00 -0.43795261612E+03  0.43795261612E+03  0.00000000000E+00 0. -1.
        -24    2    1    2    0    0  0.15579653107E+02  0.92343431585E+02  0.13345918510E+03  0.18312983150E+03  0.83397518842E+02 0.  0.
         23    2    1    2    0    0 -0.75331256487E+02 -0.11773818154E+02 -0.89447775783E+02  0.14957202660E+03  0.92506570318E+02 0.  0.
         11    1    3    3    0    0 -0.33430143668E+02  0.31799471871E+02  0.63059313382E+02  0.78136149900E+02  0.00000000000E+00 0. -1.
        -12    1    3    3    0    0  0.49009796775E+02  0.60543959714E+02  0.70399871722E+02  0.10499368160E+03  0.00000000000E+00 0.  1.
        -13    1    4    4    0    0 -0.32155913929E+02  0.63776925495E+01  0.14282399259E+02  0.35758421266E+02  0.00000000000E+00 0. -1.
         13    1    4    4    0    0 -0.43175342559E+02 -0.18151510703E+02 -0.10373017504E+03  0.11381360534E+03  0.00000000000E+00 0.  1.
          2    1    1    2  501    0  0.59751603380E+02 -0.80569613431E+02 -0.28504006935E+03  0.30217471411E+03  0.00000000000E+00 0. -1.
<scales pt_clust_5="13000.00000" pt_clust_6="13000.00000" pt_clust_7="13000.00000" pt_clust_8="13000.00000" pt_clust_9="100.30811"></scales>
<clustering>
<clus scale="   83.398">  5  6 -1 -1</clus>
<clus scale="   92.507">  7  8 -1 -1</clus>
<clus scale="  100.308">  2  9  1 -1</clus>
<clus scale="  117.402">  1  5  2 -1</clus>
<clus scale="  100.308">  2  5  1 -1</clus>
</clustering>
</event>
<event>
 9    1  0.3197504E-005  0.1269195E+03  0.7546771E-02  0.1233272E+00
          1   -1    0    0  502    0 -0.00000000000E+00  0.00000000000E+00  0.40630795727E+03  0.40630795727E+03  0.00000000000E+00 0. -1.
         21   -1    0    0  501  502  0.00000000000E+00 -0.00000000000E+00 -0.86944017824E+02  0.86944017824E+02  0.00000000000E+00 0. -1.
         23    2    1    2    0    0  0.31706870923E+02 -0.95988685679E+02  0.30950462912E+03  0.33750627810E+03  0.88871923949E+02 0.  0.
        -24    2    1    2    0    0  0.48195205175E+01  0.57638440109E+02  0.42462374060E+01  0.10248759719E+03  0.84500056151E+02 0.  0.
         13    1    4    4    0    0  0.20615075776E+02  0.75632209294E+02  0.47976656083E+01  0.78538080109E+02  0.00000000000E+00 0. -1.
        -14    1    4    4    0    0 -0.15795555259E+02 -0.17993769184E+02 -0.55142820230E+00  0.23949517082E+02  0.00000000000E+00 0.  1.
        -13    1    3    3    0    0  0.35641751689E+02 -0.29085005654E+02  0.22498462223E+03  0.22963961386E+03  0.00000000000E+00 0.  1.
         13    1    3    3    0    0 -0.39348807652E+01 -0.66903680025E+02  0.84520006893E+02  0.10786666423E+03  0.00000000000E+00 0. -1.
          2    1    1    2  501    0 -0.36526391441E+02  0.38350245570E+02  0.56130729153E+01  0.53258099802E+02  0.00000000000E+00 0. -1.
<scales pt_clust_5="13000.00000" pt_clust_6="13000.00000" pt_clust_7="13000.00000" pt_clust_8="13000.00000" pt_clust_9="52.96148"></scales>
<clustering>
<clus scale="   52.961">  2  9  1 -1</clus>
<clus scale="   84.500">  5  6 -1 -1</clus>
<clus scale="   88.872">  7  8 -1 -1</clus>
<clus scale="  123.898">  2  5  1 -1</clus>
<clus scale="   52.961">  2  5  1 -1</clus>
</clustering>
</event>
<event>
 9    1  0.3197504E-005  0.2189278E+03  0.7546771E-02  0.1149142E+00
         21   -1    0    0  501  502  0.00000000000E+00  0.00000000000E+00  0.28970423070E+03  0.28970423070E+03  0.00000000000E+00 0.  1.
         -2   -1    0    0    0  501 -0.00000000000E+00 -0.00000000000E+00 -0.43641646770E+03  0.43641646770E+03  0.00000000000E+00 0.  1.
         23    2    1    2    0    0  0.67220500207E+02  0.10486850085E+03 -0.77226809987E+02  0.17286506045E+03  0.91664337803E+02 0.  0.
        -24    2    1    2    0    0 -0.18629930723E+03  0.85048267751E+02  0.12738619739E+03  0.25491593599E+03  0.82548479188E+02 0.  0.
         11    1    4    4    0    0 -0.68328817305E+02  0.69537162849E+01  0.80620934294E+02  0.10590994519E+03  0.00000000000E+00 0. -1.
        -12    1    4    4    0    0 -0.11797048992E+03  0.78094551466E+02  0.46765263096E+02  0.14900599080E+03  0.00000000000E+00 0.  1.
        -11    1    3    3    0    0  0.13773302285E+02  0.17561921580E+02  0.21252361714E+02  0.30818627871E+02  0.00000000000E+00 0. -1.
         11    1    3    3    0    0  0.53447197921E+02  0.87306579266E+02 -0.98479171701E+02  0.14204643258E+03  0.00000000000E+00 0.  1.
         -1    1    1    2    0  502  0.11907880702E+03 -0.18991676860E+03 -0.19687162440E+03  0.29833970197E+03  0.00000000000E+00 0.  1.
<scales pt_clust_5="13000.00000" pt_clust_6="13000.00000" pt_clust_7="13000.00000" pt_clust_8="13000.00000" pt_clust_9="202.76878"></scales>
<clustering>
<clus scale="   82.548">  5  6 -1 -1</clus>
<clus scale="   91.664">  7  8 -1 -1</clus>
<clus scale="  154.656">  2  7  1 -1</clus>
<clus scale="  202.769">  1  9  2 -1</clus>
<clus scale="  202.769">  1  5  2 -1</clus>
</clustering>
</event>
<event>
 9    1  0.3197504E-005  0.1093680E+03  0.7546771E-02  0.1273765E+00
          1   -1    0    0  502    0 -0.00000000000E+00  0.00000000000E+00  0.75182986859E+02  0.75182986859E+02  0.00000000000E+00 0. -1.
         21   -1    0    0  501  502  0.00000000000E+00 -0.00000000000E+00 -0.19081334588E+03  0.19081334588E+03  0.00000000000E+00 0. -1.
         23    2    1    2    0    0  0.25196813027E+02 -0.44292101859E+02 -0.98325054628E+01  0.11209046084E+03  0.99352521726E+02 0.  0.
        -24    2    1    2    0    0 -0.35647247298E+02  0.21472944931E+02 -0.67707890260E+02  0.10829040519E+03  0.73557051657E+02 0.  0.
         11    1    4    4    0    0 -0.41249222597E+02 -0.13307268251E+02 -0.56727367164E+02  0.71390307035E+02  0.00000000000E+00 0. -1.
        -12    1    4    4    0    0  0.56019752991E+01  0.34780213183E+02 -0.10980523096E+02  0.36900098154E+02  0.00000000000E+00 0.  1.
        -13    1    3    3    0    0  0.50357019595E+02 -0.61278607264E+02 -0.16490763328E+02  0.81011372077E+02  0.00000000000E+00 0. -1.
         13    1    3    3    0    0 -0.25160206568E+02  0.16986505404E+02  0.66582578652E+01  0.31079088761E+02  0.00000000000E+00 0.  1.
          2    1    1    2  501    0  0.10450434271E+02  0.22819156928E+02 -0.38089963297E+02  0.45615466712E+02  0.00000000000E+00 0. -1.
<scales pt_clust_5="13000.00000" pt_clust_6="13000.00000" pt_clust_7="13000.00000" pt_clust_8="13000.00000" pt_clust_9="25.09832"></scales>
<clustering>
<clus scale="   25.098">  2  9  1 -1</clus>
<clus scale="   73.557">  5  6 -1 -1</clus>
<clus scale="   86.609">  2  5  1 -1</clus>
<clus scale="   99.353">  7  8 -1 -1</clus>
<clus scale="   25.098">  2  5  1 -1</clus>
</clustering>
</event>
<event>
 9    1  0.3197504E-005  0.9604149E+02  0.7546771E-02  0.1292770E+00
         21   -1    0    0  501  502  0.00000000000E+00  0.00000000000E+00  0.33703514768E+02  0.33703514768E+02  0.00000000000E+00 0.  1.
          1   -1    0    0  502    0 -0.00000000000E+00 -0.00000000000E+00 -0.87956190497E+03  0.87956190497E+03  0.00000000000E+00 0. -1.
         23    2    1    2    0    0 -0.12764877133E+02 -0.16806976091E+02 -0.30835323170E+03  0.32268899626E+03  0.92741879819E+02 0.  0.
        -24    2    1    2    0    0  0.61410838803E+02 -0.58016953536E+02 -0.13985675810E+03  0.18303587290E+03  0.82492181199E+02 0.  0.
         13    1    4    4    0    0  0.49453364387E+02 -0.62789435738E+02 -0.14771532870E+03  0.16795227543E+03  0.00000000000E+00 0. -1.
        -14    1    4    4    0    0  0.11957474416E+02  0.47724822019E+01  0.78585705929E+01  0.15083597467E+02  0.00000000000E+00 0.  1.
        -13    1    3    3    0    0  0.35463693967E+02 -0.28307821141E+01 -0.20161449211E+03  0.20472930993E+03  0.00000000000E+00 0.  1.
         13    1    3    3    0    0 -0.48228571100E+02 -0.13976193976E+02 -0.10673873960E+03  0.11795968633E+03  0.00000000000E+00 0. -1.
          2    1    1    2  501    0 -0.48645961670E+02  0.74823929627E+02 -0.39764840040E+03  0.40754055058E+03  0.00000000000E+00 0. -1.
<scales pt_clust_5="13000.00000" pt_clust_6="13000.00000" pt_clust_7="13000.00000" pt_clust_8="13000.00000" pt_clust_9="89.24717"></scales>
<clustering>
<clus scale="   82.492">  5  6 -1 -1</clus>
<clus scale="   89.247">  1  9  2 -1</clus>
<clus scale="   89.247">  1  5  2 -1</clus>
<clus scale="   92.742">  7  8 -1 -1</clus>
<clus scale="   89.247">  1  5  2 -1</clus>
</clustering>
</event>
<event>
 9    1  0.3197504E-005  0.1020760E+03  0.7546771E-02  0.1280871E+00
          3   -1    0    0  502    0 -0.00000000000E+00  0.00000000000E+00  0.44544348980E+02  0.44544348980E+02  0.00000000000E+00 0. -1.
         21   -1    0    0  501  502  0.00000000000E+00 -0.00000000000E+00 -0.42363687963E+03  0.42363687963E+03  0.00000000000E+00 0. -1.
         23    2    1    2    0    0 -0.59615471718E+02 -0.26473814775E+02 -0.77980863870E+02  0.13658735738E+03  0.91215260397E+02 0.  0.
        -24    2    1    2    0    0  0.60564663901E+01  0.84804461341E+01 -0.19483213875E+03  0.21122914864E+03  0.80929550792E+02 0.  0.
         11    1    4    4    0    0  0.96629800030E+01 -0.33186909505E+02 -0.52318889081E+02  0.62705743753E+02  0.00000000000E+00 0. -1.
        -12    1    4    4    0    0 -0.36065136130E+01  0.41667355639E+02 -0.14251324967E+03  0.14852340488E+03  0.00000000000E+00 0.  1.
        -13    1    3    3    0    0  0.24019032306E+02 -0.33163319277E+01 -0.25420816968E+02  0.35130185108E+02  0.00000000000E+00 0.  1.
         13    1    3    3    0    0 -0.83634504025E+02 -0.23157482847E+02 -0.52560046903E+02  0.10145717227E+03  0.00000000000E+00 0. -1.
          4    1    1    2  501    0  0.53559005328E+02  0.17993368640E+02 -0.10627952803E+03  0.12036472259E+03  0.00000000000E+00 0. -1.
<scales pt_clust_5="13000.00000" pt_clust_6="13000.00000" pt_clust_7="13000.00000" pt_clust_8="13000.00000" pt_clust_9="56.50069"></scales>
<clustering>
<clus scale="   56.501">  2  9  1 -1</clus>
<clus scale="   80.930">  5  6 -1 -1</clus>
<clus scale="   91.215">  7  8 -1 -1</clus>
<clus scale="   92.999">  2  5  1 -1</clus>
<clus scale="   56.501">  2  5  1 -1</clus>
</clustering>
</event>
<event>
 9    1  0.3197504E-005  0.1134306E+03  0.7546771E-02  0.1257137E+00
         21   -1    0    0  501  502  0.00000000000E+00  0.00000000000E+00  0.29735015750E+03  0.29735015750E+03  0.00000000000E+00 0. -1.
          3   -1    0    0  502    0 -0.00000000000E+00 -0.00000000000E+00 -0.80863095912E+02  0.80863095912E+02  0.00000000000E+00 0. -1.
         23    2    1    2    0    0 -0.73117785028E+02 -0.19461340706E+02 -0.31111609416E+01  0.11622323707E+03  0.88165794061E+02 0.  0.
        -24    2    1    2    0    0  0.48739645844E+02  0.26756453875E+02  0.21504173023E+03  0.23613902085E+03  0.80170010143E+02 0.  0.
         11    1    4    4    0    0  0.65984040597E+02  0.37867481260E+02  0.18181022333E+03  0.19708576067E+03  0.00000000000E+00 0. -1.
        -12    1    4    4    0    0 -0.17244394753E+02 -0.11111027385E+02  0.33231506892E+02  0.39053260174E+02  0.00000000000E+00 0.  1.
        -13    1    3    3    0    0 -0.32186790032E+02 -0.28322769599E+02 -0.41311792122E+02  0.59538499298E+02  0.00000000000E+00 0. -1.
         13    1    3    3    0    0 -0.40930994996E+02  0.88614288935E+01  0.38200631180E+02  0.56684737769E+02  0.00000000000E+00 0.  1.
          4    1    1    2  501    0  0.24378139184E+02 -0.72951131692E+01  0.45564923044E+01  0.25850995500E+02  0.00000000000E+00 0. -1.
<scales pt_clust_5="13000.00000" pt_clust_6="13000.00000" pt_clust_7="13000.00000" pt_clust_8="13000.00000" pt_clust_9="25.44628"></scales>
<clustering>
<clus scale="   25.446">  1  9  2 -1</clus>
<clus scale="   80.170">  5  6 -1 -1</clus>
<clus scale="   88.166">  7  8 -1 -1</clus>
<clus scale="  107.334">  1  5  2 -1</clus>
<clus scale="   25.446">  1  5  2 -1</clus>
</clustering>
</event>
<event>
 9    1  0.3197504E-005  0.1420820E+03  0.7546771E-02  0.1213653E+00
          3   -1    0    0  502    0 -0.00000000000E+00  0.00000000000E+00  0.55089470099E+03  0.55089470099E+03  0.00000000000E+00 0. -1.
         21   -1    0    0  501  502  0.00000000000E+00 -0.00000000000E+00 -0.71682952948E+02  0.71682952948E+02  0.00000000000E+00 0.  1.
         23    2    1    2    0    0  0.10010086645E+03  0.83266776788E+02  0.37227071891E+03  0.40509659197E+03  0.92543076923E+02 0.  0.
        -24    2    1    2    0    0 -0.68428470339E+02 -0.38968196234E+02  0.11806726451E+03  0.16189960798E+03  0.77914236454E+02 0.  0.
         11    1    4    4    0    0 -0.18569282822E+02 -0.53056529420E+02  0.79243215026E+02  0.97156063661E+02  0.00000000000E+00 0. -1.
        -12    1    4    4    0    0 -0.49859187517E+02  0.14088333185E+02  0.38824049489E+02  0.64743544315E+02  0.00000000000E+00 0.  1.
        -11    1    3    3    0    0  0.91414439982E+02  0.10324392630E+03  0.32521572482E+03  0.35324379092E+03  0.00000000000E+00 0.  1.
         11    1    3    3    0    0  0.86864264691E+01 -0.19977149514E+02  0.47054994092E+02  0.51852801048E+02  0.00000000000E+00 0. -1.
          4    1    1    2  501    0 -0.31672396111E+02 -0.44298580553E+02 -0.11126235380E+02  0.55581453995E+02  0.00000000000E+00 0. -1.
<scales pt_clust_5="13000.00000" pt_clust_6="13000.00000" pt_clust_7="13000.00000" pt_clust_8="13000.00000" pt_clust_9="54.45645"></scales>
<clustering>
<clus scale="   54.456">  2  9  1 -1</clus>
<clus scale="   77.914">  5  6 -1 -1</clus>
<clus scale="   92.543">  7  8 -1 -1</clus>
<clus scale="  133.018">  2  5  1 -1</clus>
<clus scale="   54.456">  2  5  1 -1</clus>
</clustering>
</event>
<event>
 9    1  0.3197504E-005  0.1969968E+03  0.7546771E-02  0.1173778E+00
         -4   -1    0    0    0  501 -0.00000000000E+00  0.00000000000E+00  0.14614106937E+03  0.14614106937E+03  0.00000000000E+00 0.  1.
         21   -1    0    0  501  502  0.00000000000E+00 -0.00000000000E+00 -0.47098427280E+03  0.47098427280E+03  0.00000000000E+00 0.  1.
         23    2    1    2    0    0 -0.78074798766E+02 -0.15050730668E+01 -0.11003818699E+03  0.16266373173E+03  0.90846835824E+02 0.  0.
        -24    2    1    2    0    0  0.70885807288E+02 -0.17861176557E+03 -0.58001130248E+02  0.21554485530E+03  0.78539754679E+02 0.  0.
         11    1    4    4    0    0  0.67950551524E+01 -0.47765094836E+02 -0.50215965133E+02  0.69637060632E+02  0.00000000000E+00 0. -1.
        -12    1    4    4    0    0  0.64090752136E+02 -0.13084667073E+03 -0.77851651144E+01  0.14590779467E+03  0.00000000000E+00 0.  1.
        -13    1    3    3    0    0 -0.34917407281E+02  0.19107134858E+02 -0.10765470039E+03  0.11477736036E+03  0.00000000000E+00 0.  1.
         13    1    3    3    0    0 -0.43157391485E+02 -0.20612207925E+02 -0.23834865926E+01  0.47886371377E+02  0.00000000000E+00 0. -1.
         -3    1    1    2    0  502  0.71889914776E+01  0.18011683863E+03 -0.15680388620E+03  0.23891675513E+03  0.00000000000E+00 0.  1.
<scales pt_clust_5="13000.00000" pt_clust_6="13000.00000" pt_clust_7="13000.00000" pt_clust_8="13000.00000" pt_clust_9="180.66331"></scales>
<clustering>
<clus scale="   78.540">  5  6 -1 -1</clus>
<clus scale="   90.847">  7  8 -1 -1</clus>
<clus scale="  119.796">  1  7  2 -1</clus>
<clus scale="  180.663">  2  9  1 -1</clus>
<clus scale="  180.663">  2  5  1 -1</clus>
</clustering>
</event>
<event>
 9    1  0.3197504E-005  0.1565369E+03  0.7546771E-02  0.1207753E+00
         21   -1    0    0  501  502  0.00000000000E+00  0.00000000000E+00  0.35912041793E+02  0.35912041793E+02  0.00000000000E+00 0.  1.
         -2   -1    0    0    0  501 -0.00000000000E+00 -0.00000000000E+00 -0.12453418180E+04  0.12453418180E+04  0.00000000000E+00 0.  1.
         23    2    1    2    0    0 -0.67024471439E+02  0.16961081563E+02 -0.20850880665E+03  0.23706649190E+03  0.89132716078E+02 0.  0.
        -24    2    1    2    0    0 -0.42045263948E+02 -0.11579283443E+03 -0.55826659739E+03  0.57770391078E+03  0.83092900084E+02 0.  0.
         11    1    4    4    0    0 -0.26020199896E+02 -0.29082569908E+02 -0.59184029180E+02  0.70891438024E+02  0.00000000000E+00 0. -1.
        -12    1    4    4    0    0 -0.16025064052E+02 -0.86710264524E+02 -0.49908256821E+03  0.50681247275E+03  0.00000000000E+00 0.  1.
        -11    1    3    3    0    0 -0.52716244778E+02 -0.87798550435E+01 -0.41994331594E+02  0.67967729138E+02  0.00000000000E+00 0.  1.
         11    1    3    3    0    0 -0.14308226661E+02  0.25740936606E+02 -0.16651447505E+03  0.16909876277E+03  0.00000000000E+00 0. -1.
         -1    1    1    2    0  502  0.10906973539E+03  0.98831752868E+02 -0.44265437218E+03  0.46648345711E+03  0.00000000000E+00 0.  1.
<scales pt_clust_5="13000.00000" pt_clust_6="13000.00000" pt_clust_7="13000.00000" pt_clust_8="13000.00000" pt_clust_9="132.66266"></scales>
<clustering>
<clus scale="   83.093">  5  6 -1 -1</clus>
<clus scale="   89.133">  7  8 -1 -1</clus>
<clus scale="  112.803">  2  7  1 -1</clus>
<clus scale="  132.663">  1  9  2 -1</clus>
<clus scale="  132.663">  1  5  2 -1</clus>
</clustering>
</event>
<event>
 9    1  0.3197504E-005  0.9657810E+02  0.7546771E-02  0.1296977E+00
          1   -1    0    0  502    0 -0.00000000000E+00  0.00000000000E+00  0.44219038303E+02  0.44219038303E+02  0.00000000000E+00 0. -1.
         21   -1    0    0  501  502  0.00000000000E+00 -0.00000000000E+00 -0.40021716487E+03  0.40021716487E+03  0.00000000000E+00 0.  1.
        -24    2    1    2    0    0  0.18617959920E+02 -0.27777949011E+02 -0.14570234376E+02  0.83712674040E+02  0.75347708541E+02 0.  0.
         23    2    1    2    0    0 -0.14021134541E+02  0.52949953778E+01 -0.25973436921E+03  0.27586808909E+03  0.91742197702E+02 0.  0.
         11    1    3    3    0    0 -0.25018805316E+02  0.50364963919E+00 -0.19150937193E+02  0.31511151641E+02  0.00000000000E+00 0. -1.
        -12    1    3    3    0    0  0.43636765236E+02 -0.28281598650E+02  0.45807028174E+01  0.52201522399E+02  0.00000000000E+00 0.  1.
        -11    1    4    4    0    0  0.14626392228E+02  0.40242433026E+02 -0.17113571106E+03  0.17641093040E+03  0.00000000000E+00 0.  1.
         11    1    4    4    0    0 -0.28647526770E+02 -0.34947437648E+02 -0.88598658155E+02  0.99457158692E+02  0.00000000000E+00 0. -1.
          2    1    1    2  501    0 -0.45968253786E+01  0.22482953633E+02 -0.81693522974E+02  0.84855440035E+02  0.00000000000E+00 0. -1.
<scales pt_clust_5="13000.00000" pt_clust_6="13000.00000" pt_clust_7="13000.00000" pt_clust_8="13000.00000" pt_clust_9="22.94807"></scales>
<clustering>
<clus scale="   22.948">  2  9  1 -1</clus>
<clus scale="   75.348">  5  6 -1 -1</clus>
<clus scale="   81.166">  1  5  2 -1</clus>
<clus scale="   91.742">  7  8 -1 -1</clus>
<clus scale="   22.948">  2  5  1 -1</clus>
</clustering>
</event>
<event>
 9    1  0.3197504E-005  0.1613040E+03  0.7546771E-02  0.1193449E+00
         21   -1    0    0  501  502  0.00000000000E+00  0.00000000000E+00  0.85220447508E+02  0.85220447508E+02  0.00000000000E+00 0. -1.
          1   -1    0    0  502    0 -0.00000000000E+00 -0.00000000000E+00 -0.11065086784E+04  0.11065086784E+04  0.00000000000E+00 0. -1.
         23    2    1    2    0    0 -0.88308796597E+02  0.59707975056E+02 -0.36484268681E+02  0.14526872007E+03  0.91697400872E+02 0.  0.
        -24    2    1    2    0    0 -0.56019835185E+02 -0.12254432840E+03 -0.73847801676E+03  0.75413245190E+03  0.72184758915E+02 0.  0.
         13    1    4    4    0    0 -0.65919649874E+02 -0.71164807749E+02 -0.55172499433E+03  0.56018773591E+03  0.00000000000E+00 0. -1.
        -14    1    4    4    0    0  0.98998146886E+01 -0.51379520650E+02 -0.18675302243E+03  0.19394471599E+03  0.00000000000E+00 0.  1.
        -13    1    3    3    0    0 -0.55981857012E+02  0.82678132497E+02 -0.34212832596E+02  0.10554695553E+03  0.00000000000E+00 0. -1.
         13    1    3    3    0    0 -0.32326939585E+02 -0.22970157441E+02 -0.22714360843E+01  0.39721764534E+02  0.00000000000E+00 0.  1.
          2    1    1    2  501    0  0.14432863178E+03  0.62836353343E+02 -0.24632594548E+03  0.29232795397E+03  0.00000000000E+00 0. -1.
<scales pt_clust_5="13000.00000" pt_clust_6="13000.00000" pt_clust_7="13000.00000" pt_clust_8="13000.00000" pt_clust_9="144.25100"></scales>
<clustering>
<clus scale="   72.185">  5  6 -1 -1</clus>
<clus scale="   91.697">  7  8 -1 -1</clus>
<clus scale="  140.613">  2  7  1 -1</clus>
<clus scale="  144.251">  1  9  2 -1</clus>
<clus scale="  144.251">  1  5  2 -1</clus>
</clustering>
</event>
<event>
 9    1  0.3197504E-005  0.9269041E+02  0.7546771E-02  0.1304580E+00
         21   -1    0    0  501  502  0.00000000000E+00  0.00000000000E+00  0.10731981761E+03  0.10731981761E+03  0.00000000000E+00 0.  1.
         -2   -1    0    0    0  501 -0.00000000000E+00 -0.00000000000E+00 -0.15757508844E+03  0.15757508844E+03  0.00000000000E+00 0.  1.
         23    2    1    2    0    0  0.13760933153E+02 -0.23203442995E+01 -0.87045328309E+02  0.12756266856E+03  0.92198687353E+02 0.  0.
        -24    2    1    2    0    0  0.16718340478E+02  0.21870423557E+02 -0.24608699854E+01  0.83929737310E+02  0.79248511588E+02 0.  0.
         11    1    4    4    0    0 -0.10037699661E+02 -0.26383826790E+02  0.34480044928E+01  0.28438538386E+02  0.00000000000E+00 0. -1.
        -12    1    4    4    0    0  0.26756040139E+02  0.48254250346E+02 -0.59088744782E+01  0.55491198924E+02  0.00000000000E+00 0.  1.
        -11    1    3    3    0    0 -0.34278248883E+02  0.13748043974E+01 -0.67208620908E+02  0.75457850208E+02  0.00000000000E+00 0. -1.
         11    1    3    3    0    0  0.48039182035E+02 -0.36951486969E+01 -0.19836707400E+02  0.52104818347E+02  0.00000000000E+00 0.  1.
         -1    1    1    2    0  502 -0.30479273630E+02 -0.19550079257E+02  0.39250927459E+02  0.53402500189E+02  0.00000000000E+00 0.  1.
<scales pt_clust_5="13000.00000" pt_clust_6="13000.00000" pt_clust_7="13000.00000" pt_clust_8="13000.00000" pt_clust_9="36.21038"></scales>
<clustering>
<clus scale="   36.210">  1  9  2 -1</clus>
<clus scale="   79.249">  5  6 -1 -1</clus>
<clus scale="   79.820">  1  5  2 -1</clus>
<clus scale="   92.199">  7  8 -1 -1</clus>
<clus scale="   36.210">  1  5  2 -1</clus>
</clustering>
</event>
<event>
 9    1  0.3197504E-005  0.1166848E+03  0.7546771E-02  0.1251691E+00
         21   -1    0    0  501  502  0.00000000000E+00  0.00000000000E+00  0.22987306272E+03  0.22987306272E+03  0.00000000000E+00 0. -1.
          1   -1    0    0  502    0 -0.00000000000E+00 -0.00000000000E+00 -0.35636632274E+03  0.35636632274E+03  0.00000000000E+00 0. -1.
         23    2    1    2    0    0 -0.64676927600E+02  0.83659168209E+01 -0.21569729409E+03  0.24324546391E+03  0.91596612976E+02 0.  0.
        -24    2    1    2    0    0  0.89464329182E+02  0.27374149951E+02 -0.92978952123E+02  0.15569093677E+03  0.82712586542E+02 0.  0.
         11    1    4    4    0    0  0.63320882098E+02  0.55781490478E+02 -0.75812224695E+02  0.11343986161E+03  0.00000000000E+00 0. -1.
        -12    1    4    4    0    0  0.26143447084E+02 -0.28407340527E+02 -0.17166727428E+02  0.42251075156E+02  0.00000000000E+00 0.  1.
        -11    1    3    3    0    0 -0.88014351302E+01 -0.24702539300E+02 -0.10893574402E+02  0.28396314399E+02  0.00000000000E+00 0.  1.
         11    1    3    3    0    0 -0.55875492470E+02  0.33068456121E+02 -0.20480371968E+03  0.21484914951E+03  0.00000000000E+00 0. -1.
          2    1    1    2  501    0 -0.24787401582E+02 -0.35740066772E+02  0.18218298619E+03  0.18730298478E+03  0.00000000000E+00 0. -1.
<scales pt_clust_5="13000.00000" pt_clust_6="13000.00000" pt_clust_7="13000.00000" pt_clust_8="13000.00000" pt_clust_9="43.49446"></scales>
<clustering>
<clus scale="   43.494">  1  9  2 -1</clus>
<clus scale="   82.713">  5  6 -1 -1</clus>
<clus scale="   91.597">  7  8 -1 -1</clus>
<clus scale="  109.849">  1  5  2 -1</clus>
<clus scale="   43.494">  1  5  2 -1</clus>
</clustering>
</event>
<event>
 9    1  0.3197504E-005  0.9328027E+02  0.7546771E-02  0.1300176E+00
         21   -1    0    0  501  502  0.00000000000E+00  0.00000000000E+00  0.10383366864E+04  0.10383366864E+04  0.00000000000E+00 0. -1.
          1   -1    0    0  502    0 -0.00000000000E+00 -0.00000000000E+00 -0.20255691265E+02  0.20255691265E+02  0.00000000000E+00 0. -1.
         23    2    1    2    0    0  0.46264336916E+01  0.39565556229E+02  0.23839729102E+03  0.25881875798E+03  0.92558327492E+02 0.  0.
        -24    2    1    2    0    0  0.22570465914E+02  0.40873128386E+02  0.43018505005E+03  0.44010799369E+03  0.80348181469E+02 0.  0.
         13    1    4    4    0    0  0.30679112994E+02  0.58053303182E+02  0.39196692334E+03  0.39742856337E+03  0.00000000000E+00 0. -1.
        -14    1    4    4    0    0 -0.81086470802E+01 -0.17180174797E+02  0.38218126703E+02  0.42679430317E+02  0.00000000000E+00 0.  1.
        -13    1    3    3    0    0  0.35990012535E+02 -0.12834715575E+01  0.16667679489E+03  0.17052296695E+03  0.00000000000E+00 0.  1.
         13    1    3    3    0    0 -0.31363578843E+02  0.40849027787E+02  0.71720496127E+02  0.88295791031E+02  0.00000000000E+00 0. -1.
          2    1    1    2  501    0 -0.27196899605E+02 -0.80438684615E+02  0.34949865409E+03  0.35966562602E+03  0.00000000000E+00 0. -1.
<scales pt_clust_5="13000.00000" pt_clust_6="13000.00000" pt_clust_7="13000.00000" pt_clust_8="13000.00000" pt_clust_9="84.91203"></scales>
<clustering>
<clus scale="   80.348">  5  6 -1 -1</clus>
<clus scale="   84.912">  1  9  2 -1</clus>
<clus scale="   84.912">  1  5  2 -1</clus>
<clus scale="   92.558">  7  8 -1 -1</clus>
<clus scale="   84.912">  1  5  2 -1</clus>
</clustering>
</event>
<event>
 9    1  0.3197504E-005  0.9677232E+02  0.7546771E-02  0.1293081E+00
         21   -1    0    0  501  502  0.00000000000E+00  0.00000000000E+00  0.16784238538E+03  0.16784238538E+03  0.00000000000E+00 0.  1.
         -4   -1    0    0    0  501 -0.00000000000E+00 -0.00000000000E+00 -0.17594986685E+03  0.17594986685E+03  0.00000000000E+00 0.  1.
        -24    2    1    2    0    0 -0.16534419791E+02  0.23911976697E+02 -0.13435848212E+03  0.15944885321E+03  0.80787161144E+02 0.  0.
         23    2    1    2    0    0  0.30762107377E+02 -0.46877970014E+02  0.99802717919E+02  0.14653631499E+03  0.91479275163E+02 0.  0.
         11    1    3    3    0    0 -0.48574577078E+02  0.22799945789E+02 -0.88456828644E+02  0.10345983569E+03  0.00000000000E+00 0. -1.
        -12    1    3    3    0    0  0.32040157287E+02  0.11120309076E+01 -0.45901653472E+02  0.55989017523E+02  0.00000000000E+00 0.  1.
        -13    1    4    4    0    0  0.55525360970E+02 -0.35601303430E+01  0.65724380985E+02  0.86112917119E+02  0.00000000000E+00 0.  1.
         13    1    4    4    0    0 -0.24763253593E+02 -0.43317839671E+02  0.34078336934E+02  0.60423397873E+02  0.00000000000E+00 0. -1.
         -3    1    1    2    0  502 -0.14227687587E+02  0.22965993317E+02  0.26448282736E+02  0.37807084030E+02  0.00000000000E+00 0.  1.
<scales pt_clust_5="13000.00000" pt_clust_6="13000.00000" pt_clust_7="13000.00000" pt_clust_8="13000.00000" pt_clust_9="27.01599"></scales>
<clustering>
<clus scale="   27.016">  1  9  2 -1</clus>
<clus scale="   80.787">  5  6 -1 -1</clus>
<clus scale="   86.735">  2  5  1 -1</clus>
<clus scale="   91.479">  7  8 -1 -1</clus>
<clus scale="   27.016">  1  5  2 -1</clus>
</clustering>
</event>
<event>
 9    1  0.3197504E-005  0.1074802E+03  0.7546771E-02  0.1274803E+00
         21   -1    0    0  501  502  0.00000000000E+00  0.00000000000E+00  0.29069103165E+03  0.29069103165E+03  0.00000000000E+00 0.  1.
         -2   -1    0    0    0  501 -0.00000000000E+00 -0.00000000000E+00 -0.10567431230E+03  0.10567431230E+03  0.00000000000E+00 0.  1.
        -24    2    1    2    0    0 -0.26008748567E+02 -0.25041391936E+02 -0.38315016751E+02  0.98221000943E+02  0.82920432979E+02 0.  0.
         23    2    1    2    0    0  0.48886032015E+02 -0.30871720270E+02  0.78389791727E+02  0.14111627720E+03  0.10210747771E+03 0.  0.
         13    1    3    3    0    0  0.56348918141E+01  0.26679184351E+02 -0.15482741334E+01  0.27311683144E+02  0.00000000000E+00 0. -1.
        -14    1    3    3    0    0 -0.31643640382E+02 -0.51720576286E+02 -0.36766742617E+02  0.70909317798E+02  0.00000000000E+00 0.  1.
        -11    1    4    4    0    0  0.69866650521E+02  0.81538286287E+01  0.33038436904E+02  0.77713397103E+02  0.00000000000E+00 0. -1.
         11    1    4    4    0    0 -0.20980618505E+02 -0.39025548898E+02  0.45351354824E+02  0.63402880092E+02  0.00000000000E+00 0.  1.
         -1    1    1    2    0  502 -0.22877283448E+02  0.55913112205E+02  0.14494194437E+03  0.15702806581E+03  0.00000000000E+00 0.  1.
<scales pt_clust_5="13000.00000" pt_clust_6="13000.00000" pt_clust_7="13000.00000" pt_clust_8="13000.00000" pt_clust_9="60.41230"></scales>
<clustering>
<clus scale="   60.412">  1  9  2 -1</clus>
<clus scale="   82.920">  5  6 -1 -1</clus>
<clus scale="   89.453">  2  5  1 -1</clus>
<clus scale="  102.107">  7  8 -1 -1</clus>
<clus scale="   60.412">  1  5  2 -1</clus>
</clustering>
</event>
<event>
 9    1  0.3197504E-005  0.2244465E+03  0.7546771E-02  0.1130611E+00
          1   -1    0    0  502    0 -0.00000000000E+00  0.00000000000E+00  0.15577660095E+03  0.15577660095E+03  0.00000000000E+00 0. -1.
         21   -1    0    0  501  502  0.00000000000E+00 -0.00000000000E+00 -0.54094496392E+03  0.54094496392E+03  0.00000000000E+00 0. -1.
        -24    2    1    2    0    0 -0.41175022193E+02  0.15701599253E+02  0.14373530666E+02  0.93662104798E+02  0.81388382584E+02 0.  0.
         23    2    1    2    0    0 -0.89431990663E+02  0.30861767763E+02  0.44081277804E+02  0.13827148992E+03  0.90693529038E+02 0.  0.
         11    1    3    3    0    0 -0.46403653786E+02 -0.11187905041E+02  0.35151912167E+02  0.59280057632E+02  0.00000000000E+00 0. -1.
        -12    1    3    3    0    0  0.52286315929E+01  0.26889504294E+02 -0.20778381501E+02  0.34382047166E+02  0.00000000000E+00 0.  1.
        -11    1    4    4    0    0 -0.64381067021E+02  0.29037858940E+02  0.71904015971E+02  0.10078842471E+03  0.00000000000E+00 0.  1.
         11    1    4    4    0    0 -0.25050923642E+02  0.18239088232E+01 -0.27822738167E+02  0.37483065214E+02  0.00000000000E+00 0. -1.
          2    1    1    2  501    0  0.13060701286E+03 -0.46563367017E+02 -0.44362317144E+03  0.46478797015E+03  0.00000000000E+00 0. -1.
<scales pt_clust_5="13000.00000" pt_clust_6="13000.00000" pt_clust_7="13000.00000" pt_clust_8="13000.00000" pt_clust_9="138.65907"></scales>
<clustering>
<clus scale="   81.388">  5  6 -1 -1</clus>
<clus scale="   90.694">  7  8 -1 -1</clus>
<clus scale="   90.916">  5  7 -1 -1</clus>
<clus scale="  138.659">  2  9  1 -1</clus>
<clus scale="  138.659">  2  5  1 -1</clus>
</clustering>
</event>
<event>
 9    1  0.3197504E-005  0.8967361E+02  0.7546771E-02  0.1308609E+00
         21   -1    0    0  501  502  0.00000000000E+00  0.00000000000E+00  0.74660944231E+02  0.74660944231E+02  0.00000000000E+00 0. -1.
          1   -1    0    0  502    0 -0.00000000000E+00 -0.00000000000E+00 -0.44609483687E+03  0.44609483687E+03  0.00000000000E+00 0. -1.
        -24    2    1    2    0    0  0.28432676215E+02 -0.11955663324E+02 -0.31146671753E+03  0.32276878860E+03  0.78846812261E+02 0.  0.
         23    2    1    2    0    0  0.26315981479E+02  0.25904721470E+02 -0.93013312041E+02  0.13253442259E+03  0.86892528326E+02 0.  0.
         11    1    3    3    0    0  0.51496788110E+02  0.92455158976E+01 -0.16972342819E+03  0.17760473200E+03  0.00000000000E+00 0. -1.
        -12    1    3    3    0    0 -0.23064111895E+02 -0.21201179221E+02 -0.14174328934E+03  0.14516405660E+03  0.00000000000E+00 0.  1.
        -11    1    4    4    0    0 -0.10973476606E+02  0.32587904918E+02 -0.87800580239E+02  0.94293852536E+02  0.00000000000E+00 0.  1.
         11    1    4    4    0    0  0.37289458085E+02 -0.66831834476E+01 -0.52127318018E+01  0.38240570054E+02  0.00000000000E+00 0. -1.
          2    1    1    2  501    0 -0.54748657694E+02 -0.13949058146E+02  0.33046136927E+02  0.65452569913E+02  0.00000000000E+00 0. -1.
<scales pt_clust_5="13000.00000" pt_clust_6="13000.00000" pt_clust_7="13000.00000" pt_clust_8="13000.00000" pt_clust_9="56.49771"></scales>
<clustering>
<clus scale="   56.498">  1  9  2 -1</clus>
<clus scale="   78.847">  5  6 -1 -1</clus>
<clus scale="   81.902">  2  5  1 -1</clus>
<clus scale="   86.893">  7  8 -1 -1</clus>
<clus scale="   56.498">  1  5  2 -1</clus>
</clustering>
</event>
<event>
 9    1  0.3197504E-005  0.1558982E+03  0.7546771E-02  0.1218088E+00
         -2   -1    0    0    0  501 -0.00000000000E+00  0.00000000000E+00  0.10009071230E+03  0.10009071230E+03  0.00000000000E+00 0.  1.
         21   -1    0    0  501  502  0.00000000000E+00 -0.00000000000E+00 -0.54125182046E+03  0.54125182046E+03  0.00000000000E+00 0.  1.
         23    2    1    2    0    0 -0.12887027544E+02 -0.71930425671E+01 -0.67006834609E+02  0.11355787896E+03  0.90485693068E+02 0.  0.
        -24    2    1    2    0    0 -0.74608688738E+02  0.11297862074E+03 -0.35696720316E+03  0.38943190064E+03  0.76817940148E+02 0.  0.
         13    1    4    4    0    0 -0.29142001403E+02  0.52872844997E+01 -0.29827564578E+02  0.42034452914E+02  0.00000000000E+00 0. -1.
        -14    1    4    4    0    0 -0.45466687336E+02  0.10769133624E+03 -0.32713963858E+03  0.34739744773E+03  0.00000000000E+00 0.  1.
        -13    1    3    3    0    0  0.16481462068E+02 -0.42205211044E+02 -0.26491793870E+02  0.52485555857E+02  0.00000000000E+00 0.  1.
         13    1    3    3    0    0 -0.29368489612E+02  0.35012168477E+02 -0.40515040738E+02  0.61072323106E+02  0.00000000000E+00 0. -1.
         -1    1    1    2    0  502  0.87495716283E+02 -0.10578557817E+03 -0.17187070394E+02  0.13835275316E+03  0.00000000000E+00 0.  1.
<scales pt_clust_5="13000.00000" pt_clust_6="13000.00000" pt_clust_7="13000.00000" pt_clust_8="13000.00000" pt_clust_9="135.65865"></scales>
<clustering>
<clus scale="   76.818">  5  6 -1 -1</clus>
<clus scale="   90.486">  7  8 -1 -1</clus>
<clus scale="   91.681">  1  7  2 -1</clus>
<clus scale="  135.659">  2  9  1 -1</clus>
<clus scale="  135.659">  2  5  1 -1</clus>
</clustering>
</event>
<event>
 9    1  0.3197504E-005  0.9045671E+02  0.7546771E-02  0.1307440E+00
         21   -1    0    0  501  502  0.00000000000E+00  0.00000000000E+00  0.45281615459E+02  0.45281615459E+02  0.00000000000E+00 0. -1.
          1   -1    0    0  502    0 -0.00000000000E+00 -0.00000000000E+00 -0.24559311864E+03  0.24559311864E+03  0.00000000000E+00 0. -1.
         23    2    1    2    0    0 -0.79165049342E+01 -0.98534557300E+01 -0.91950732538E+02  0.12818897796E+03  0.88417844443E+02 0.  0.
        -24    2    1    2    0    0  0.29128347741E+02  0.82398297021E+01 -0.45365509867E+02  0.96195539231E+02  0.79241383423E+02 0.  0.
         13    1    4    4    0    0  0.34627889386E+02  0.35717525427E+02 -0.94434030955E+01  0.50636056403E+02  0.00000000000E+00 0. -1.
        -14    1    4    4    0    0 -0.54995416450E+01 -0.27477695725E+02 -0.35922106771E+02  0.45559482828E+02  0.00000000000E+00 0.  1.
        -13    1    3    3    0    0  0.29931983443E+02 -0.33255032786E+02 -0.43452888964E+02  0.62369659272E+02  0.00000000000E+00 0. -1.
         13    1    3    3    0    0 -0.37848488378E+02  0.23401577056E+02 -0.48497843575E+02  0.65819318688E+02  0.00000000000E+00 0.  1.
          2    1    1    2  501    0 -0.21211842807E+02  0.16136260278E+01 -0.62995260777E+02  0.66490216908E+02  0.00000000000E+00 0. -1.
<scales pt_clust_5="13000.00000" pt_clust_6="13000.00000" pt_clust_7="13000.00000" pt_clust_8="13000.00000" pt_clust_9="21.27314"></scales>
<clustering>
<clus scale="   21.273">  1  9  2 -1</clus>
<clus scale="   79.241">  5  6 -1 -1</clus>
<clus scale="   81.510">  1  5  2 -1</clus>
<clus scale="   88.418">  7  8 -1 -1</clus>
<clus scale="   21.273">  1  5  2 -1</clus>
</clustering>
</event>
<event>
 9    1  0.3197504E-005  0.9757552E+02  0.7546771E-02  0.1295499E+00
         -2   -1    0    0    0  501 -0.00000000000E+00  0.00000000000E+00  0.14608333101E+03  0.14608333101E+03  0.00000000000E+00 0.  1.
         21   -1    0    0  501  502  0.00000000000E+00 -0.00000000000E+00 -0.86744568738E+02  0.86744568738E+02  0.00000000000E+00 0. -1.
        -24    2    1    2    0    0 -0.23000616015E+02  0.19476809828E+02  0.71142351666E+02  0.10929830873E+03  0.77307901486E+02 0.  0.
         23    2    1    2    0    0  0.69282407843E+01 -0.59622426512E+01  0.70224383829E+01  0.95327036284E+02  0.94627587669E+02 0.  0.
         11    1    3    3    0    0 -0.24396108592E+00 -0.25333325656E+02  0.43426969622E+01  0.25704005966E+02  0.00000000000E+00 0. -1.
        -12    1    3    3    0    0 -0.22756654929E+02  0.44810135484E+02  0.66799654704E+02  0.83594302762E+02  0.00000000000E+00 0.  1.
        -13    1    4    4    0    0  0.38621211191E+02 -0.23487741543E+02 -0.20701829961E+02  0.49717579591E+02  0.00000000000E+00 0. -1.
         13    1    4    4    0    0 -0.31692970407E+02  0.17525498892E+02  0.27724268344E+02  0.45609456693E+02  0.00000000000E+00 0.  1.
         -1    1    1    2    0  502  0.16072375231E+02 -0.13514567176E+02 -0.18826027780E+02  0.28202554733E+02  0.00000000000E+00 0.  1.
<scales pt_clust_5="13000.00000" pt_clust_6="13000.00000" pt_clust_7="13000.00000" pt_clust_8="13000.00000" pt_clust_9="20.99916"></scales>
<clustering>
<clus scale="   20.999">  2  9  1 -1</clus>
<clus scale="   77.308">  5  6 -1 -1</clus>
<clus scale="   80.890">  1  5  2 -1</clus>
<clus scale="   94.628">  7  8 -1 -1</clus>
<clus scale="   20.999">  2  5  1 -1</clus>
</clustering>
</event>
<event>
 9    1  0.3197504E-005  0.1253819E+03  0.7546771E-02  0.1236903E+00
         21   -1    0    0  501  502  0.00000000000E+00  0.00000000000E+00  0.84131775842E+02  0.84131775842E+02  0.00000000000E+00 0.  1.
          1   -1    0    0  502    0 -0.00000000000E+00 -0.00000000000E+00 -0.45486175716E+03  0.45486175716E+03  0.00000000000E+00 0. -1.
         23    2    1    2    0    0 -0.30346414776E+02  0.73266103234E+02 -0.27493784488E+03  0.30072895100E+03  0.92510846126E+02 0.  0.
        -24    2    1    2    0    0  0.34402564844E+02 -0.10769556555E+03 -0.49000303143E+01  0.14098552370E+03  0.84089454090E+02 0.  0.
         11    1    4    4    0    0  0.51209665326E+02 -0.26535285388E+02 -0.68408860833E+01  0.58080538185E+02  0.00000000000E+00 0. -1.
        -12    1    4    4    0    0 -0.16807100481E+02 -0.81160280157E+02  0.19408557690E+01  0.82904985513E+02  0.00000000000E+00 0.  1.
        -13    1    3    3    0    0  0.15574563871E+02 -0.13045762813E+02 -0.81420517573E+02  0.83916980696E+02  0.00000000000E+00 0.  1.
         13    1    3    3    0    0 -0.45920978647E+02  0.86311866047E+02 -0.19351732731E+03  0.21681197031E+03  0.00000000000E+00 0. -1.
          2    1    1    2  501    0 -0.40561500689E+01  0.34429462311E+02 -0.90892106122E+02  0.97279058300E+02  0.00000000000E+00 0. -1.
<scales pt_clust_5="13000.00000" pt_clust_6="13000.00000" pt_clust_7="13000.00000" pt_clust_8="13000.00000" pt_clust_9="34.66758"></scales>
<clustering>
<clus scale="   34.668">  1  9  2 -1</clus>
<clus scale="   84.089">  5  6 -1 -1</clus>
<clus scale="   92.511">  7  8 -1 -1</clus>
<clus scale="  119.304">  1  5  2 -1</clus>
<clus scale="   34.668">  1  5  2 -1</clus>
</clustering>
</event>
<event>
 9    1  0.3197504E-005  0.9314684E+02  0.7546771E-02  0.1300967E+00
         -2   -1    0    0    0  501 -0.00000000000E+00  0.00000000000E+00  0.32131156057E+03  0.32131156057E+03  0.00000000000E+00 0.  1.
         21   -1    0    0  501  502  0.00000000000E+00 -0.00000000000E+00 -0.70870971753E+02  0.70870971753E+02  0.00000000000E+00 0. -1.
        -24    2    1    2    0    0  0.13805473053E+02  0.15678159492E+02  0.19774149551E+03  0.21450640743E+03  0.80466788245E+02 0.  0.
         23    2    1    2    0    0 -0.38396576017E+02 -0.50128468548E+01  0.89157884264E+02  0.13242444342E+03  0.89931525090E+02 0.  0.
         11    1    3    3    0    0 -0.32871770484E+02  0.15753830397E+02  0.85533204583E+02  0.92976693602E+02  0.00000000000E+00 0. -1.
        -12    1    3    3    0    0  0.46677243537E+02 -0.75670905452E-01  0.11220829092E+03  0.12152971382E+03  0.00000000000E+00 0.  1.
        -11    1    4    4    0    0 -0.26018734953E+02 -0.23154454398E+02 -0.54920259027E+01  0.35259972710E+02  0.00000000000E+00 0. -1.
         11    1    4    4    0    0 -0.12377841064E+02  0.18141607543E+02  0.94649910167E+02  0.97164470709E+02  0.00000000000E+00 0.  1.
         -1    1    1    2    0  502  0.24591102964E+02 -0.10665312637E+02 -0.36458790954E+02  0.45251681476E+02  0.00000000000E+00 0.  1.
<scales pt_clust_5="13000.00000" pt_clust_6="13000.00000" pt_clust_7="13000.00000" pt_clust_8="13000.00000" pt_clust_9="26.80431"></scales>
<clustering>
<clus scale="   26.804">  2  9  1 -1</clus>
<clus scale="   80.467">  5  6 -1 -1</clus>
<clus scale="   84.045">  1  5  2 -1</clus>
<clus scale="   89.932">  7  8 -1 -1</clus>
<clus scale="   26.804">  2  5  1 -1</clus>
</clustering>
</event>
<event>
 9    1  0.6228905E-005  0.9706194E+02  0.7546771E-02  0.1290095E+00
          1   -1    0    0  502    0 -0.00000000000E+00  0.00000000000E+00  0.35727586518E+03  0.35727586518E+03  0.00000000000E+00 0. -1.
         21   -1    0    0  501  502  0.00000000000E+00 -0.00000000000E+00 -0.18695892543E+03  0.18695892543E+03  0.00000000000E+00 0. -1.
         23    2    1    2    0    0 -0.52401608172E+01 -0.38852117446E+02  0.31015984828E+03  0.32465453836E+03  0.87547081480E+02 0.  0.
        -24    2    1    2    0    0 -0.84807491085E+00  0.72045251261E+02 -0.41892787404E+02  0.11597968770E+03  0.80653858315E+02 0.  0.
         13    1    4    4    0    0  0.23583503042E+02  0.32338866197E+02  0.14716067946E+02  0.42644419781E+02  0.00000000000E+00 0. -1.
        -14    1    4    4    0    0 -0.24431577953E+02  0.39706385064E+02 -0.56608855350E+02  0.73335267915E+02  0.00000000000E+00 0.  1.
        -11    1    3    3    0    0  0.10380346828E+02 -0.62671646472E+02  0.25214360106E+03  0.26002284982E+03  0.00000000000E+00 0. -1.
         11    1    3    3    0    0 -0.15620507645E+02  0.23819529026E+02  0.58016247223E+02  0.64631688543E+02  0.00000000000E+00 0.  1.
          2    1    1    2  501    0  0.60882357281E+01 -0.33193133815E+02 -0.97950121127E+02  0.10360056455E+03  0.00000000000E+00 0. -1.
<scales pt_clust_5="13000.00000" pt_clust_6="13000.00000" pt_clust_7="13000.00000" pt_clust_8="13000.00000" pt_clust_9="33.74686"></scales>
<clustering>
<clus scale="   33.747">  2  9  1 -1</clus>
<clus scale="   80.654">  5  6 -1 -1</clus>
<clus scale="   87.547">  7  8 -1 -1</clus>
<clus scale="   90.893">  2  5  1 -1</clus>
<clus scale="   33.747">  2  5  1 -1</clus>
</clustering>
</event>
<event>
 9    1  0.3197504E-005  0.1139891E+03  0.7546771E-02  0.1257026E+00
          3   -1    0    0  502    0 -0.00000000000E+00  0.00000000000E+00  0.23183561410E+03  0.23183561410E+03  0.00000000000E+00 0. -1.
         21   -1    0    0  501  502  0.00000000000E+00 -0.00000000000E+00 -0.68772353860E+02  0.68772353860E+02  0.00000000000E+00 0. -1.
         23    2    1    2    0    0  0.24493914266E+02 -0.56063355994E+02  0.68476072024E+02  0.12938645776E+03  0.91152790911E+02 0.  0.
        -24    2    1    2    0    0 -0.47676692285E+02  0.61623162754E+02  0.55177596242E+02  0.12516210739E+03  0.80935189030E+02 0.  0.
         13    1    4    4    0    0 -0.39533351278E+02  0.35408751792E+02 -0.10390534779E+02  0.54079837090E+02  0.00000000000E+00 0. -1.
        -14    1    4    4    0    0 -0.81433410075E+01  0.26214410962E+02  0.65568131021E+02  0.71082270296E+02  0.00000000000E+00 0.  1.
        -11    1    3    3    0    0 -0.34908225372E+02 -0.22459377861E+02  0.24600719949E+02  0.48251458781E+02  0.00000000000E+00 0.  1.
         11    1    3    3    0    0  0.59402139638E+02 -0.33603978133E+02  0.43875352075E+02  0.81134998981E+02  0.00000000000E+00 0. -1.
          4    1    1    2  501    0  0.23182778019E+02 -0.55598067598E+01  0.39409591978E+02  0.46059402816E+02  0.00000000000E+00 0. -1.
<scales pt_clust_5="13000.00000" pt_clust_6="13000.00000" pt_clust_7="13000.00000" pt_clust_8="13000.00000" pt_clust_9="23.84016"></scales>
<clustering>
<clus scale="   23.840">  2  9  1 -1</clus>
<clus scale="   80.935">  5  6 -1 -1</clus>
<clus scale="   91.153">  7  8 -1 -1</clus>
<clus scale="  105.996">  2  5  1 -1</clus>
<clus scale="   23.840">  2  5  1 -1</clus>
</clustering>
</event>
<event>
 9    1  0.3197504E-005  0.9344579E+02  0.7546771E-02  0.1298009E+00
         21   -1    0    0  501  502  0.00000000000E+00  0.00000000000E+00  0.13831538162E+03  0.13831538162E+03  0.00000000000E+00 0.  1.
          1   -1    0    0  502    0 -0.00000000000E+00 -0.00000000000E+00 -0.11510333362E+03  0.11510333362E+03  0.00000000000E+00 0. -1.
        -24    2    1    2    0    0 -0.25391732899E+02  0.58192762968E+01  0.86964052607E+01  0.90583114192E+02  0.86319575045E+02 0.  0.
         23    2    1    2    0    0 -0.36859758627E+01 -0.11685110696E+02  0.58583782947E+02  0.10971383394E+03  0.91950734109E+02 0.  0.
         13    1    3    3    0    0 -0.34166944298E+02  0.40629249885E+02  0.12335045590E+02  0.54500177785E+02  0.00000000000E+00 0. -1.
        -14    1    3    3    0    0  0.87752113993E+01 -0.34809973588E+02 -0.36386403297E+01  0.36082936407E+02  0.00000000000E+00 0.  1.
        -13    1    4    4    0    0 -0.30327940553E+02 -0.22977706767E+02  0.69134857949E+02  0.78913798350E+02  0.00000000000E+00 0.  1.
         13    1    4    4    0    0  0.26641964690E+02  0.11292596072E+02 -0.10551075001E+02  0.30800035589E+02  0.00000000000E+00 0. -1.
          2    1    1    2  501    0  0.29077708761E+02  0.58658343990E+01 -0.44068140200E+02  0.53121767108E+02  0.00000000000E+00 0. -1.
<scales pt_clust_5="13000.00000" pt_clust_6="13000.00000" pt_clust_7="13000.00000" pt_clust_8="13000.00000" pt_clust_9="29.66348"></scales>
<clustering>
<clus scale="   29.663">  1  9  2 -1</clus>
<clus scale="   86.320">  5  6 -1 -1</clus>
<clus scale="   87.910">  2  5  1 -1</clus>
<clus scale="   91.951">  7  8 -1 -1</clus>
<clus scale="   29.663">  1  5  2 -1</clus>
</clustering>
</event>
<event>
 9    1  0.3197504E-005  0.1223745E+03  0.7546771E-02  0.1242711E+00
         21   -1    0    0  501  502  0.00000000000E+00  0.00000000000E+00  0.11839824603E+03  0.11839824603E+03  0.00000000000E+00 0.  1.
         -2   -1    0    0    0  501 -0.00000000000E+00 -0.00000000000E+00 -0.22705463807E+03  0.22705463807E+03  0.00000000000E+00 0.  1.
         23    2    1    2    0    0 -0.51385823694E+02  0.23121470024E+02 -0.32272385986E+02  0.11268134498E+03  0.92089485591E+02 0.  0.
        -24    2    1    2    0    0  0.11143620042E+03  0.22918184573E+02 -0.72040536927E+02  0.15697864193E+03  0.80679521018E+02 0.  0.
         13    1    4    4    0    0  0.43168895416E+02 -0.28868795589E+02 -0.39789396648E+02  0.65422908647E+02  0.00000000000E+00 0. -1.
        -14    1    4    4    0    0  0.68267305007E+02  0.51786980161E+02 -0.32251140279E+02  0.91555733280E+02  0.00000000000E+00 0.  1.
        -13    1    3    3    0    0 -0.66495773186E+02  0.43694427931E+02 -0.35167236267E+02  0.86992099587E+02  0.00000000000E+00 0.  1.
         13    1    3    3    0    0  0.15109949492E+02 -0.20572957907E+02  0.28948502814E+01  0.25689245393E+02  0.00000000000E+00 0. -1.
         -1    1    1    2    0  502 -0.60050376729E+02 -0.46039654597E+02 -0.43434691308E+01  0.75792897192E+02  0.00000000000E+00 0.  1.
<scales pt_clust_5="13000.00000" pt_clust_6="13000.00000" pt_clust_7="13000.00000" pt_clust_8="13000.00000" pt_clust_9="75.66834"></scales>
<clustering>
<clus scale="   75.668">  1  9  2 -1</clus>
<clus scale="   80.680">  5  6 -1 -1</clus>
<clus scale="   92.089">  7  8 -1 -1</clus>
<clus scale="  114.036">  1  5  2 -1</clus>
<clus scale="   75.668">  1  5  2 -1</clus>
</clustering>
</event>
<event>
 9    1  0.3197504E-005  0.1368815E+03  0.7546771E-02  0.1236903E+00
         21   -1    0    0  501  502  0.00000000000E+00  0.00000000000E+00  0.52868711146E+03  0.52868711146E+03  0.00000000000E+00 0. -1.
          1   -1    0    0  502    0 -0.00000000000E+00 -0.00000000000E+00 -0.16771307815E+03  0.16771307815E+03  0.00000000000E+00 0. -1.
        -24    2    1    2    0    0  0.37668705400E+02 -0.18598549734E+02 -0.31841543880E+02  0.97061643254E+02  0.81499946354E+02 0.  0.
         23    2    1    2    0    0  0.18971525453E+02  0.10409638343E+03 -0.47373387360E+02  0.14736031697E+03  0.90966199035E+02 0.  0.
         11    1    3    3    0    0  0.47088186685E+02 -0.21763337385E+02 -0.52705982941E+02  0.73951746546E+02  0.00000000000E+00 0. -1.
        -12    1    3    3    0    0 -0.94194812854E+01  0.31647876504E+01  0.20864439060E+02  0.23109896708E+02  0.00000000000E+00 0.  1.
        -11    1    4    4    0    0 -0.36214391489E+02  0.46169595934E+02 -0.28130108180E+02  0.65072396036E+02  0.00000000000E+00 0.  1.
         11    1    4    4    0    0  0.55185916942E+02  0.57926787500E+02 -0.19243279180E+02  0.82287920938E+02  0.00000000000E+00 0. -1.
          2    1    1    2  501    0 -0.56640230853E+02 -0.85497833699E+02  0.44018896455E+03  0.45197822938E+03  0.00000000000E+00 0. -1.
<scales pt_clust_5="13000.00000" pt_clust_6="13000.00000" pt_clust_7="13000.00000" pt_clust_8="13000.00000" pt_clust_9="102.28247"></scales>
<clustering>
<clus scale="   81.500">  5  6 -1 -1</clus>
<clus scale="   90.966">  7  8 -1 -1</clus>
<clus scale="   91.690">  2  5  1 -1</clus>
<clus scale="  102.282">  1  9  2 -1</clus>
<clus scale="  102.282">  1  5  2 -1</clus>
</clustering>
</event>
<event>
 9    1  0.3197504E-005  0.1669352E+03  0.7546771E-02  0.1182258E+00
         21   -1    0    0  501  502  0.00000000000E+00  0.00000000000E+00  0.42976386041E+03  0.42976386041E+03  0.00000000000E+00 0. -1.
         -4   -1    0    0    0  501 -0.00000000000E+00 -0.00000000000E+00 -0.16290954263E+03  0.16290954263E+03  0.00000000000E+00 0.  1.
        -24    2    1    2    0    0 -0.17006081781E+02 -0.14970406424E+03 -0.39487601272E+02  0.17651362708E+03  0.83049841808E+02 0.  0.
         23    2    1    2    0    0  0.59543325795E+02  0.11212117266E+03  0.66858817106E+02  0.17004182255E+03  0.91255438126E+02 0.  0.
         11    1    3    3    0    0  0.18218658615E+02 -0.80284049085E+02  0.11980188034E+02  0.83192385256E+02  0.00000000000E+00 0. -1.
        -12    1    3    3    0    0 -0.35224740396E+02 -0.69420015151E+02 -0.51467789306E+02  0.93321241824E+02  0.00000000000E+00 0.  1.
        -13    1    4    4    0    0 -0.13092375843E+02  0.46145228381E+02 -0.52737591120E+01  0.48255620841E+02  0.00000000000E+00 0.  1.
         13    1    4    4    0    0  0.72635701638E+02  0.65975944275E+02  0.72132576218E+02  0.12178620171E+03  0.00000000000E+00 0. -1.
         -3    1    1    2    0  502 -0.42537244014E+02  0.37582891579E+02  0.23948310195E+03  0.24611795340E+03  0.00000000000E+00 0.  1.
<scales pt_clust_5="13000.00000" pt_clust_6="13000.00000" pt_clust_7="13000.00000" pt_clust_8="13000.00000" pt_clust_9="56.76170"></scales>
<clustering>
<clus scale="   56.762">  1  9  2 -1</clus>
<clus scale="   83.050">  5  6 -1 -1</clus>
<clus scale="   91.255">  7  8 -1 -1</clus>
<clus scale="  162.595">  2  5  1 -1</clus>
<clus scale="   56.762">  1  5  2 -1</clus>
</clustering>
</event>
<event>
 9    1  0.3197504E-005  0.9211700E+02  0.7546771E-02  0.1301898E+00
         21   -1    0    0  501  502  0.00000000000E+00  0.00000000000E+00  0.42449276198E+03  0.42449276198E+03  0.00000000000E+00 0.  1.
          1   -1    0    0  502    0 -0.00000000000E+00 -0.00000000000E+00 -0.31859387533E+02  0.31859387533E+02  0.00000000000E+00 0. -1.
        -24    2    1    2    0    0  0.20854657008E+02  0.21186764220E+02  0.59329443335E+02  0.10438451768E+03  0.80575113952E+02 0.  0.
         23    2    1    2    0    0 -0.20528676875E+01 -0.29287748880E+02  0.26465920086E+03  0.28033501198E+03  0.87642682788E+02 0.  0.
         13    1    3    3    0    0  0.31263832419E+02  0.39674397009E+02  0.11132566735E+02  0.51724452995E+02  0.00000000000E+00 0. -1.
        -14    1    3    3    0    0 -0.10409175411E+02 -0.18487632790E+02  0.48196876599E+02  0.52660064687E+02  0.00000000000E+00 0.  1.
        -13    1    4    4    0    0  0.31696498896E+02 -0.27568635070E+02  0.62085815972E+02  0.74962298703E+02  0.00000000000E+00 0. -1.
         13    1    4    4    0    0 -0.33749366584E+02 -0.17191138097E+01  0.20257338488E+03  0.20537271328E+03  0.00000000000E+00 0.  1.
          2    1    1    2  501    0 -0.18801789320E+02  0.81009846605E+01  0.68644730252E+02  0.71632619842E+02  0.00000000000E+00 0. -1.
<scales pt_clust_5="13000.00000" pt_clust_6="13000.00000" pt_clust_7="13000.00000" pt_clust_8="13000.00000" pt_clust_9="20.47274"></scales>
<clustering>
<clus scale="   20.473">  1  9  2 -1</clus>
<clus scale="   80.575">  5  6 -1 -1</clus>
<clus scale="   85.420">  2  5  1 -1</clus>
<clus scale="   87.643">  7  8 -1 -1</clus>
<clus scale="   20.473">  1  5  2 -1</clus>
</clustering>
</event>
<event>
 9    1  0.3197504E-005  0.1011861E+03  0.7546771E-02  0.1287723E+00
          3   -1    0    0  502    0 -0.00000000000E+00  0.00000000000E+00  0.18509477600E+03  0.18509477600E+03  0.00000000000E+00 0. -1.
         21   -1    0    0  501  502  0.00000000000E+00 -0.00000000000E+00 -0.95601813116E+02  0.95601813116E+02  0.00000000000E+00 0.  1.
        -24    2    1    2    0    0 -0.15479067787E+02 -0.32891627013E+02  0.11943998011E+03  0.14714580478E+03  0.77875017489E+02 0.  0.
         23    2    1    2    0    0  0.17468516821E+02  0.18760878947E+01 -0.14781722063E+02  0.98968885152E+02  0.96268749526E+02 0.  0.
         13    1    3    3    0    0 -0.17090903249E+02 -0.17213316673E+02  0.12726022193E+03  0.12955138490E+03  0.00000000000E+00 0. -1.
        -14    1    3    3    0    0  0.16118354612E+01 -0.15678310340E+02 -0.78202418210E+01  0.17594419877E+02  0.00000000000E+00 0.  1.
        -11    1    4    4    0    0  0.45249513372E+02  0.72324098998E+01 -0.40182881355E+02  0.60946617358E+02  0.00000000000E+00 0.  1.
         11    1    4    4    0    0 -0.27780996551E+02 -0.53563220050E+01  0.25401159292E+02  0.38022267794E+02  0.00000000000E+00 0. -1.
          4    1    1    2  501    0 -0.19894490337E+01  0.31015539118E+02 -0.15165295157E+02  0.34581899188E+02  0.00000000000E+00 0. -1.
<scales pt_clust_5="13000.00000" pt_clust_6="13000.00000" pt_clust_7="13000.00000" pt_clust_8="13000.00000" pt_clust_9="31.07928"></scales>
<clustering>
<clus scale="   31.079">  2  9  1 -1</clus>
<clus scale="   77.875">  5  6 -1 -1</clus>
<clus scale="   83.878">  1  5  2 -1</clus>
<clus scale="   96.269">  7  8 -1 -1</clus>
<clus scale="   31.079">  2  5  1 -1</clus>
</clustering>
</event>
<event>
 9    1  0.3197504E-005  0.1222536E+03  0.7546771E-02  0.1242710E+00
         21   -1    0    0  501  502  0.00000000000E+00  0.00000000000E+00  0.89440794205E+02  0.89440794205E+02  0.00000000000E+00 0.  1.
          1   -1    0    0  502    0 -0.00000000000E+00 -0.00000000000E+00 -0.41005479662E+03  0.41005479662E+03  0.00000000000E+00 0. -1.
         23    2    1    2    0    0 -0.42571626134E+02  0.55849514381E+02 -0.16858331531E+03  0.20390935601E+03  0.90703801785E+02 0.  0.
        -24    2    1    2    0    0  0.45138523144E+02 -0.82270482886E+02 -0.20338913997E+03  0.23777319807E+03  0.79768620639E+02 0.  0.
         11    1    4    4    0    0  0.28361882974E+02 -0.49344193667E+02 -0.19020525817E+03  0.19853787067E+03  0.00000000000E+00 0. -1.
        -12    1    4    4    0    0  0.16776640170E+02 -0.32926289220E+02 -0.13183881799E+02  0.39235327404E+02  0.00000000000E+00 0.  1.
        -13    1    3    3    0    0 -0.57623146016E+02  0.12511218840E+02 -0.51981747430E+02  0.78606994724E+02  0.00000000000E+00 0.  1.
         13    1    3    3    0    0  0.15051519882E+02  0.43338295541E+02 -0.11660156788E+03  0.12530236128E+03  0.00000000000E+00 0. -1.
          2    1    1    2  501    0 -0.25668970100E+01  0.26420968505E+02  0.51358452864E+02  0.57813036744E+02  0.00000000000E+00 0. -1.
<scales pt_clust_5="13000.00000" pt_clust_6="13000.00000" pt_clust_7="13000.00000" pt_clust_8="13000.00000" pt_clust_9="26.54537"></scales>
<clustering>
<clus scale="   26.545">  1  9  2 -1</clus>
<clus scale="   79.769">  5  6 -1 -1</clus>
<clus scale="   90.704">  7  8 -1 -1</clus>
<clus scale="  114.376">  1  5  2 -1</clus>
<clus scale="   26.545">  1  5  2 -1</clus>
</clustering>
</event>
<event>
 9    1  0.3197504E-005  0.1425402E+03  0.7546771E-02  0.1236384E+00
         21   -1    0    0  501  502  0.00000000000E+00  0.00000000000E+00  0.24747884159E+03  0.24747884159E+03  0.00000000000E+00 0.  1.
         -2   -1    0    0    0  501 -0.00000000000E+00 -0.00000000000E+00 -0.19341083495E+03  0.19341083495E+03  0.00000000000E+00 0.  1.
        -24    2    1    2    0    0  0.12253253782E+02 -0.33903678492E+01 -0.94495877050E+02  0.12515596264E+03  0.81073469035E+02 0.  0.
         23    2    1    2    0    0 -0.48699401212E+02 -0.99887273178E+02  0.14848395177E+03  0.20621385639E+03  0.90153045515E+02 0.  0.
         13    1    3    3    0    0 -0.17810932367E+02 -0.14100221187E+02 -0.90124231711E+02  0.92943115349E+02  0.00000000000E+00 0. -1.
        -14    1    3    3    0    0  0.30064186149E+02  0.10709853338E+02 -0.43716453394E+01  0.32212847286E+02  0.00000000000E+00 0.  1.
        -11    1    4    4    0    0 -0.72235225812E+02 -0.94062379609E+02  0.11850911417E+03  0.16766057750E+03  0.00000000000E+00 0.  1.
         11    1    4    4    0    0  0.23535824600E+02 -0.58248935688E+01  0.29974837598E+02  0.38553278897E+02  0.00000000000E+00 0. -1.
         -1    1    1    2    0  502  0.36446147430E+02  0.10327764103E+03  0.79931921291E-01  0.10951985750E+03  0.00000000000E+00 0.  1.
<scales pt_clust_5="13000.00000" pt_clust_6="13000.00000" pt_clust_7="13000.00000" pt_clust_8="13000.00000" pt_clust_9="110.40899"></scales>
<clustering>
<clus scale="   81.073">  5  6 -1 -1</clus>
<clus scale="   82.064">  2  5  1 -1</clus>
<clus scale="   90.153">  7  8 -1 -1</clus>
<clus scale="  110.409">  1  9  2 -1</clus>
<clus scale="  110.409">  1  5  2 -1</clus>
</clustering>
</event>
<event>
 9    1  0.3197504E-005  0.1426866E+03  0.7546771E-02  0.1233752E+00
         21   -1    0    0  501  502  0.00000000000E+00  0.00000000000E+00  0.56073965658E+02  0.56073965658E+02  0.00000000000E+00 0.  1.
         -2   -1    0    0    0  501 -0.00000000000E+00 -0.00000000000E+00 -0.59610031664E+03  0.59610031664E+03  0.00000000000E+00 0.  1.
        -24    2    1    2    0    0  0.23794766380E+02  0.19012240584E+02 -0.10700180843E+03  0.13749201721E+03  0.80789922578E+02 0.  0.
         23    2    1    2    0    0  0.20488273316E+02 -0.11225695488E+03 -0.13416584443E+03  0.19849863839E+03  0.91541478945E+02 0.  0.
         13    1    3    3    0    0  0.18697186487E+01 -0.22070056041E+02 -0.81383200297E+02  0.84343396374E+02  0.00000000000E+00 0. -1.
        -14    1    3    3    0    0  0.21925047732E+02  0.41082296625E+02 -0.25618608131E+02  0.53148620834E+02  0.00000000000E+00 0.  1.
        -13    1    4    4    0    0 -0.12716438506E+02 -0.11174397686E+03 -0.95614909153E+02  0.14761651339E+03  0.00000000000E+00 0.  1.
         13    1    4    4    0    0  0.33204711822E+02 -0.51297802149E+00 -0.38550935280E+02  0.50882125000E+02  0.00000000000E+00 0. -1.
         -1    1    1    2    0  502 -0.44283039696E+02  0.93244714298E+02 -0.29885869812E+03  0.31618362670E+03  0.00000000000E+00 0.  1.
<scales pt_clust_5="13000.00000" pt_clust_6="13000.00000" pt_clust_7="13000.00000" pt_clust_8="13000.00000" pt_clust_9="109.45148"></scales>
<clustering>
<clus scale="   80.790">  5  6 -1 -1</clus>
<clus scale="   86.340">  2  5  1 -1</clus>
<clus scale="   91.541">  7  8 -1 -1</clus>
<clus scale="  109.451">  1  9  2 -1</clus>
<clus scale="  109.451">  1  5  2 -1</clus>
</clustering>
</event>
<event>
 9    1  0.3197504E-005  0.4062090E+03  0.7546771E-02  0.1041822E+00
         21   -1    0    0  501  502  0.00000000000E+00  0.00000000000E+00  0.20128718647E+03  0.20128718647E+03  0.00000000000E+00 0.  1.
          1   -1    0    0  502    0 -0.00000000000E+00 -0.00000000000E+00 -0.11493427771E+04  0.11493427771E+04  0.00000000000E+00 0. -1.
         23    2    1    2    0    0  0.42075571830E+03  0.73908628478E+02 -0.70447601645E+03  0.82873689928E+03  0.89557415268E+02 0.  0.
        -24    2    1    2    0    0 -0.32947649125E+03 -0.56259237773E+02 -0.11334693839E+03  0.36188075942E+03  0.79939323713E+02 0.  0.
         13    1    4    4    0    0 -0.15213992121E+03 -0.45790700137E+02 -0.90291936598E+02  0.18274566386E+03  0.00000000000E+00 0. -1.
        -14    1    4    4    0    0 -0.17733657004E+03 -0.10468537636E+02 -0.23055001787E+02  0.17913509556E+03  0.00000000000E+00 0.  1.
        -11    1    3    3    0    0  0.10685727853E+03  0.58259257082E+02 -0.21459307909E+03  0.24670388850E+03  0.00000000000E+00 0.  1.
         11    1    3    3    0    0  0.31389843977E+03  0.15649371396E+02 -0.48988293736E+03  0.58203301077E+03  0.00000000000E+00 0. -1.
          2    1    1    2  501    0 -0.91279227053E+02 -0.17649390705E+02 -0.13023263584E+03  0.16001230491E+03  0.00000000000E+00 0. -1.
<scales pt_clust_5="13000.00000" pt_clust_6="13000.00000" pt_clust_7="13000.00000" pt_clust_8="13000.00000" pt_clust_9="92.96992"></scales>
<clustering>
<clus scale="   79.939">  5  6 -1 -1</clus>
<clus scale="   89.557">  7  8 -1 -1</clus>
<clus scale="   92.970">  1  9  2 -1</clus>
<clus scale="  404.197">  1  5  2 -1</clus>
<clus scale="   92.970">  1  5  2 -1</clus>
</clustering>
</event>
<event>
 9    1  0.3197504E-005  0.1027001E+03  0.7546771E-02  0.1279850E+00
         21   -1    0    0  501  502  0.00000000000E+00  0.00000000000E+00  0.11522269762E+03  0.11522269762E+03  0.00000000000E+00 0.  1.
         -4   -1    0    0    0  501 -0.00000000000E+00 -0.00000000000E+00 -0.13776625050E+03  0.13776625050E+03  0.00000000000E+00 0.  1.
         23    2    1    2    0    0 -0.58962419719E+02 -0.37816734825E+01 -0.61309966882E+02  0.12471464597E+03  0.91126082358E+02 0.  0.
        -24    2    1    2    0    0  0.23451699164E+02  0.14833384535E+02  0.30776870951E+02  0.90235054130E+02  0.80156956765E+02 0.  0.
         11    1    4    4    0    0  0.43823217006E+02  0.27022882444E+02  0.15068905305E+00  0.51485271987E+02  0.00000000000E+00 0. -1.
        -12    1    4    4    0    0 -0.20371517842E+02 -0.12189497909E+02  0.30626181898E+02  0.38749782143E+02  0.00000000000E+00 0.  1.
        -11    1    3    3    0    0 -0.68847509388E+02  0.25889175775E+02 -0.57187466247E+02  0.93169926838E+02  0.00000000000E+00 0.  1.
         11    1    3    3    0    0  0.98850896691E+01 -0.29670849257E+02 -0.41225006358E+01  0.31544719129E+02  0.00000000000E+00 0. -1.
         -3    1    1    2    0  502  0.35510720555E+02 -0.11051711053E+02  0.79895430510E+01  0.38039248017E+02  0.00000000000E+00 0.  1.
<scales pt_clust_5="13000.00000" pt_clust_6="13000.00000" pt_clust_7="13000.00000" pt_clust_8="13000.00000" pt_clust_9="37.19075"></scales>
<clustering>
<clus scale="   37.191">  1  9  2 -1</clus>
<clus scale="   80.157">  5  6 -1 -1</clus>
<clus scale="   91.126">  7  8 -1 -1</clus>
<clus scale="   93.105">  1  5  2 -1</clus>
<clus scale="   37.191">  1  5  2 -1</clus>
</clustering>
</event>
<event>
 9    1  0.3429881E-005  0.9849690E+02  0.7546771E-02  0.1289675E+00
         21   -1    0    0  501  502  0.00000000000E+00  0.00000000000E+00  0.34911952424E+03  0.34911952424E+03  0.00000000000E+00 0.  1.
          1   -1    0    0  502    0 -0.00000000000E+00 -0.00000000000E+00 -0.95319825720E+02  0.95319825720E+02  0.00000000000E+00 0. -1.
         23    2    1    2    0    0  0.34160456395E+02  0.21562403443E+01 -0.51295095866E+02  0.11076454781E+03  0.92010934335E+02 0.  0.
        -24    2    1    2    0    0 -0.36573355843E+02 -0.36627714511E+02  0.17866823458E+03  0.20261077338E+03  0.80309324570E+02 0.  0.
         11    1    4    4    0    0  0.25357468695E+02 -0.15698575046E+02  0.48183581985E+02  0.56666604363E+02  0.00000000000E+00 0. -1.
        -12    1    4    4    0    0 -0.61930824538E+02 -0.20929139466E+02  0.13048465260E+03  0.14594416902E+03  0.00000000000E+00 0.  1.
        -11    1    3    3    0    0  0.33392633024E+02  0.44132297552E+02 -0.21918760179E+02  0.59524446031E+02  0.00000000000E+00 0. -1.
         11    1    3    3    0    0  0.76782337058E+00 -0.41976057208E+02 -0.29376335687E+02  0.51240101774E+02  0.00000000000E+00 0.  1.
          2    1    1    2  501    0  0.24128994481E+01  0.34471474167E+02  0.12642655980E+03  0.13106402877E+03  0.00000000000E+00 0. -1.
<scales pt_clust_5="13000.00000" pt_clust_6="13000.00000" pt_clust_7="13000.00000" pt_clust_8="13000.00000" pt_clust_9="34.55582"></scales>
<clustering>
<clus scale="   34.556">  1  9  2 -1</clus>
<clus scale="   80.309">  5  6 -1 -1</clus>
<clus scale="   87.665">  1  5  2 -1</clus>
<clus scale="   92.011">  7  8 -1 -1</clus>
<clus scale="   34.556">  1  5  2 -1</clus>
</clustering>
</event>
<event>
 9    1  0.3197504E-005  0.1637242E+03  0.7546771E-02  0.1216387E+00
         21   -1    0    0  501  502  0.00000000000E+00  0.00000000000E+00  0.11502443009E+03  0.11502443009E+03  0.00000000000E+00 0.  1.
         -2   -1    0    0    0  501 -0.00000000000E+00 -0.00000000000E+00 -0.64558942394E+03  0.64558942394E+03  0.00000000000E+00 0.  1.
        -24    2    1    2    0    0  0.10873898147E+02  0.75898559507E+01  0.25655830834E+02  0.85961461857E+02  0.80964829986E+02 0.  0.
         23    2    1    2    0    0 -0.13205402714E+03 -0.63949992131E+02 -0.50108126555E+03  0.53007902119E+03  0.91506646997E+02 0.  0.
         11    1    3    3    0    0  0.50708880924E+01  0.32079835415E+02 -0.16830558999E+02  0.36580014523E+02  0.00000000000E+00 0. -1.
        -12    1    3    3    0    0  0.58030100545E+01 -0.24489979464E+02  0.42486389832E+02  0.49381447334E+02  0.00000000000E+00 0.  1.
        -13    1    4    4    0    0 -0.11129826975E+03 -0.28304042183E+02 -0.45000097818E+03  0.46442362560E+03  0.00000000000E+00 0.  1.
         13    1    4    4    0    0 -0.20755757389E+02 -0.35645949948E+02 -0.51080287376E+02  0.65655395596E+02  0.00000000000E+00 0. -1.
         -1    1    1    2    0  502  0.12118012899E+03  0.56360136180E+02 -0.55139559130E+02  0.14457337097E+03  0.00000000000E+00 0.  1.
<scales pt_clust_5="13000.00000" pt_clust_6="13000.00000" pt_clust_7="13000.00000" pt_clust_8="13000.00000" pt_clust_9="135.76499"></scales>
<clustering>
<clus scale="   80.965">  5  6 -1 -1</clus>
<clus scale="   82.044">  2  5  1 -1</clus>
<clus scale="   91.507">  7  8 -1 -1</clus>
<clus scale="  135.765">  1  9  2 -1</clus>
<clus scale="  135.765">  1  5  2 -1</clus>
</clustering>
</event>
<event>
 9    1  0.3197504E-005  0.9539496E+02  0.7546771E-02  0.1297418E+00
         21   -1    0    0  501  502  0.00000000000E+00  0.00000000000E+00  0.25509209250E+03  0.25509209250E+03  0.00000000000E+00 0.  1.
          1   -1    0    0  502    0 -0.00000000000E+00 -0.00000000000E+00 -0.11215450425E+03  0.11215450425E+03  0.00000000000E+00 0. -1.
        -24    2    1    2    0    0 -0.30004568049E+02 -0.10571300870E+02 -0.74139006847E+01  0.85995869414E+02  0.79550594762E+02 0.  0.
         23    2    1    2    0    0 -0.22030080135E+02  0.29764499114E+02  0.18916838159E+03  0.21355482920E+03  0.91922459935E+02 0.  0.
         13    1    3    3    0    0  0.26313642258E+02 -0.91888837824E+01  0.49803666075E+01  0.28313378562E+02  0.00000000000E+00 0. -1.
        -14    1    3    3    0    0 -0.56318210307E+02 -0.13824170880E+01 -0.12394267292E+02  0.57682490852E+02  0.00000000000E+00 0.  1.
        -11    1    4    4    0    0 -0.49205136460E+02  0.37665657028E+02  0.16529983503E+03  0.17653295056E+03  0.00000000000E+00 0.  1.
         11    1    4    4    0    0  0.27175056325E+02 -0.79011579134E+01  0.23868546567E+02  0.37021878638E+02  0.00000000000E+00 0. -1.
          2    1    1    2  501    0  0.52034648184E+02 -0.19193198244E+02 -0.38816892659E+02  0.67695898148E+02  0.00000000000E+00 0. -1.
<scales pt_clust_5="13000.00000" pt_clust_6="13000.00000" pt_clust_7="13000.00000" pt_clust_8="13000.00000" pt_clust_9="55.46158"></scales>
<clustering>
<clus scale="   55.462">  1  9  2 -1</clus>
<clus scale="   79.551">  5  6 -1 -1</clus>
<clus scale="   83.539">  2  5  1 -1</clus>
<clus scale="   91.922">  7  8 -1 -1</clus>
<clus scale="   55.462">  1  5  2 -1</clus>
</clustering>
</event>
<event>
 9    1  0.3197504E-005  0.1120486E+03  0.7546771E-02  0.1257926E+00
         21   -1    0    0  501  502  0.00000000000E+00  0.00000000000E+00  0.12356452638E+03  0.12356452638E+03  0.00000000000E+00 0. -1.
          3   -1    0    0  502    0 -0.00000000000E+00 -0.00000000000E+00 -0.25470313565E+03  0.25470313565E+03  0.00000000000E+00 0. -1.
         23    2    1    2    0    0 -0.50732841259E+02 -0.43087852508E+02 -0.12120898817E+03  0.16912935785E+03  0.97379344093E+02 0.  0.
        -24    2    1    2    0    0 -0.34355443241E+02  0.60239511687E+02  0.16406163031E+02  0.11843125320E+03  0.94592305720E+02 0.  0.
         13    1    4    4    0    0 -0.56808822872E+02  0.54144973089E+01  0.42071937545E+00  0.57067820548E+02  0.00000000000E+00 0. -1.
        -14    1    4    4    0    0  0.22453379632E+02  0.54825014379E+02  0.15985443655E+02  0.61363432656E+02  0.00000000000E+00 0.  1.
        -11    1    3    3    0    0  0.21540562219E+02 -0.58170000752E+01  0.10043080248E+01  0.22334769871E+02  0.00000000000E+00 0.  1.
         11    1    3    3    0    0 -0.72273403478E+02 -0.37270852433E+02 -0.12221329620E+03  0.14679458798E+03  0.00000000000E+00 0. -1.
          4    1    1    2  501    0  0.85088284499E+02 -0.17151659179E+02 -0.26335784120E+02  0.90707050977E+02  0.00000000000E+00 0. -1.
<scales pt_clust_5="13000.00000" pt_clust_6="13000.00000" pt_clust_7="13000.00000" pt_clust_8="13000.00000" pt_clust_9="86.79974"></scales>
<clustering>
<clus scale="   86.800">  1  9  2 -1</clus>
<clus scale="   94.592">  5  6 -1 -1</clus>
<clus scale="   97.379">  7  8 -1 -1</clus>
<clus scale="  109.635">  1  5  2 -1</clus>
<clus scale="   86.800">  1  5  2 -1</clus>
</clustering>
</event>
<event>
 9    1  0.3197504E-005  0.1013725E+03  0.7546771E-02  0.1283834E+00
          3   -1    0    0  502    0 -0.00000000000E+00  0.00000000000E+00  0.31458941850E+03  0.31458941850E+03  0.00000000000E+00 0. -1.
         21   -1    0    0  501  502  0.00000000000E+00 -0.00000000000E+00 -0.57698224557E+02  0.57698224557E+02  0.00000000000E+00 0.  1.
         23    2    1    2    0    0 -0.12749479030E+02  0.40987029428E+02  0.23225928204E+03  0.25358083193E+03  0.92284226338E+02 0.  0.
        -24    2    1    2    0    0  0.31652412122E+02 -0.29582817827E+02  0.31249314479E+02  0.95659751905E+02  0.79355215175E+02 0.  0.
         11    1    4    4    0    0 -0.17039903001E+02 -0.25936028116E+02 -0.90754137002E+01  0.32332630307E+02  0.00000000000E+00 0. -1.
        -12    1    4    4    0    0  0.48692315123E+02 -0.36467897114E+01  0.40324728179E+02  0.63327121598E+02  0.00000000000E+00 0.  1.
        -13    1    3    3    0    0 -0.15443836958E+02 -0.23906838430E+02  0.30920918642E+02  0.42025614015E+02  0.00000000000E+00 0.  1.
         13    1    3    3    0    0  0.26943579277E+01  0.64893867858E+02  0.20133836340E+03  0.21155521792E+03  0.00000000000E+00 0. -1.
          4    1    1    2  501    0 -0.18902933092E+02 -0.11404211600E+02 -0.66174025815E+01  0.23047059218E+02  0.00000000000E+00 0. -1.
<scales pt_clust_5="13000.00000" pt_clust_6="13000.00000" pt_clust_7="13000.00000" pt_clust_8="13000.00000" pt_clust_9="22.07661"></scales>
<clustering>
<clus scale="   22.077">  2  9  1 -1</clus>
<clus scale="   79.355">  5  6 -1 -1</clus>
<clus scale="   89.762">  2  5  1 -1</clus>
<clus scale="   92.284">  7  8 -1 -1</clus>
<clus scale="   22.077">  2  5  1 -1</clus>
</clustering>
</event>
<event>
 9    1  0.3197504E-005  0.1054095E+03  0.7546771E-02  0.1273274E+00
         21   -1    0    0  501  502  0.00000000000E+00  0.00000000000E+00  0.23163252548E+03  0.23163252548E+03  0.00000000000E+00 0. -1.
          1   -1    0    0  502    0 -0.00000000000E+00 -0.00000000000E+00 -0.12923711336E+03  0.12923711336E+03  0.00000000000E+00 0. -1.
        -24    2    1    2    0    0  0.36759182929E+02  0.23316683658E+02 -0.45715376086E+02  0.10891628236E+03  0.88757848592E+02 0.  0.
         23    2    1    2    0    0 -0.81574119044E+01 -0.29590905644E+02  0.18111016126E+03  0.20783549401E+03  0.97224158481E+02 0.  0.
         11    1    3    3    0    0  0.56983150665E+02  0.39904163467E+02 -0.44801176667E+02  0.82743985597E+02  0.00000000000E+00 0. -1.
        -12    1    3    3    0    0 -0.20223967736E+02 -0.16587479809E+02 -0.91419941870E+00  0.26172296766E+02  0.00000000000E+00 0.  1.
        -11    1    4    4    0    0  0.38963815403E+02 -0.18969791006E+02  0.13208249427E+03  0.13901013335E+03  0.00000000000E+00 0. -1.
         11    1    4    4    0    0 -0.47121227308E+02 -0.10621114639E+02  0.49027666988E+02  0.68825360656E+02  0.00000000000E+00 0.  1.
          2    1    1    2  501    0 -0.28601771024E+02  0.62742219862E+01 -0.32999373047E+02  0.44117862468E+02  0.00000000000E+00 0. -1.
<scales pt_clust_5="13000.00000" pt_clust_6="13000.00000" pt_clust_7="13000.00000" pt_clust_8="13000.00000" pt_clust_9="29.28187"></scales>
<clustering>
<clus scale="   29.282">  1  9  2 -1</clus>
<clus scale="   88.758">  5  6 -1 -1</clus>
<clus scale="   97.224">  7  8 -1 -1</clus>
<clus scale="   97.655">  2  5  1 -1</clus>
<clus scale="   29.282">  1  5  2 -1</clus>
</clustering>
</event>
<event>
 9    1  0.3197504E-005  0.1061002E+03  0.7546771E-02  0.1272132E+00
          1   -1    0    0  502    0 -0.00000000000E+00  0.00000000000E+00  0.17465615942E+03  0.17465615942E+03  0.00000000000E+00 0. -1.
         21   -1    0    0  501  502  0.00000000000E+00 -0.00000000000E+00 -0.10786385794E+03  0.10786385794E+03  0.00000000000E+00 0.  1.
        -24    2    1    2    0    0  0.16566891874E+02  0.56623800534E+02  0.10865443161E+03  0.14753162038E+03  0.80492712777E+02 0.  0.
         23    2    1    2    0    0  0.61808869461E+01 -0.45792488076E+02 -0.42017533795E+02  0.10979310137E+03  0.90298929307E+02 0.  0.
         11    1    3    3    0    0  0.37154579532E+02  0.67048186200E+02  0.81180133722E+02  0.11165185249E+03  0.00000000000E+00 0. -1.
        -12    1    3    3    0    0 -0.20587687657E+02 -0.10424385666E+02  0.27474297884E+02  0.35879767890E+02  0.00000000000E+00 0.  1.
        -11    1    4    4    0    0  0.45316464015E+02 -0.40057974449E+02 -0.34171947240E+02  0.69469023356E+02  0.00000000000E+00 0.  1.
         11    1    4    4    0    0 -0.39135577069E+02 -0.57345136268E+01 -0.78455865543E+01  0.40324078011E+02  0.00000000000E+00 0. -1.
          2    1    1    2  501    0 -0.22747778821E+02 -0.10831312458E+02  0.15540367751E+00  0.25195295615E+02  0.00000000000E+00 0. -1.
<scales pt_clust_5="13000.00000" pt_clust_6="13000.00000" pt_clust_7="13000.00000" pt_clust_8="13000.00000" pt_clust_9="25.19482"></scales>
<clustering>
<clus scale="   25.195">  2  9  1 -1</clus>
<clus scale="   80.493">  5  6 -1 -1</clus>
<clus scale="   90.299">  7  8 -1 -1</clus>
<clus scale="   97.890">  1  5  2 -1</clus>
<clus scale="   25.195">  2  5  1 -1</clus>
</clustering>
</event>
<event>
 9    1  0.3197504E-005  0.8987606E+02  0.7546771E-02  0.1305817E+00
         21   -1    0    0  501  502  0.00000000000E+00  0.00000000000E+00  0.18911357715E+03  0.18911357715E+03  0.00000000000E+00 0. -1.
         -2   -1    0    0    0  501 -0.00000000000E+00 -0.00000000000E+00 -0.40418769527E+03  0.40418769527E+03  0.00000000000E+00 0.  1.
        -24    2    1    2    0    0 -0.25504923930E+01  0.25983205756E+02 -0.38274377087E+03  0.39224215531E+03  0.81728099625E+02 0.  0.
         23    2    1    2    0    0  0.12054809722E+02 -0.52070738174E+01  0.12154386808E+03  0.14958516528E+03  0.86199638912E+02 0.  0.
         11    1    3    3    0    0  0.36144157597E+02  0.16949460208E+02 -0.11889471091E+03  0.12541784806E+03  0.00000000000E+00 0. -1.
        -12    1    3    3    0    0 -0.38694649990E+02  0.90337455484E+01 -0.26384905997E+03  0.26682430725E+03  0.00000000000E+00 0.  1.
        -13    1    4    4    0    0 -0.17521731090E+02  0.29118844388E+02  0.84436787177E+02  0.91019169342E+02  0.00000000000E+00 0.  1.
         13    1    4    4    0    0  0.29576540812E+02 -0.34325918206E+02  0.37107080906E+02  0.58565995940E+02  0.00000000000E+00 0. -1.
         -1    1    1    2    0  502 -0.95043173289E+01 -0.20776131939E+02  0.46125784670E+02  0.51473951837E+02  0.00000000000E+00 0.  1.
<scales pt_clust_5="13000.00000" pt_clust_6="13000.00000" pt_clust_7="13000.00000" pt_clust_8="13000.00000" pt_clust_9="22.84688"></scales>
<clustering>
<clus scale="   22.847">  1  9  2 -1</clus>
<clus scale="   81.728">  5  6 -1 -1</clus>
<clus scale="   85.597">  2  5  1 -1</clus>
<clus scale="   86.200">  7  8 -1 -1</clus>
<clus scale="   22.847">  1  5  2 -1</clus>
</clustering>
</event>
<event>
 9    1  0.3197504E-005  0.1084321E+03  0.7546771E-02  0.1267564E+00
          1   -1    0    0  502    0 -0.00000000000E+00  0.00000000000E+00  0.66555923378E+02  0.66555923378E+02  0.00000000000E+00 0. -1.
         21   -1    0    0  501  502  0.00000000000E+00 -0.00000000000E+00 -0.39281372253E+03  0.39281372253E+03  0.00000000000E+00 0. -1.
        -24    2    1    2    0    0  0.35241507074E+02  0.94527526408E+01 -0.51354431390E+02  0.10175079563E+03  0.79903869959E+02 0.  0.
         23    2    1    2    0    0 -0.98479809041E+02 -0.51299138987E+02 -0.12616437388E+03  0.19066529031E+03  0.90032934211E+02 0.  0.
         11    1    3    3    0    0  0.57417810730E+02  0.83488041134E+01 -0.54158912494E+02  0.79370620016E+02  0.00000000000E+00 0. -1.
        -12    1    3    3    0    0 -0.22176303656E+02  0.11039485274E+01  0.28044811043E+01  0.22380175613E+02  0.00000000000E+00 0.  1.
        -13    1    4    4    0    0 -0.52255469364E+02 -0.30764600487E+02 -0.67908738380E+01  0.61018117712E+02  0.00000000000E+00 0. -1.
         13    1    4    4    0    0 -0.46224339677E+02 -0.20534538499E+02 -0.11937350005E+03  0.12964717260E+03  0.00000000000E+00 0.  1.
          2    1    1    2  501    0  0.63238301967E+02  0.41846386346E+02 -0.14873899388E+03  0.16695355997E+03  0.00000000000E+00 0. -1.
<scales pt_clust_5="13000.00000" pt_clust_6="13000.00000" pt_clust_7="13000.00000" pt_clust_8="13000.00000" pt_clust_9="75.83009"></scales>
<clustering>
<clus scale="   75.830">  2  9  1 -1</clus>
<clus scale="   79.904">  5  6 -1 -1</clus>
<clus scale="   90.033">  7  8 -1 -1</clus>
<clus scale="  100.181">  1  5  2 -1</clus>
<clus scale="   75.830">  2  5  1 -1</clus>
</clustering>
</event>
<event>
 9    1  0.3197504E-005  0.1371828E+03  0.7546771E-02  0.1219957E+00
         21   -1    0    0  501  502  0.00000000000E+00  0.00000000000E+00  0.56832927745E+03  0.56832927745E+03  0.00000000000E+00 0.  1.
         -4   -1    0    0    0  501 -0.00000000000E+00 -0.00000000000E+00 -0.68129475902E+02  0.68129475902E+02  0.00000000000E+00 0.  1.
         23    2    1    2    0    0 -0.92051477375E+02  0.53061548553E+02  0.33049941845E+02  0.14333603665E+03  0.90354404011E+02 0.  0.
        -24    2    1    2    0    0  0.63627467976E+02 -0.65992642562E+02  0.41722384797E+03  0.43423516157E+03  0.77980463405E+02 0.  0.
         11    1    4    4    0    0  0.40775582403E+02  0.50601814628E+01  0.20994756084E+03  0.21393043697E+03  0.00000000000E+00 0. -1.
        -12    1    4    4    0    0  0.22851885573E+02 -0.71052824025E+02  0.20727628712E+03  0.22030472460E+03  0.00000000000E+00 0.  1.
        -11    1    3    3    0    0 -0.88197209790E+02  0.20218069081E+02 -0.77516491915E+01  0.90816332217E+02  0.00000000000E+00 0.  1.
         11    1    3    3    0    0 -0.38542675854E+01  0.32843479472E+02  0.40801591036E+02  0.52519704431E+02  0.00000000000E+00 0. -1.
         -3    1    1    2    0  502  0.28424009400E+02  0.12931094009E+02  0.49926011738E+02  0.58887555143E+02  0.00000000000E+00 0.  1.
<scales pt_clust_5="13000.00000" pt_clust_6="13000.00000" pt_clust_7="13000.00000" pt_clust_8="13000.00000" pt_clust_9="31.22719"></scales>
<clustering>
<clus scale="   31.227">  1  9  2 -1</clus>
<clus scale="   77.980">  5  6 -1 -1</clus>
<clus scale="   90.354">  7  8 -1 -1</clus>
<clus scale="  129.368">  1  5  2 -1</clus>
<clus scale="   31.227">  1  5  2 -1</clus>
</clustering>
</event>
<event>
 9    1  0.3197504E-005  0.9129743E+02  0.7546771E-02  0.1307204E+00
         21   -1    0    0  501  502  0.00000000000E+00  0.00000000000E+00  0.21643889050E+02  0.21643889050E+02  0.00000000000E+00 0. -1.
          1   -1    0    0  502    0 -0.00000000000E+00 -0.00000000000E+00 -0.76088197020E+03  0.76088197020E+03  0.00000000000E+00 0. -1.
         23    2    1    2    0    0 -0.24647151821E+02  0.28383574860E+01 -0.38648623145E+03  0.39734829271E+03  0.88873619522E+02 0.  0.
        -24    2    1    2    0    0  0.12909435682E+01  0.44172073254E+02 -0.13729024019E+03  0.16341373217E+03  0.76828375107E+02 0.  0.
         11    1    4    4    0    0 -0.21494805119E+02  0.37944068883E+02 -0.28518107716E+02  0.52106251815E+02  0.00000000000E+00 0. -1.
        -12    1    4    4    0    0  0.22785748688E+02  0.62280043709E+01 -0.10877213247E+03  0.11130748036E+03  0.00000000000E+00 0.  1.
        -13    1    3    3    0    0 -0.13232172959E+01 -0.39123534909E+02 -0.11076986789E+03  0.11748346914E+03  0.00000000000E+00 0.  1.
         13    1    3    3    0    0 -0.23323934525E+02  0.41961892395E+02 -0.27571636356E+03  0.27986482357E+03  0.00000000000E+00 0. -1.
          2    1    1    2  501    0  0.23356208253E+02 -0.47010430740E+02 -0.21546160951E+03  0.22176383437E+03  0.00000000000E+00 0. -1.
<scales pt_clust_5="13000.00000" pt_clust_6="13000.00000" pt_clust_7="13000.00000" pt_clust_8="13000.00000" pt_clust_9="52.49282"></scales>
<clustering>
<clus scale="   52.493">  1  9  2 -1</clus>
<clus scale="   76.828">  5  6 -1 -1</clus>
<clus scale="   79.620">  1  5  2 -1</clus>
<clus scale="   88.874">  7  8 -1 -1</clus>
<clus scale="   52.493">  1  5  2 -1</clus>
</clustering>
</event>
<event>
 9    1  0.3197504E-005  0.1001928E+03  0.7546771E-02  0.1281212E+00
         21   -1    0    0  501  502  0.00000000000E+00  0.00000000000E+00  0.74122606590E+02  0.74122606590E+02  0.00000000000E+00 0. -1.
          1   -1    0    0  502    0 -0.00000000000E+00 -0.00000000000E+00 -0.25618549602E+03  0.25618549602E+03  0.00000000000E+00 0. -1.
         23    2    1    2    0    0 -0.11073543350E+02 -0.41647692909E+02 -0.12214043594E+03  0.15731369036E+03  0.89286938563E+02 0.  0.
        -24    2    1    2    0    0 -0.25366849668E+02  0.50562856172E+02 -0.79770863648E+02  0.13055219546E+03  0.86489337877E+02 0.  0.
         13    1    4    4    0    0 -0.45831693296E+02  0.64047734981E+02 -0.58602462538E+02  0.98167739518E+02  0.00000000000E+00 0. -1.
        -14    1    4    4    0    0  0.20464843628E+02 -0.13484878809E+02 -0.21168401110E+02  0.32384455944E+02  0.00000000000E+00 0.  1.
        -13    1    3    3    0    0 -0.47346019000E+02 -0.35550622758E+02 -0.55271699863E+02  0.80996624000E+02  0.00000000000E+00 0. -1.
         13    1    3    3    0    0  0.36272475650E+02 -0.60970701508E+01 -0.66868736074E+02  0.76317066363E+02  0.00000000000E+00 0.  1.
          2    1    1    2  501    0  0.36440393018E+02 -0.89151632636E+01  0.19848410160E+02  0.42442216780E+02  0.00000000000E+00 0. -1.
<scales pt_clust_5="13000.00000" pt_clust_6="13000.00000" pt_clust_7="13000.00000" pt_clust_8="13000.00000" pt_clust_9="37.51510"></scales>
<clustering>
<clus scale="   37.515">  1  9  2 -1</clus>
<clus scale="   86.489">  5  6 -1 -1</clus>
<clus scale="   89.287">  7  8 -1 -1</clus>
<clus scale="   97.708">  1  5  2 -1</clus>
<clus scale="   37.515">  1  5  2 -1</clus>
</clustering>
</event>
<event>
 9    1  0.3197504E-005  0.9595131E+02  0.7546771E-02  0.1295143E+00
         -4   -1    0    0    0  501 -0.00000000000E+00  0.00000000000E+00  0.66959399390E+02  0.66959399390E+02  0.00000000000E+00 0.  1.
         21   -1    0    0  501  502  0.00000000000E+00 -0.00000000000E+00 -0.24627343581E+03  0.24627343581E+03  0.00000000000E+00 0.  1.
         23    2    1    2    0    0  0.30237740304E+02  0.17239003499E+01 -0.13908473970E+02  0.98227834122E+02  0.92401130822E+02 0.  0.
        -24    2    1    2    0    0 -0.46722946237E+01 -0.38685975604E+02 -0.92632095062E+02  0.12947275818E+03  0.81633663574E+02 0.  0.
         11    1    4    4    0    0  0.28521587960E+02  0.21789701623E+01 -0.78298961254E+01  0.29656974965E+02  0.00000000000E+00 0. -1.
        -12    1    4    4    0    0 -0.33193882584E+02 -0.40864945766E+02 -0.84802198937E+02  0.99815783211E+02  0.00000000000E+00 0.  1.
        -13    1    3    3    0    0 -0.67665655961E+01 -0.38225155426E+02  0.78190620299E+01  0.39599073832E+02  0.00000000000E+00 0.  1.
         13    1    3    3    0    0  0.37004305900E+02  0.39949055776E+02 -0.21727535999E+02  0.58628760290E+02  0.00000000000E+00 0. -1.
         -3    1    1    2    0  502 -0.25565445680E+02  0.36962075254E+02 -0.72773467386E+02  0.85532242899E+02  0.00000000000E+00 0.  1.
<scales pt_clust_5="13000.00000" pt_clust_6="13000.00000" pt_clust_7="13000.00000" pt_clust_8="13000.00000" pt_clust_9="44.94204"></scales>
<clustering>
<clus scale="   44.942">  2  9  1 -1</clus>
<clus scale="   81.634">  5  6 -1 -1</clus>
<clus scale="   85.631">  2  5  1 -1</clus>
<clus scale="   92.401">  7  8 -1 -1</clus>
<clus scale="   44.942">  2  5  1 -1</clus>
</clustering>
</event>
<event>
 9    1  0.3197504E-005  0.1512334E+03  0.7546771E-02  0.1219954E+00
          1   -1    0    0  502    0 -0.00000000000E+00  0.00000000000E+00  0.11073215756E+03  0.11073215756E+03  0.00000000000E+00 0. -1.
         21   -1    0    0  501  502  0.00000000000E+00 -0.00000000000E+00 -0.37842734255E+03  0.37842734255E+03  0.00000000000E+00 0. -1.
         23    2    1    2    0    0 -0.86519803286E+01 -0.21640167536E+02 -0.42888050544E+02  0.10565987662E+03  0.93709503432E+02 0.  0.
        -24    2    1    2    0    0  0.54228613414E+02 -0.10957205736E+03 -0.19012039505E+03  0.24033172438E+03  0.81650443118E+02 0.  0.
         11    1    4    4    0    0  0.13011042702E+02 -0.55161854282E+02 -0.25553457276E+02  0.62169900907E+02  0.00000000000E+00 0. -1.
        -12    1    4    4    0    0  0.41217570712E+02 -0.54410203082E+02 -0.16456693777E+03  0.17816182347E+03  0.00000000000E+00 0.  1.
        -11    1    3    3    0    0 -0.47152712753E+02 -0.84722513926E+01 -0.43867497307E+02  0.64957791555E+02  0.00000000000E+00 0. -1.
         11    1    3    3    0    0  0.38500732425E+02 -0.13167916143E+02  0.97944676341E+00  0.40702085066E+02  0.00000000000E+00 0.  1.
          2    1    1    2  501    0 -0.45576633085E+02  0.13121222490E+03 -0.34686739390E+02  0.14316789911E+03  0.00000000000E+00 0. -1.
<scales pt_clust_5="13000.00000" pt_clust_6="13000.00000" pt_clust_7="13000.00000" pt_clust_8="13000.00000" pt_clust_9="127.29793"></scales>
<clustering>
<clus scale="   81.650">  5  6 -1 -1</clus>
<clus scale="   93.710">  7  8 -1 -1</clus>
<clus scale="   96.564">  1  7  2 -1</clus>
<clus scale="  127.298">  2  9  1 -1</clus>
<clus scale="  127.298">  2  5  1 -1</clus>
</clustering>
</event>
<event>
 9    1  0.3197504E-005  0.1286642E+03  0.7546771E-02  0.1244302E+00
         21   -1    0    0  501  502  0.00000000000E+00  0.00000000000E+00  0.93007764464E+02  0.93007764464E+02  0.00000000000E+00 0.  1.
         -2   -1    0    0    0  501 -0.00000000000E+00 -0.00000000000E+00 -0.33221579239E+03  0.33221579239E+03  0.00000000000E+00 0.  1.
         23    2    1    2    0    0  0.97115117335E+01 -0.21759299628E+02 -0.74538162612E+02  0.12076267869E+03  0.91977748929E+02 0.  0.
        -24    2    1    2    0    0 -0.84510574542E+02 -0.51468774140E+02 -0.25254124822E+02  0.13012212951E+03  0.80640720778E+02 0.  0.
         11    1    4    4    0    0 -0.85845845539E+02 -0.68755783418E+02 -0.24953821440E+02  0.11278102746E+03  0.00000000000E+00 0. -1.
        -12    1    4    4    0    0  0.13352709973E+01  0.17287009278E+02 -0.30030338258E+00  0.17341102056E+02  0.00000000000E+00 0.  1.
        -11    1    3    3    0    0  0.28741427991E+02  0.25906245693E+02 -0.51726860780E+02  0.64597766022E+02  0.00000000000E+00 0. -1.
         11    1    3    3    0    0 -0.19029916258E+02 -0.47665545321E+02 -0.22811301832E+02  0.56164912666E+02  0.00000000000E+00 0.  1.
         -1    1    1    2    0  502  0.74799062809E+02  0.73228073768E+02 -0.13941574050E+03  0.17433874866E+03  0.00000000000E+00 0.  1.
<scales pt_clust_5="13000.00000" pt_clust_6="13000.00000" pt_clust_7="13000.00000" pt_clust_8="13000.00000" pt_clust_9="100.25744"></scales>
<clustering>
<clus scale="   80.641">  5  6 -1 -1</clus>
<clus scale="   91.978">  7  8 -1 -1</clus>
<clus scale="   95.014">  2  7  1 -1</clus>
<clus scale="  100.257">  1  9  2 -1</clus>
<clus scale="  100.257">  1  5  2 -1</clus>
</clustering>
</event>
<event>
 9    1  0.3197504E-005  0.1333748E+03  0.7546771E-02  0.1246657E+00
         21   -1    0    0  501  502  0.00000000000E+00  0.00000000000E+00  0.31413106448E+02  0.31413106448E+02  0.00000000000E+00 0. -1.
          1   -1    0    0  502    0 -0.00000000000E+00 -0.00000000000E+00 -0.98530538848E+03  0.98530538848E+03  0.00000000000E+00 0. -1.
        -24    2    1    2    0    0 -0.22978056377E+01 -0.11017733683E+02 -0.42087411937E+03  0.42866380099E+03  0.80566491515E+02 0.  0.
         23    2    1    2    0    0  0.65176967301E+02 -0.63641223582E+02 -0.18854313727E+03  0.23001727691E+03  0.95190286598E+02 0.  0.
         11    1    3    3    0    0  0.27255202714E+02  0.16905752285E+02 -0.95107805930E+02  0.10037004177E+03  0.00000000000E+00 0. -1.
        -12    1    3    3    0    0 -0.29553008352E+02 -0.27923485968E+02 -0.32576631344E+03  0.32829375923E+03  0.00000000000E+00 0.  1.
        -11    1    4    4    0    0  0.86636447782E+02 -0.39576821970E+02 -0.16338235891E+03  0.18911899461E+03  0.00000000000E+00 0. -1.
         11    1    4    4    0    0 -0.21459480481E+02 -0.24064401612E+02 -0.25160778362E+02  0.40898282302E+02  0.00000000000E+00 0.  1.
          2    1    1    2  501    0 -0.62879161663E+02  0.74658957265E+02 -0.34447502539E+03  0.35803741702E+03  0.00000000000E+00 0. -1.
<scales pt_clust_5="13000.00000" pt_clust_6="13000.00000" pt_clust_7="13000.00000" pt_clust_8="13000.00000" pt_clust_9="93.42195"></scales>
<clustering>
<clus scale="   80.566">  5  6 -1 -1</clus>
<clus scale="   81.349">  2  5  1 -1</clus>
<clus scale="   93.422">  1  9  2 -1</clus>
<clus scale="   95.190">  7  8 -1 -1</clus>
<clus scale="   93.422">  1  5  2 -1</clus>
</clustering>
</event>
<event>
 9    1  0.3197504E-005  0.1021507E+03  0.7546771E-02  0.1278805E+00
          1   -1    0    0  502    0 -0.00000000000E+00  0.00000000000E+00  0.86178087077E+03  0.86178087077E+03  0.00000000000E+00 0. -1.
         21   -1    0    0  501  502  0.00000000000E+00 -0.00000000000E+00 -0.21473696706E+02  0.21473696706E+02  0.00000000000E+00 0.  1.
         23    2    1    2    0    0 -0.54308773753E+02  0.13019284300E+02  0.48669450180E+03  0.49774118870E+03  0.88067066367E+02 0.  0.
        -24    2    1    2    0    0  0.46432368006E+02  0.38126466994E+02  0.24941190195E+03  0.26917023898E+03  0.81466118317E+02 0.  0.
         11    1    4    4    0    0  0.19330507491E+02 -0.24303945202E+02  0.10551573564E+03  0.10999054841E+03  0.00000000000E+00 0. -1.
        -12    1    4    4    0    0  0.27101860515E+02  0.62430412197E+02  0.14389616631E+03  0.15917969056E+03  0.00000000000E+00 0.  1.
        -13    1    3    3    0    0 -0.78071150874E+02  0.40613726556E+01  0.34066311346E+03  0.34951817724E+03  0.00000000000E+00 0.  1.
         13    1    3    3    0    0  0.23762377121E+02  0.89579116443E+01  0.14603138834E+03  0.14822301147E+03  0.00000000000E+00 0. -1.
          2    1    1    2  501    0  0.78764057466E+01 -0.51145751294E+02  0.10420077032E+03  0.11634313980E+03  0.00000000000E+00 0. -1.
<scales pt_clust_5="13000.00000" pt_clust_6="13000.00000" pt_clust_7="13000.00000" pt_clust_8="13000.00000" pt_clust_9="51.74868"></scales>
<clustering>
<clus scale="   51.749">  2  9  1 -1</clus>
<clus scale="   81.466">  5  6 -1 -1</clus>
<clus scale="   88.067">  7  8 -1 -1</clus>
<clus scale="   96.518">  2  5  1 -1</clus>
<clus scale="   51.749">  2  5  1 -1</clus>
</clustering>
</event>
<event>
 9    1  0.3197504E-005  0.9721060E+02  0.7546771E-02  0.1291683E+00
         -4   -1    0    0    0  501 -0.00000000000E+00  0.00000000000E+00  0.74873349223E+03  0.74873349223E+03  0.00000000000E+00 0.  1.
         21   -1    0    0  501  502  0.00000000000E+00 -0.00000000000E+00 -0.47845865158E+02  0.47845865158E+02  0.00000000000E+00 0.  1.
        -24    2    1    2    0    0  0.10334891576E+00 -0.28569530972E+02  0.52785549302E+03  0.53489911914E+03  0.81666500894E+02 0.  0.
         23    2    1    2    0    0  0.12105573635E+02  0.45006381935E+02  0.20172587519E+03  0.22643029300E+03  0.91680038923E+02 0.  0.
         11    1    3    3    0    0 -0.23832728921E+02 -0.40587539183E+02  0.18129429692E+03  0.18730448313E+03  0.00000000000E+00 0. -1.
        -12    1    3    3    0    0  0.23936077837E+02  0.12018008211E+02  0.34656119609E+03  0.34759463601E+03  0.00000000000E+00 0.  1.
        -13    1    4    4    0    0 -0.28130936498E+02  0.35930208987E+02  0.16502793493E+03  0.17122076047E+03  0.00000000000E+00 0. -1.
         13    1    4    4    0    0  0.40236510133E+02  0.90761729485E+01  0.36697940256E+02  0.55209532529E+02  0.00000000000E+00 0.  1.
         -3    1    1    2    0  502 -0.12208922551E+02 -0.16436850963E+02 -0.28693741139E+02  0.35249945248E+02  0.00000000000E+00 0.  1.
<scales pt_clust_5="13000.00000" pt_clust_6="13000.00000" pt_clust_7="13000.00000" pt_clust_8="13000.00000" pt_clust_9="20.47505"></scales>
<clustering>
<clus scale="   20.475">  2  9  1 -1</clus>
<clus scale="   81.667">  5  6 -1 -1</clus>
<clus scale="   87.830">  1  5  2 -1</clus>
<clus scale="   91.680">  7  8 -1 -1</clus>
<clus scale="   20.475">  2  5  1 -1</clus>
</clustering>
</event>
<event>
 9    1  0.3197504E-005  0.9805366E+02  0.7546771E-02  0.1289833E+00
         21   -1    0    0  501  502  0.00000000000E+00  0.00000000000E+00  0.11188520948E+03  0.11188520948E+03  0.00000000000E+00 0. -1.
         -2   -1    0    0    0  501 -0.00000000000E+00 -0.00000000000E+00 -0.70126512577E+03  0.70126512577E+03  0.00000000000E+00 0.  1.
        -24    2    1    2    0    0  0.30163125952E+02 -0.20283174479E+02 -0.62588126792E+03  0.63206688303E+03  0.80373887324E+02 0.  0.
         23    2    1    2    0    0 -0.76741554068E+02 -0.14991300800E+01  0.48418692259E+02  0.12830048370E+03  0.90692507117E+02 0.  0.
         13    1    3    3    0    0 -0.26053475855E+02 -0.14531739903E+02 -0.15862386033E+03  0.16140472154E+03  0.00000000000E+00 0. -1.
        -14    1    3    3    0    0  0.56216601807E+02 -0.57514345761E+01 -0.46725740759E+03  0.47066216150E+03  0.00000000000E+00 0.  1.
        -13    1    4    4    0    0 -0.18053031922E+02 -0.39505790414E+02  0.32444830924E+00  0.43436444427E+02  0.00000000000E+00 0.  1.
         13    1    4    4    0    0 -0.58688522146E+02  0.38006660334E+02  0.48094243950E+02  0.84864039278E+02  0.00000000000E+00 0. -1.
         -1    1    1    2    0  502  0.46578428116E+02  0.21782304559E+02 -0.11917340627E+02  0.52782968515E+02  0.00000000000E+00 0.  1.
<scales pt_clust_5="13000.00000" pt_clust_6="13000.00000" pt_clust_7="13000.00000" pt_clust_8="13000.00000" pt_clust_9="51.42002"></scales>
<clustering>
<clus scale="   51.420">  1  9  2 -1</clus>
<clus scale="   80.374">  5  6 -1 -1</clus>
<clus scale="   88.597">  2  5  1 -1</clus>
<clus scale="   90.693">  7  8 -1 -1</clus>
<clus scale="   51.420">  1  5  2 -1</clus>
</clustering>
</event>
<event>
 9    1  0.3197504E-005  0.1221125E+03  0.7546771E-02  0.1241862E+00
         21   -1    0    0  501  502  0.00000000000E+00  0.00000000000E+00  0.24056535726E+03  0.24056535726E+03  0.00000000000E+00 0. -1.
         -2   -1    0    0    0  501 -0.00000000000E+00 -0.00000000000E+00 -0.13337137170E+03  0.13337137170E+03  0.00000000000E+00 0.  1.
        -24    2    1    2    0    0 -0.56911618292E+02 -0.62622376927E+02 -0.65569162176E+02  0.13759518605E+03  0.86444350922E+02 0.  0.
         23    2    1    2    0    0  0.57667344017E+02  0.15240067926E+02  0.14045775396E+03  0.17898918642E+03  0.93546597869E+02 0.  0.
         13    1    3    3    0    0 -0.57580592569E+02 -0.13367068175E+02 -0.47109038130E+01  0.59299205449E+02  0.00000000000E+00 0. -1.
        -14    1    3    3    0    0  0.66897427694E+00 -0.49255308752E+02 -0.60858258363E+02  0.78295980598E+02  0.00000000000E+00 0.  1.
        -13    1    4    4    0    0  0.46406490223E+02  0.33070216322E+02  0.26053786370E+02  0.62657811377E+02  0.00000000000E+00 0.  1.
         13    1    4    4    0    0  0.11260853794E+02 -0.17830148397E+02  0.11440396759E+03  0.11633137504E+03  0.00000000000E+00 0. -1.
         -1    1    1    2    0  502 -0.75572572511E+00  0.47382309002E+02  0.32305393780E+02  0.57352356490E+02  0.00000000000E+00 0.  1.
<scales pt_clust_5="13000.00000" pt_clust_6="13000.00000" pt_clust_7="13000.00000" pt_clust_8="13000.00000" pt_clust_9="47.38834"></scales>
<clustering>
<clus scale="   47.388">  1  9  2 -1</clus>
<clus scale="   86.444">  5  6 -1 -1</clus>
<clus scale="   93.547">  7  8 -1 -1</clus>
<clus scale="  116.761">  2  5  1 -1</clus>
<clus scale="   47.388">  1  5  2 -1</clus>
</clustering>
</event>
<event>
 9    1  0.3197504E-005  0.1417476E+03  0.7546771E-02  0.1218261E+00
         21   -1    0    0  501  502  0.00000000000E+00  0.00000000000E+00  0.11217852172E+04  0.11217852172E+04  0.00000000000E+00 0. -1.
         -4   -1    0    0    0  501 -0.00000000000E+00 -0.00000000000E+00 -0.52355066636E+02  0.52355066636E+02  0.00000000000E+00 0.  1.
         23    2    1    2    0    0  0.77724542945E+02  0.10289946114E+02  0.16643813827E+03  0.20608353377E+03  0.92853548402E+02 0.  0.
        -24    2    1    2    0    0  0.95098753858E+02  0.33975738463E+02  0.62162318377E+03  0.63489648771E+03  0.80498718735E+02 0.  0.
         11    1    4    4    0    0  0.10206286245E+03  0.34810585194E+02  0.61731965861E+03  0.62666750805E+03  0.00000000000E+00 0. -1.
        -12    1    4    4    0    0 -0.69641085904E+01 -0.83484673095E+00  0.43035251571E+01  0.82289796634E+01  0.00000000000E+00 0.  1.
        -13    1    3    3    0    0  0.31569635887E+02 -0.41251163250E+02  0.79670590250E+02  0.95108902476E+02  0.00000000000E+00 0.  1.
         13    1    3    3    0    0  0.46154907058E+02  0.51541109364E+02  0.86767548023E+02  0.11097463129E+03  0.00000000000E+00 0. -1.
         -3    1    1    2    0  502 -0.17282329680E+03 -0.44265684577E+02  0.28136882850E+03  0.33316026234E+03  0.00000000000E+00 0.  1.
<scales pt_clust_5="13000.00000" pt_clust_6="13000.00000" pt_clust_7="13000.00000" pt_clust_8="13000.00000" pt_clust_9="116.67199"></scales>
<clustering>
<clus scale="   80.499">  5  6 -1 -1</clus>
<clus scale="   92.854">  7  8 -1 -1</clus>
<clus scale="  121.527">  2  7  1 -1</clus>
<clus scale="  116.672">  1  9  2 -1</clus>
<clus scale="  116.672">  1  5  2 -1</clus>
</clustering>
</event>
<event>
 9    1  0.3197504E-005  0.3716292E+03  0.7546771E-02  0.1054072E+00
         21   -1    0    0  501  502  0.00000000000E+00  0.00000000000E+00  0.19518753214E+03  0.19518753214E+03  0.00000000000E+00 0. -1.
          1   -1    0    0  502    0 -0.00000000000E+00 -0.00000000000E+00 -0.67617921170E+03  0.67617921170E+03  0.00000000000E+00 0. -1.
        -24    2    1    2    0    0  0.61635327569E+02 -0.14892292199E+02 -0.76846818821E+02  0.12840706592E+03  0.81007697442E+02 0.  0.
         23    2    1    2    0    0  0.19965160091E+03 -0.14441696790E+03 -0.34044312745E+03  0.43037655269E+03  0.92765466198E+02 0.  0.
         13    1    3    3    0    0  0.45739253052E+01 -0.27151383566E+02  0.48973026410E+01  0.27966086523E+02  0.00000000000E+00 0. -1.
        -14    1    3    3    0    0  0.57061402264E+02  0.12259091367E+02 -0.81744121462E+02  0.10044097940E+03  0.00000000000E+00 0.  1.
        -11    1    4    4    0    0  0.14613226712E+03 -0.14943189322E+03 -0.25937884850E+03  0.33310946738E+03  0.00000000000E+00 0.  1.
         11    1    4    4    0    0  0.53519333787E+02  0.50149253215E+01 -0.81064278943E+02  0.97267085315E+02  0.00000000000E+00 0. -1.
          2    1    1    2  501    0 -0.26128692848E+03  0.15930926010E+03 -0.63701733290E+02  0.31258312522E+03  0.00000000000E+00 0. -1.
<scales pt_clust_5="13000.00000" pt_clust_6="13000.00000" pt_clust_7="13000.00000" pt_clust_8="13000.00000" pt_clust_9="306.02336"></scales>
<clustering>
<clus scale="   81.008">  5  6 -1 -1</clus>
<clus scale="   92.765">  7  8 -1 -1</clus>
<clus scale="   98.798">  5  7 -1 -1</clus>
<clus scale="  306.023">  1  9  2 -1</clus>
<clus scale="  306.023">  1  5  2 -1</clus>
</clustering>
</event>
<event>
 9    1  0.3197504E-005  0.1461583E+03  0.7546771E-02  0.1232011E+00
         -2   -1    0    0    0  501 -0.00000000000E+00  0.00000000000E+00  0.33807668119E+02  0.33807668119E+02  0.00000000000E+00 0.  1.
         21   -1    0    0  501  502  0.00000000000E+00 -0.00000000000E+00 -0.11316684632E+04  0.11316684632E+04  0.00000000000E+00 0.  1.
        -24    2    1    2    0    0  0.14854326067E+02  0.23135152925E+02 -0.33540785044E+03  0.34558732326E+03  0.78589347596E+02 0.  0.
         23    2    1    2    0    0  0.66368198988E+02  0.82965281160E+02 -0.56086661473E+03  0.57803875308E+03  0.90936597850E+02 0.  0.
         11    1    3    3    0    0  0.59259413766E+01 -0.29312334756E+02 -0.13089424845E+03  0.13426702509E+03  0.00000000000E+00 0. -1.
        -12    1    3    3    0    0  0.89283846903E+01  0.52447487682E+02 -0.20451360200E+03  0.21132029817E+03  0.00000000000E+00 0.  1.
        -11    1    4    4    0    0  0.74669175342E+02  0.31647560456E+02 -0.24913907610E+03  0.26200636074E+03  0.00000000000E+00 0.  1.
         11    1    4    4    0    0 -0.83009763540E+01  0.51317720704E+02 -0.31172753863E+03  0.31603239234E+03  0.00000000000E+00 0. -1.
         -1    1    1    2    0  502 -0.81222525055E+02 -0.10610043409E+03 -0.20158632994E+03  0.24185005501E+03  0.00000000000E+00 0.  1.
<scales pt_clust_5="13000.00000" pt_clust_6="13000.00000" pt_clust_7="13000.00000" pt_clust_8="13000.00000" pt_clust_9="114.42372"></scales>
<clustering>
<clus scale="   78.589">  5  6 -1 -1</clus>
<clus scale="   83.260">  1  5  2 -1</clus>
<clus scale="   90.937">  7  8 -1 -1</clus>
<clus scale="  114.424">  2  9  1 -1</clus>
<clus scale="  114.424">  2  5  1 -1</clus>
</clustering>
</event>
<event>
 9    1  0.3197504E-005  0.1381949E+03  0.7546771E-02  0.1235074E+00
          3   -1    0    0  502    0 -0.00000000000E+00  0.00000000000E+00  0.62183518699E+03  0.62183518699E+03  0.00000000000E+00 0. -1.
         21   -1    0    0  501  502  0.00000000000E+00 -0.00000000000E+00 -0.89963511229E+02  0.89963511229E+02  0.00000000000E+00 0. -1.
        -24    2    1    2    0    0 -0.43432430691E+02  0.14185919180E+02  0.11362294739E+03  0.14651111068E+03  0.80422105409E+02 0.  0.
         23    2    1    2    0    0  0.80586979916E+02 -0.10734422457E+03  0.43418950360E+03  0.46373445511E+03  0.92260912350E+02 0.  0.
         13    1    3    3    0    0 -0.27428343948E+01 -0.29106528667E+02  0.19284588219E+02  0.35022970952E+02  0.00000000000E+00 0. -1.
        -14    1    3    3    0    0 -0.40689596296E+02  0.43292447847E+02  0.94338359175E+02  0.11148813972E+03  0.00000000000E+00 0.  1.
        -11    1    4    4    0    0  0.55927955046E+02 -0.15425645884E+02  0.24723742551E+03  0.25395320687E+03  0.00000000000E+00 0.  1.
         11    1    4    4    0    0  0.24659024870E+02 -0.91918578681E+02  0.18695207808E+03  0.20978124824E+03  0.00000000000E+00 0. -1.
          4    1    1    2  501    0 -0.37154549225E+02  0.93158305385E+02 -0.15940775232E+02  0.10155313242E+03  0.00000000000E+00 0. -1.
<scales pt_clust_5="13000.00000" pt_clust_6="13000.00000" pt_clust_7="13000.00000" pt_clust_8="13000.00000" pt_clust_9="102.88706"></scales>
<clustering>
<clus scale="   80.422">  5  6 -1 -1</clus>
<clus scale="   92.261">  7  8 -1 -1</clus>
<clus scale="   92.495">  1  5  2 -1</clus>
<clus scale="  102.887">  2  9  1 -1</clus>
<clus scale="  102.887">  2  5  1 -1</clus>
</clustering>
</event>
<event>
 9    1  0.3197504E-005  0.9209588E+02  0.7546771E-02  0.1307367E+00
         -2   -1    0    0    0  501 -0.00000000000E+00  0.00000000000E+00  0.24287667962E+03  0.24287667962E+03  0.00000000000E+00 0.  1.
         21   -1    0    0  501  502  0.00000000000E+00 -0.00000000000E+00 -0.22324218162E+03  0.22324218162E+03  0.00000000000E+00 0.  1.
         23    2    1    2    0    0 -0.12320010713E+02  0.37340706717E+02  0.11182185305E+03  0.14973869325E+03  0.91495564889E+02 0.  0.
        -24    2    1    2    0    0 -0.30372552574E+02  0.27025064594E+02  0.86016556414E+02  0.12215802317E+03  0.76621723955E+02 0.  0.
         11    1    4    4    0    0 -0.46202707605E+02 -0.29957383314E+01  0.25714407099E+02  0.52961262926E+02  0.00000000000E+00 0. -1.
        -12    1    4    4    0    0  0.15830155031E+02  0.30020802925E+02  0.60302149315E+02  0.69196760246E+02  0.00000000000E+00 0.  1.
        -13    1    3    3    0    0 -0.29085007646E+02 -0.12997512230E+02  0.75423150482E+01  0.32737738319E+02  0.00000000000E+00 0.  1.
         13    1    3    3    0    0  0.16764996932E+02  0.50338218947E+02  0.10427953800E+03  0.11700095493E+03  0.00000000000E+00 0. -1.
         -1    1    1    2    0  502  0.42692563288E+02 -0.64365771311E+02 -0.17820391146E+03  0.19422214482E+03  0.00000000000E+00 0.  1.
<scales pt_clust_5="13000.00000" pt_clust_6="13000.00000" pt_clust_7="13000.00000" pt_clust_8="13000.00000" pt_clust_9="77.23735"></scales>
<clustering>
<clus scale="   76.622">  5  6 -1 -1</clus>
<clus scale="   77.237">  2  9  1 -1</clus>
<clus scale="   77.338">  2  5  1 -1</clus>
<clus scale="   91.496">  7  8 -1 -1</clus>
<clus scale="   77.237">  2  5  1 -1</clus>
</clustering>
</event>
<event>
 9    1  0.3197504E-005  0.4382772E+03  0.7546771E-02  0.1073057E+00
         -2   -1    0    0    0  501 -0.00000000000E+00  0.00000000000E+00  0.91559611254E+03  0.91559611254E+03  0.00000000000E+00 0.  1.
         21   -1    0    0  501  502  0.00000000000E+00 -0.00000000000E+00 -0.28360568343E+03  0.28360568343E+03  0.00000000000E+00 0.  1.
        -24    2    1    2    0    0  0.63448040183E+02 -0.91148246384E+02  0.32142061748E+02  0.13747062680E+03  0.74373412427E+02 0.  0.
         23    2    1    2    0    0 -0.35016830621E+03 -0.24157870628E+03  0.33700025193E+03  0.54986705853E+03  0.88354390089E+02 0.  0.
         13    1    3    3    0    0  0.34349358123E+02 -0.26597394531E+02 -0.21659227415E+02  0.48542990550E+02  0.00000000000E+00 0. -1.
        -14    1    3    3    0    0  0.29098682060E+02 -0.64550851853E+02  0.53801289163E+02  0.88927636246E+02  0.00000000000E+00 0.  1.
        -13    1    4    4    0    0 -0.26299753840E+03 -0.14603054638E+03  0.26993828210E+03  0.40417731483E+03  0.00000000000E+00 0.  1.
         13    1    4    4    0    0 -0.87170767819E+02 -0.95548159897E+02  0.67061969835E+02  0.14568974370E+03  0.00000000000E+00 0. -1.
         -1    1    1    2    0  502  0.28672026603E+03  0.33272695266E+03  0.26284811542E+03  0.51186411064E+03  0.00000000000E+00 0.  1.
<scales pt_clust_5="13000.00000" pt_clust_6="13000.00000" pt_clust_7="13000.00000" pt_clust_8="13000.00000" pt_clust_9="429.27899"></scales>
<clustering>
<clus scale="   74.373">  5  6 -1 -1</clus>
<clus scale="   88.354">  7  8 -1 -1</clus>
<clus scale="  133.660">  1  5  2 -1</clus>
<clus scale="  429.279">  2  9  1 -1</clus>
<clus scale="  429.279">  2  5  1 -1</clus>
</clustering>
</event>
<event>
 9    1  0.3197504E-005  0.1248375E+03  0.7546771E-02  0.1238868E+00
         21   -1    0    0  501  502  0.00000000000E+00  0.00000000000E+00  0.25657010318E+03  0.25657010318E+03  0.00000000000E+00 0. -1.
          1   -1    0    0  502    0 -0.00000000000E+00 -0.00000000000E+00 -0.20886865080E+03  0.20886865080E+03  0.00000000000E+00 0. -1.
        -24    2    1    2    0    0  0.73116298395E+02  0.39628542274E+02 -0.12952117991E+03  0.17317285721E+03  0.79351672801E+02 0.  0.
         23    2    1    2    0    0 -0.97822235126E+02 -0.57798099539E+01  0.27709191033E+02  0.13699069236E+03  0.91629987648E+02 0.  0.
         11    1    3    3    0    0  0.65792521565E+02  0.43853174114E+02 -0.13934306312E+03  0.16021312685E+03  0.00000000000E+00 0. -1.
        -12    1    3    3    0    0  0.73237768307E+01 -0.42246318399E+01  0.98218832143E+01  0.12959730365E+02  0.00000000000E+00 0.  1.
        -11    1    4    4    0    0 -0.33515940671E+02 -0.25269342811E+02  0.50837839595E+02  0.65926807141E+02  0.00000000000E+00 0.  1.
         11    1    4    4    0    0 -0.64306294456E+02  0.19489532857E+02 -0.23128648562E+02  0.71063885216E+02  0.00000000000E+00 0. -1.
          2    1    1    2  501    0  0.24705936731E+02 -0.33848732320E+02  0.14951344125E+03  0.15527520441E+03  0.00000000000E+00 0. -1.
<scales pt_clust_5="13000.00000" pt_clust_6="13000.00000" pt_clust_7="13000.00000" pt_clust_8="13000.00000" pt_clust_9="41.90609"></scales>
<clustering>
<clus scale="   41.906">  1  9  2 -1</clus>
<clus scale="   79.352">  5  6 -1 -1</clus>
<clus scale="   91.630">  7  8 -1 -1</clus>
<clus scale="  116.125">  2  5  1 -1</clus>
<clus scale="   41.906">  1  5  2 -1</clus>
</clustering>
</event>
<event>
 9    1  0.3197504E-005  0.9234103E+02  0.7546771E-02  0.1303813E+00
         21   -1    0    0  501  502  0.00000000000E+00  0.00000000000E+00  0.88831420794E+02  0.88831420794E+02  0.00000000000E+00 0.  1.
         -4   -1    0    0    0  501 -0.00000000000E+00 -0.00000000000E+00 -0.20313456712E+03  0.20313456712E+03  0.00000000000E+00 0.  1.
        -24    2    1    2    0    0  0.74296059833E+01 -0.12216462993E+02 -0.10362280350E+03  0.13215000011E+03  0.80755780662E+02 0.  0.
         23    2    1    2    0    0 -0.24571400937E+02 -0.15262004386E+02 -0.50638431497E+02  0.10838101765E+03  0.91353772340E+02 0.  0.
         13    1    3    3    0    0  0.17206037240E+02  0.11448248379E+02  0.44036326504E+01  0.21130596039E+02  0.00000000000E+00 0. -1.
        -14    1    3    3    0    0 -0.97764312571E+01 -0.23664711372E+02 -0.10802643615E+03  0.11101940407E+03  0.00000000000E+00 0.  1.
        -13    1    4    4    0    0 -0.16382938011E+02 -0.48904407981E+02 -0.60524393143E+01  0.51929507984E+02  0.00000000000E+00 0.  1.
         13    1    4    4    0    0 -0.81884629262E+01  0.33642403595E+02 -0.44585992183E+02  0.56451509667E+02  0.00000000000E+00 0. -1.
         -3    1    1    2    0  502  0.17141794954E+02  0.27478467379E+02  0.39958088676E+02  0.51434970150E+02  0.00000000000E+00 0.  1.
<scales pt_clust_5="13000.00000" pt_clust_6="13000.00000" pt_clust_7="13000.00000" pt_clust_8="13000.00000" pt_clust_9="32.38684"></scales>
<clustering>
<clus scale="   32.387">  1  9  2 -1</clus>
<clus scale="   80.756">  5  6 -1 -1</clus>
<clus scale="   81.871">  2  5  1 -1</clus>
<clus scale="   91.354">  7  8 -1 -1</clus>
<clus scale="   32.387">  1  5  2 -1</clus>
</clustering>
</event>
<event>
 9    1  0.3197504E-005  0.1924153E+03  0.7546771E-02  0.1158355E+00
          1   -1    0    0  502    0 -0.00000000000E+00  0.00000000000E+00  0.14306440215E+04  0.14306440215E+04  0.00000000000E+00 0. -1.
         21   -1    0    0  501  502  0.00000000000E+00 -0.00000000000E+00 -0.75522971238E+02  0.75522971238E+02  0.00000000000E+00 0. -1.
        -24    2    1    2    0    0 -0.12256903620E+03  0.73724224442E+02  0.54199605519E+03  0.56607840878E+03  0.78908878772E+02 0.  0.
         23    2    1    2    0    0  0.26520592979E+03 -0.64563369821E+02  0.34546287488E+03  0.45107215955E+03  0.98075895525E+02 0.  0.
         11    1    3    3    0    0 -0.41589490277E+02  0.55213985838E+02  0.14699188327E+03  0.16243424418E+03  0.00000000000E+00 0. -1.
        -12    1    3    3    0    0 -0.80979545919E+02  0.18510238604E+02  0.39500417191E+03  0.40364416460E+03  0.00000000000E+00 0.  1.
        -11    1    4    4    0    0  0.19575700358E+03 -0.86124939507E+02  0.22547855434E+03  0.31077144033E+03  0.00000000000E+00 0. -1.
         11    1    4    4    0    0  0.69448926205E+02  0.21561569687E+02  0.11998432054E+03  0.14030071922E+03  0.00000000000E+00 0.  1.
          2    1    1    2  501    0 -0.14263689359E+03 -0.91608546209E+01  0.46766212018E+03  0.48901642439E+03  0.00000000000E+00 0. -1.
<scales pt_clust_5="13000.00000" pt_clust_6="13000.00000" pt_clust_7="13000.00000" pt_clust_8="13000.00000" pt_clust_9="142.93084"></scales>
<clustering>
<clus scale="   78.909">  5  6 -1 -1</clus>
<clus scale="   98.076">  7  8 -1 -1</clus>
<clus scale="  142.931">  2  9  1 -1</clus>
<clus scale="  183.389">  1  5  2 -1</clus>
<clus scale="  142.931">  2  5  1 -1</clus>
</clustering>
</event>
<event>
 9    1  0.3197504E-005  0.9450648E+02  0.7546771E-02  0.1298773E+00
         21   -1    0    0  501  502  0.00000000000E+00  0.00000000000E+00  0.25957147831E+03  0.25957147831E+03  0.00000000000E+00 0.  1.
          3   -1    0    0  502    0 -0.00000000000E+00 -0.00000000000E+00 -0.10775117356E+03  0.10775117356E+03  0.00000000000E+00 0. -1.
        -24    2    1    2    0    0 -0.51380820710E+01 -0.20991527305E+02 -0.69071689411E+02  0.10862513164E+03  0.81002943403E+02 0.  0.
         23    2    1    2    0    0 -0.22793333754E+02  0.24108738274E+02  0.20308969227E+03  0.22542887213E+03  0.92043391713E+02 0.  0.
         11    1    3    3    0    0 -0.36613032458E+02 -0.22872436054E+02 -0.63223394840E+02  0.76556254689E+02  0.00000000000E+00 0. -1.
        -12    1    3    3    0    0  0.31474950387E+02  0.18809087494E+01 -0.58482945709E+01  0.32068876952E+02  0.00000000000E+00 0.  1.
        -11    1    4    4    0    0 -0.40354675296E+02 -0.14904143637E+02  0.15592554235E+03  0.16175106823E+03  0.00000000000E+00 0. -1.
         11    1    4    4    0    0  0.17561341542E+02  0.39012881911E+02  0.47164149915E+02  0.63677803896E+02  0.00000000000E+00 0.  1.
          4    1    1    2  501    0  0.27931415825E+02 -0.31172109698E+01  0.17802301895E+02  0.33268648108E+02  0.00000000000E+00 0. -1.
<scales pt_clust_5="13000.00000" pt_clust_6="13000.00000" pt_clust_7="13000.00000" pt_clust_8="13000.00000" pt_clust_9="28.10482"></scales>
<clustering>
<clus scale="   28.105">  1  9  2 -1</clus>
<clus scale="   81.003">  5  6 -1 -1</clus>
<clus scale="   83.791">  2  5  1 -1</clus>
<clus scale="   92.043">  7  8 -1 -1</clus>
<clus scale="   28.105">  1  5  2 -1</clus>
</clustering>
</event>
<event>
 9    1  0.3197504E-005  0.1315444E+03  0.7546771E-02  0.1244324E+00
         21   -1    0    0  501  502  0.00000000000E+00  0.00000000000E+00  0.37062605313E+03  0.37062605313E+03  0.00000000000E+00 0. -1.
          3   -1    0    0  502    0 -0.00000000000E+00 -0.00000000000E+00 -0.13897263807E+03  0.13897263807E+03  0.00000000000E+00 0. -1.
        -24    2    1    2    0    0  0.18382133766E+02 -0.24576029664E+02 -0.77736451949E+02  0.11807133482E+03  0.83402638257E+02 0.  0.
         23    2    1    2    0    0  0.87742996663E+02  0.58152344029E+01  0.21003504855E+03  0.24494669362E+03  0.90285716914E+02 0.  0.
         13    1    3    3    0    0  0.12310767681E+02 -0.54038779929E+02 -0.64955064205E+02  0.85386797006E+02  0.00000000000E+00 0. -1.
        -14    1    3    3    0    0  0.60713660847E+01  0.29462750265E+02 -0.12781387744E+02  0.32684537812E+02  0.00000000000E+00 0.  1.
        -11    1    4    4    0    0  0.32701154078E+02 -0.32309464245E+02  0.35726248961E+02  0.58220544678E+02  0.00000000000E+00 0.  1.
         11    1    4    4    0    0  0.55041842585E+02  0.38124698648E+02  0.17430879959E+03  0.18672614894E+03  0.00000000000E+00 0. -1.
          4    1    1    2  501    0 -0.10612513043E+03  0.18760795261E+02  0.99354818452E+02  0.14658066277E+03  0.00000000000E+00 0. -1.
<scales pt_clust_5="13000.00000" pt_clust_6="13000.00000" pt_clust_7="13000.00000" pt_clust_8="13000.00000" pt_clust_9="95.66830"></scales>
<clustering>
<clus scale="   83.403">  5  6 -1 -1</clus>
<clus scale="   88.870">  2  5  1 -1</clus>
<clus scale="   90.286">  7  8 -1 -1</clus>
<clus scale="   95.668">  1  9  2 -1</clus>
<clus scale="   95.668">  1  5  2 -1</clus>
</clustering>
</event>
<event>
 9    1  0.3197504E-005  0.1246809E+03  0.7546771E-02  0.1238821E+00
         21   -1    0    0  501  502  0.00000000000E+00  0.00000000000E+00  0.11200857835E+03  0.11200857835E+03  0.00000000000E+00 0.  1.
         -2   -1    0    0    0  501 -0.00000000000E+00 -0.00000000000E+00 -0.40496338264E+03  0.40496338264E+03  0.00000000000E+00 0.  1.
        -24    2    1    2    0    0  0.97242980193E+01  0.97565515432E+02 -0.29722186406E+03  0.32294497159E+03  0.79618003174E+02 0.  0.
         23    2    1    2    0    0 -0.41162283952E+02 -0.15832768593E+02  0.24819284156E+02  0.10407709894E+03  0.90945233392E+02 0.  0.
         13    1    3    3    0    0  0.30836213263E+02  0.16773237694E+02 -0.43865137257E+02  0.56181525591E+02  0.00000000000E+00 0. -1.
        -14    1    3    3    0    0 -0.21111915244E+02  0.80792277738E+02 -0.25335672680E+03  0.26676344600E+03  0.00000000000E+00 0.  1.
        -11    1    4    4    0    0 -0.56133289451E+02 -0.42557496940E+02  0.17282289576E+02  0.72531126169E+02  0.00000000000E+00 0.  1.
         11    1    4    4    0    0  0.14971005499E+02  0.26724728348E+02  0.75369945799E+01  0.31545972773E+02  0.00000000000E+00 0. -1.
         -1    1    1    2    0  502  0.31437985933E+02 -0.81732746840E+02 -0.20552224381E+02  0.89949890453E+02  0.00000000000E+00 0.  1.
<scales pt_clust_5="13000.00000" pt_clust_6="13000.00000" pt_clust_7="13000.00000" pt_clust_8="13000.00000" pt_clust_9="87.57048"></scales>
<clustering>
<clus scale="   79.618">  5  6 -1 -1</clus>
<clus scale="   87.570">  1  9  2 -1</clus>
<clus scale="   90.945">  7  8 -1 -1</clus>
<clus scale="  116.676">  2  5  1 -1</clus>
<clus scale="   87.570">  1  5  2 -1</clus>
</clustering>
</event>
<event>
 9    1  0.3197504E-005  0.1081926E+03  0.7546771E-02  0.1269043E+00
         21   -1    0    0  501  502  0.00000000000E+00  0.00000000000E+00  0.34127774477E+03  0.34127774477E+03  0.00000000000E+00 0.  1.
         -4   -1    0    0    0  501 -0.00000000000E+00 -0.00000000000E+00 -0.15413621507E+03  0.15413621507E+03  0.00000000000E+00 0.  1.
        -24    2    1    2    0    0 -0.40294435556E+02  0.30959296303E+02 -0.10482033551E+03  0.14577668507E+03  0.87643708325E+02 0.  0.
         23    2    1    2    0    0  0.21803372930E+02  0.14298462904E+02  0.73978289146E+02  0.12623847533E+03  0.98911739824E+02 0.  0.
         13    1    3    3    0    0  0.13582201662E+02 -0.18853928689E+02 -0.86139636998E+01  0.24781993455E+02  0.00000000000E+00 0. -1.
        -14    1    3    3    0    0 -0.53876637218E+02  0.49813224991E+02 -0.96206371808E+02  0.12099469161E+03  0.00000000000E+00 0.  1.
        -11    1    4    4    0    0 -0.11717515653E+02  0.22628483069E+02 -0.15842364619E+02  0.30005481763E+02  0.00000000000E+00 0.  1.
         11    1    4    4    0    0  0.33520888582E+02 -0.83300201655E+01  0.89820653765E+02  0.96232993563E+02  0.00000000000E+00 0. -1.
         -3    1    1    2    0  502  0.18491062626E+02 -0.45257759206E+02  0.21798357606E+03  0.22339879945E+03  0.00000000000E+00 0.  1.
<scales pt_clust_5="13000.00000" pt_clust_6="13000.00000" pt_clust_7="13000.00000" pt_clust_8="13000.00000" pt_clust_9="48.88951"></scales>
<clustering>
<clus scale="   48.890">  1  9  2 -1</clus>
<clus scale="   87.644">  5  6 -1 -1</clus>
<clus scale="   97.998">  2  5  1 -1</clus>
<clus scale="   98.912">  7  8 -1 -1</clus>
<clus scale="   48.890">  1  5  2 -1</clus>
</clustering>
</event>
<event>
 9    1  0.3197504E-005  0.9078418E+02  0.7546771E-02  0.1307460E+00
         -2   -1    0    0    0  501 -0.00000000000E+00  0.00000000000E+00  0.10883066785E+03  0.10883066785E+03  0.00000000000E+00 0.  1.
         21   -1    0    0  501  502  0.00000000000E+00 -0.00000000000E+00 -0.14626547389E+03  0.14626547389E+03  0.00000000000E+00 0.  1.
        -24    2    1    2    0    0 -0.20409704529E+02  0.13469395787E+02  0.66638466874E+01  0.82503945741E+02  0.78514416182E+02 0.  0.
         23    2    1    2    0    0  0.35626218047E+01  0.40626623467E+01 -0.86200349211E+02  0.12397378277E+03  0.88937062638E+02 0.  0.
         13    1    3    3    0    0 -0.25707286568E+02 -0.28871003307E+02 -0.29295115688E+01  0.38768304743E+02  0.00000000000E+00 0. -1.
        -14    1    3    3    0    0  0.52975820391E+01  0.42340399094E+02  0.95933582562E+01  0.43735640998E+02  0.00000000000E+00 0.  1.
        -13    1    4    4    0    0 -0.21434232907E+02  0.37795812923E+02 -0.61373170062E+02  0.75197179590E+02  0.00000000000E+00 0.  1.
         13    1    4    4    0    0  0.24996854711E+02 -0.33733150576E+02 -0.24827179149E+02  0.48776603180E+02  0.00000000000E+00 0. -1.
         -1    1    1    2    0  502  0.16847082724E+02 -0.17532058134E+02  0.42101696480E+02  0.48618413232E+02  0.00000000000E+00 0.  1.
<scales pt_clust_5="13000.00000" pt_clust_6="13000.00000" pt_clust_7="13000.00000" pt_clust_8="13000.00000" pt_clust_9="24.31456"></scales>
<clustering>
<clus scale="   24.315">  2  9  1 -1</clus>
<clus scale="   78.514">  5  6 -1 -1</clus>
<clus scale="   80.601">  1  5  2 -1</clus>
<clus scale="   88.937">  7  8 -1 -1</clus>
<clus scale="   24.315">  2  5  1 -1</clus>
</clustering>
</event>
<event>
 9    1  0.3197504E-005  0.1199894E+03  0.7546771E-02  0.1246401E+00
         21   -1    0    0  501  502  0.00000000000E+00  0.00000000000E+00  0.95009089981E+03  0.95009089981E+03  0.00000000000E+00 0. -1.
          3   -1    0    0  502    0 -0.00000000000E+00 -0.00000000000E+00 -0.16928382339E+03  0.16928382339E+03  0.00000000000E+00 0. -1.
         23    2    1    2    0    0  0.56730439709E+02 -0.43992566386E+02 -0.10614297045E+03  0.15738963985E+03  0.91386431539E+02 0.  0.
        -24    2    1    2    0    0 -0.15514241056E+03  0.49876094497E+01  0.19538180561E+03  0.26236165963E+03  0.81028061078E+02 0.  0.
         11    1    4    4    0    0 -0.14675351417E+03 -0.17845078283E+02  0.14847628578E+03  0.20952386064E+03  0.00000000000E+00 0. -1.
        -12    1    4    4    0    0 -0.83888963849E+01  0.22832687733E+02  0.46905519829E+02  0.52837798990E+02  0.00000000000E+00 0.  1.
        -11    1    3    3    0    0  0.17822194310E+01 -0.50984042538E+02 -0.19626198317E+02  0.54660191730E+02  0.00000000000E+00 0.  1.
         11    1    3    3    0    0  0.54948220278E+02  0.69914761518E+01 -0.86516772138E+02  0.10272944812E+03  0.00000000000E+00 0. -1.
          4    1    1    2  501    0  0.98411970846E+02  0.39004956937E+02  0.69156824127E+03  0.69962342371E+03  0.00000000000E+00 0. -1.
<scales pt_clust_5="13000.00000" pt_clust_6="13000.00000" pt_clust_7="13000.00000" pt_clust_8="13000.00000" pt_clust_9="105.85983"></scales>
<clustering>
<clus scale="   81.028">  5  6 -1 -1</clus>
<clus scale="   91.386">  7  8 -1 -1</clus>
<clus scale="  105.860">  1  9  2 -1</clus>
<clus scale="  112.301">  1  5  2 -1</clus>
<clus scale="  105.860">  1  5  2 -1</clus>
</clustering>
</event>
<event>
 9    1  0.3197504E-005  0.2737626E+03  0.7546771E-02  0.1125880E+00
         21   -1    0    0  501  502  0.00000000000E+00  0.00000000000E+00  0.10581286312E+04  0.10581286312E+04  0.00000000000E+00 0.  1.
          1   -1    0    0  502    0 -0.00000000000E+00 -0.00000000000E+00 -0.14392946588E+03  0.14392946588E+03  0.00000000000E+00 0. -1.
         23    2    1    2    0    0  0.53810376149E+02  0.89932803952E+02  0.12658342541E+03  0.18798468712E+03  0.91276575283E+02 0.  0.
        -24    2    1    2    0    0  0.23733859890E+03 -0.98538209102E+02  0.62508844590E+03  0.68052146506E+03  0.79589635176E+02 0.  0.
         11    1    4    4    0    0  0.14604691432E+03 -0.77732213865E+02  0.48123030845E+03  0.50887582771E+03  0.00000000000E+00 0. -1.
        -12    1    4    4    0    0  0.91291684574E+02 -0.20805995237E+02  0.14385813745E+03  0.17164563734E+03  0.00000000000E+00 0.  1.
        -11    1    3    3    0    0 -0.20425340469E+02  0.63795169750E+01  0.44291326273E+02  0.49189575655E+02  0.00000000000E+00 0. -1.
         11    1    3    3    0    0  0.74235716619E+02  0.83553286977E+02  0.82292099141E+02  0.13879511147E+03  0.00000000000E+00 0.  1.
          2    1    1    2  501    0 -0.29114897505E+03  0.86054051502E+01  0.16252729405E+03  0.33355194495E+03  0.00000000000E+00 0. -1.
<scales pt_clust_5="13000.00000" pt_clust_6="13000.00000" pt_clust_7="13000.00000" pt_clust_8="13000.00000" pt_clust_9="261.93800"></scales>
<clustering>
<clus scale="   79.590">  5  6 -1 -1</clus>
<clus scale="   91.277">  7  8 -1 -1</clus>
<clus scale="  138.978">  2  7  1 -1</clus>
<clus scale="  261.938">  1  9  2 -1</clus>
<clus scale="  261.938">  1  5  2 -1</clus>
</clustering>
</event>
<event>
 9    1  0.3197504E-005  0.9884894E+02  0.7546771E-02  0.1286395E+00
         -4   -1    0    0    0  501 -0.00000000000E+00  0.00000000000E+00  0.10320160117E+03  0.10320160117E+03  0.00000000000E+00 0.  1.
         21   -1    0    0  501  502  0.00000000000E+00 -0.00000000000E+00 -0.19769519664E+03  0.19769519664E+03  0.00000000000E+00 0.  1.
        -24    2    1    2    0    0  0.50147780254E+02 -0.13663993220E+02  0.43880970972E+02  0.10474314548E+03  0.79649747876E+02 0.  0.
         23    2    1    2    0    0 -0.34387763468E+02 -0.13683150145E+02 -0.61235896589E+02  0.11280727409E+03  0.87211806433E+02 0.  0.
         11    1    3    3    0    0 -0.51804390107E+01 -0.34788339755E+02  0.10242510392E+02  0.36632970810E+02  0.00000000000E+00 0. -1.
        -12    1    3    3    0    0  0.55328219265E+02  0.21124346535E+02  0.33638460580E+02  0.68110174671E+02  0.00000000000E+00 0.  1.
        -11    1    4    4    0    0  0.24017171781E+02  0.14734613315E+02 -0.28481985204E+02  0.40064408782E+02  0.00000000000E+00 0.  1.
         11    1    4    4    0    0 -0.58404935249E+02 -0.28417763461E+02 -0.32753911385E+02  0.72742865303E+02  0.00000000000E+00 0. -1.
         -3    1    1    2    0  502 -0.15760016786E+02  0.27347143366E+02 -0.77138669849E+02  0.83346378238E+02  0.00000000000E+00 0.  1.
<scales pt_clust_5="13000.00000" pt_clust_6="13000.00000" pt_clust_7="13000.00000" pt_clust_8="13000.00000" pt_clust_9="31.56334"></scales>
<clustering>
<clus scale="   31.563">  2  9  1 -1</clus>
<clus scale="   79.650">  5  6 -1 -1</clus>
<clus scale="   87.212">  7  8 -1 -1</clus>
<clus scale="   92.246">  1  5  2 -1</clus>
<clus scale="   31.563">  2  5  1 -1</clus>
</clustering>
</event>
<event>
 9    1  0.3197504E-005  0.1421250E+03  0.7546771E-02  0.1218014E+00
         21   -1    0    0  501  502  0.00000000000E+00  0.00000000000E+00  0.23866415550E+03  0.23866415550E+03  0.00000000000E+00 0.  1.
          1   -1    0    0  502    0 -0.00000000000E+00 -0.00000000000E+00 -0.13072151574E+03  0.13072151574E+03  0.00000000000E+00 0. -1.
        -24    2    1    2    0    0 -0.19566001871E+02 -0.81261556149E+02 -0.37754631647E+02  0.12132956448E+03  0.79430359876E+02 0.  0.
         23    2    1    2    0    0  0.30511012205E+02  0.11732539321E+03  0.11358763582E+03  0.19854426684E+03  0.10872674522E+03 0.  0.
         13    1    3    3    0    0 -0.40316042531E+02 -0.64712186014E+02 -0.50938655521E+02  0.91694039775E+02  0.00000000000E+00 0. -1.
        -14    1    3    3    0    0  0.20750040659E+02 -0.16549370135E+02  0.13184023874E+02  0.29635524708E+02  0.00000000000E+00 0.  1.
        -11    1    4    4    0    0  0.54170870653E+02  0.10620180130E+03  0.12248591872E+03  0.17092719535E+03  0.00000000000E+00 0.  1.
         11    1    4    4    0    0 -0.23659858448E+02  0.11123591915E+02 -0.88982829061E+01  0.27617071488E+02  0.00000000000E+00 0. -1.
          2    1    1    2  501    0 -0.10945010334E+02 -0.36063837064E+02  0.32109635588E+02  0.49511839923E+02  0.00000000000E+00 0. -1.
<scales pt_clust_5="13000.00000" pt_clust_6="13000.00000" pt_clust_7="13000.00000" pt_clust_8="13000.00000" pt_clust_9="37.68811"></scales>
<clustering>
<clus scale="   37.688">  1  9  2 -1</clus>
<clus scale="   79.430">  5  6 -1 -1</clus>
<clus scale="  108.727">  7  8 -1 -1</clus>
<clus scale="  121.191">  2  5  1 -1</clus>
<clus scale="   37.688">  1  5  2 -1</clus>
</clustering>
</event>
<event>
 9    1  0.3197504E-005  0.2120153E+03  0.7546771E-02  0.1140491E+00
          1   -1    0    0  502    0 -0.00000000000E+00  0.00000000000E+00  0.17385138266E+04  0.17385138266E+04  0.00000000000E+00 0. -1.
         21   -1    0    0  501  502  0.00000000000E+00 -0.00000000000E+00 -0.34467737097E+02  0.34467737097E+02  0.00000000000E+00 0.  1.
        -24    2    1    2    0    0 -0.17794966396E+03  0.12006434278E+03  0.95865970523E+03  0.98551241763E+03  0.78260881432E+02 0.  0.
         23    2    1    2    0    0  0.14512450344E+03 -0.80459208338E+02  0.44127927012E+03  0.47904217787E+03  0.84965923923E+02 0.  0.
         11    1    3    3    0    0 -0.14836830253E+03  0.93350180119E+02  0.61326561909E+03  0.63782609611E+03  0.00000000000E+00 0. -1.
        -12    1    3    3    0    0 -0.29581361430E+02  0.26714162656E+02  0.34539408614E+03  0.34768632152E+03  0.00000000000E+00 0.  1.
        -13    1    4    4    0    0  0.21647858599E+02 -0.44587168203E+02  0.19520048807E+03  0.20139482588E+03  0.00000000000E+00 0.  1.
         13    1    4    4    0    0  0.12347664485E+03 -0.35872040135E+02  0.24607878205E+03  0.27764735198E+03  0.00000000000E+00 0. -1.
          2    1    1    2  501    0  0.32825160514E+02 -0.39605134437E+02  0.30410711411E+03  0.30842696816E+03  0.00000000000E+00 0. -1.
<scales pt_clust_5="13000.00000" pt_clust_6="13000.00000" pt_clust_7="13000.00000" pt_clust_8="13000.00000" pt_clust_9="51.43987"></scales>
<clustering>
<clus scale="   51.440">  2  9  1 -1</clus>
<clus scale="   78.261">  5  6 -1 -1</clus>
<clus scale="   84.966">  7  8 -1 -1</clus>
<clus scale="  209.418">  1  5  2 -1</clus>
<clus scale="   51.440">  2  5  1 -1</clus>
</clustering>
</event>
<event>
 9    1  0.3197504E-005  0.1497411E+03  0.7546771E-02  0.1201860E+00
          1   -1    0    0  502    0 -0.00000000000E+00  0.00000000000E+00  0.67284426744E+03  0.67284426744E+03  0.00000000000E+00 0. -1.
         21   -1    0    0  501  502  0.00000000000E+00 -0.00000000000E+00 -0.54560475361E+02  0.54560475361E+02  0.00000000000E+00 0. -1.
         23    2    1    2    0    0  0.84408947304E+02  0.10720244388E+02  0.17756454889E+03  0.21690214883E+03  0.90981202017E+02 0.  0.
        -24    2    1    2    0    0 -0.15312521750E+03 -0.29062440638E+02  0.27861584310E+03  0.33348317618E+03  0.96396488931E+02 0.  0.
         13    1    4    4    0    0 -0.14583556071E+03 -0.11296229345E+02  0.17489572570E+03  0.22800028603E+03  0.00000000000E+00 0. -1.
        -14    1    4    4    0    0 -0.72896567979E+01 -0.17766211294E+02  0.10372011740E+03  0.10548289015E+03  0.00000000000E+00 0.  1.
        -11    1    3    3    0    0  0.84478482788E+02  0.39726060860E+02  0.15124385917E+03  0.17773429298E+03  0.00000000000E+00 0.  1.
         11    1    3    3    0    0 -0.69535483745E-01 -0.29005816472E+02  0.26320689721E+02  0.39167855849E+02  0.00000000000E+00 0. -1.
          2    1    1    2  501    0  0.68716270201E+02  0.18342196251E+02  0.16210340009E+03  0.17701941779E+03  0.00000000000E+00 0. -1.
<scales pt_clust_5="13000.00000" pt_clust_6="13000.00000" pt_clust_7="13000.00000" pt_clust_8="13000.00000" pt_clust_9="71.12220"></scales>
<clustering>
<clus scale="   71.122">  2  9  1 -1</clus>
<clus scale="   90.981">  7  8 -1 -1</clus>
<clus scale="   96.396">  5  6 -1 -1</clus>
<clus scale="  146.314">  1  7  2 -1</clus>
<clus scale="   71.122">  2  5  1 -1</clus>
</clustering>
</event>
<event>
 9    1  0.3197504E-005  0.9809038E+02  0.7546771E-02  0.1288926E+00
         21   -1    0    0  501  502  0.00000000000E+00  0.00000000000E+00  0.57956071687E+02  0.57956071687E+02  0.00000000000E+00 0.  1.
          3   -1    0    0  502    0 -0.00000000000E+00 -0.00000000000E+00 -0.47671581514E+03  0.47671581514E+03  0.00000000000E+00 0. -1.
        -24    2    1    2    0    0 -0.33753003568E+02  0.38512518893E+01 -0.35581633439E+03  0.36660536156E+03  0.81486992307E+02 0.  0.
         23    2    1    2    0    0  0.58467428387E+02 -0.12789218063E+02 -0.81761901352E+02  0.13574276178E+03  0.90327651266E+02 0.  0.
         11    1    3    3    0    0 -0.29481395927E+02 -0.25875333530E+02 -0.79385691060E+02  0.88548142477E+02  0.00000000000E+00 0. -1.
        -12    1    3    3    0    0 -0.42716076406E+01  0.29726585419E+02 -0.27643064333E+03  0.27805721909E+03  0.00000000000E+00 0.  1.
        -11    1    4    4    0    0  0.19547129173E+02  0.21026791453E+02  0.10072473015E+02  0.30424840679E+02  0.00000000000E+00 0.  1.
         11    1    4    4    0    0  0.38920299214E+02 -0.33816009516E+02 -0.91834374367E+02  0.10531792110E+03  0.00000000000E+00 0. -1.
          4    1    1    2  501    0 -0.24714424820E+02  0.89379661736E+01  0.18818492290E+02  0.32323763481E+02  0.00000000000E+00 0. -1.
<scales pt_clust_5="13000.00000" pt_clust_6="13000.00000" pt_clust_7="13000.00000" pt_clust_8="13000.00000" pt_clust_9="26.28098"></scales>
<clustering>
<clus scale="   26.281">  1  9  2 -1</clus>
<clus scale="   81.487">  5  6 -1 -1</clus>
<clus scale="   90.015">  2  5  1 -1</clus>
<clus scale="   90.328">  7  8 -1 -1</clus>
<clus scale="   26.281">  1  5  2 -1</clus>
</clustering>
</event>
<event>
 9    1  0.3197504E-005  0.1256850E+03  0.7546771E-02  0.1236957E+00
         21   -1    0    0  501  502  0.00000000000E+00  0.00000000000E+00  0.11542205199E+03  0.11542205199E+03  0.00000000000E+00 0. -1.
          1   -1    0    0  502    0 -0.00000000000E+00 -0.00000000000E+00 -0.44417508107E+03  0.44417508107E+03  0.00000000000E+00 0. -1.
        -24    2    1    2    0    0  0.94823413638E+02  0.30065423768E+02 -0.32798745145E+03  0.35203575598E+03  0.80361655684E+02 0.  0.
         23    2    1    2    0    0 -0.47204577381E+02  0.48813692388E+02 -0.14660666794E+02  0.11438121806E+03  0.90868472004E+02 0.  0.
         13    1    3    3    0    0  0.66738497805E+02  0.51798777900E+02 -0.27913875063E+03  0.29164290251E+03  0.00000000000E+00 0. -1.
        -14    1    3    3    0    0  0.28084915833E+02 -0.21733354132E+02 -0.48848700813E+02  0.60392853470E+02  0.00000000000E+00 0.  1.
        -11    1    4    4    0    0 -0.61677357489E+02  0.32678748510E+02 -0.40465558402E+02  0.80681214963E+02  0.00000000000E+00 0.  1.
         11    1    4    4    0    0  0.14472780108E+02  0.16134943878E+02  0.25804891608E+02  0.33700003100E+02  0.00000000000E+00 0. -1.
          2    1    1    2  501    0 -0.47618836256E+02 -0.78879116156E+02  0.13895089160E+02  0.93180159018E+02  0.00000000000E+00 0. -1.
<scales pt_clust_5="13000.00000" pt_clust_6="13000.00000" pt_clust_7="13000.00000" pt_clust_8="13000.00000" pt_clust_9="92.13831"></scales>
<clustering>
<clus scale="   80.362">  5  6 -1 -1</clus>
<clus scale="   90.868">  7  8 -1 -1</clus>
<clus scale="   92.138">  1  9  2 -1</clus>
<clus scale="  118.312">  2  5  1 -1</clus>
<clus scale="   92.138">  1  5  2 -1</clus>
</clustering>
</event>
<event>
 9    1  0.3197504E-005  0.1484909E+03  0.7546771E-02  0.1217896E+00
         21   -1    0    0  501  502  0.00000000000E+00  0.00000000000E+00  0.18147594441E+03  0.18147594441E+03  0.00000000000E+00 0. -1.
          1   -1    0    0  502    0 -0.00000000000E+00 -0.00000000000E+00 -0.44012810389E+03  0.44012810389E+03  0.00000000000E+00 0. -1.
        -24    2    1    2    0    0 -0.67693100185E+02 -0.16683592934E+02 -0.11500536365E+02  0.10714598792E+03  0.80543791219E+02 0.  0.
         23    2    1    2    0    0  0.96635390208E+01  0.11979082187E+03 -0.33475036858E+03  0.36724369004E+03  0.91470725483E+02 0.  0.
         11    1    3    3    0    0 -0.38044174987E+01  0.27246103486E+02  0.47750683702E+01  0.27921766163E+02  0.00000000000E+00 0. -1.
        -12    1    3    3    0    0 -0.63888682686E+02 -0.43929696420E+02 -0.16275604735E+02  0.79224221753E+02  0.00000000000E+00 0.  1.
        -11    1    4    4    0    0  0.20694801815E+02  0.65931334239E+02 -0.28446370019E+03  0.29273676295E+03  0.00000000000E+00 0. -1.
         11    1    4    4    0    0 -0.11031262794E+02  0.53859487635E+02 -0.50286668392E+02  0.74506927095E+02  0.00000000000E+00 0.  1.
          2    1    1    2  501    0  0.58029561164E+02 -0.10310722894E+03  0.87598745463E+02  0.14721437034E+03  0.00000000000E+00 0. -1.
<scales pt_clust_5="13000.00000" pt_clust_6="13000.00000" pt_clust_7="13000.00000" pt_clust_8="13000.00000" pt_clust_9="116.97284"></scales>
<clustering>
<clus scale="   80.544">  5  6 -1 -1</clus>
<clus scale="   91.471">  7  8 -1 -1</clus>
<clus scale="  106.527">  2  5  1 -1</clus>
<clus scale="  116.973">  1  9  2 -1</clus>
<clus scale="  116.973">  1  5  2 -1</clus>
</clustering>
</event>
<event>
 9    1  0.3197504E-005  0.9730286E+02  0.7546771E-02  0.1290183E+00
          3   -1    0    0  502    0 -0.00000000000E+00  0.00000000000E+00  0.10816619755E+03  0.10816619755E+03  0.00000000000E+00 0. -1.
         21   -1    0    0  501  502  0.00000000000E+00 -0.00000000000E+00 -0.20784324103E+03  0.20784324103E+03  0.00000000000E+00 0.  1.
        -24    2    1    2    0    0  0.99640369093E+01 -0.33405977266E+02  0.66267411782E+02  0.11223602742E+03  0.83608101506E+02 0.  0.
         23    2    1    2    0    0 -0.24924444933E+02  0.17386863819E+02 -0.13782255492E+03  0.16811857863E+03  0.91352443027E+02 0.  0.
         13    1    3    3    0    0 -0.31523937541E+02 -0.35477323082E+02  0.45692120156E+02  0.65879958527E+02  0.00000000000E+00 0. -1.
        -14    1    3    3    0    0  0.41487974450E+02  0.20713458165E+01  0.20575291627E+02  0.46356068890E+02  0.00000000000E+00 0.  1.
        -11    1    4    4    0    0  0.18219342234E+02  0.41462630271E+02 -0.81159220876E+02  0.92940374830E+02  0.00000000000E+00 0.  1.
         11    1    4    4    0    0 -0.43143787167E+02 -0.24075766453E+02 -0.56663334040E+02  0.75178203795E+02  0.00000000000E+00 0. -1.
          4    1    1    2  501    0  0.14960408023E+02  0.16019113447E+02 -0.28121900351E+02  0.35654832537E+02  0.00000000000E+00 0. -1.
<scales pt_clust_5="13000.00000" pt_clust_6="13000.00000" pt_clust_7="13000.00000" pt_clust_8="13000.00000" pt_clust_9="21.91862"></scales>
<clustering>
<clus scale="   21.919">  2  9  1 -1</clus>
<clus scale="   83.608">  5  6 -1 -1</clus>
<clus scale="   90.072">  1  5  2 -1</clus>
<clus scale="   91.352">  7  8 -1 -1</clus>
<clus scale="   21.919">  2  5  1 -1</clus>
</clustering>
</event>
<event>
 9    1  0.3197504E-005  0.1218019E+03  0.7546771E-02  0.1244748E+00
         -4   -1    0    0    0  501 -0.00000000000E+00  0.00000000000E+00  0.30741764848E+03  0.30741764848E+03  0.00000000000E+00 0.  1.
         21   -1    0    0  501  502  0.00000000000E+00 -0.00000000000E+00 -0.11830376255E+03  0.11830376255E+03  0.00000000000E+00 0. -1.
         23    2    1    2    0    0 -0.27330735086E+02 -0.68947319183E+02  0.23025611529E+03  0.25939667186E+03  0.93637881438E+02 0.  0.
        -24    2    1    2    0    0  0.38850452363E+02  0.85661773483E+02 -0.27652474390E+01  0.12290965413E+03  0.79068574031E+02 0.  0.
         13    1    4    4    0    0  0.59194578548E+02  0.81572451794E+02  0.45951131006E+01  0.10089191288E+03  0.00000000000E+00 0. -1.
        -14    1    4    4    0    0 -0.20344126185E+02  0.40893216885E+01 -0.73603605396E+01  0.22017741242E+02  0.00000000000E+00 0.  1.
        -13    1    3    3    0    0 -0.26137500017E+02 -0.89978751521E+02  0.15381950598E+03  0.18011048013E+03  0.00000000000E+00 0. -1.
         13    1    3    3    0    0 -0.11932350691E+01  0.21031432338E+02  0.76436609312E+02  0.79286191732E+02  0.00000000000E+00 0.  1.
         -3    1    1    2    0  502 -0.11519717277E+02 -0.16714454299E+02 -0.38376981915E+02  0.43415085046E+02  0.00000000000E+00 0.  1.
<scales pt_clust_5="13000.00000" pt_clust_6="13000.00000" pt_clust_7="13000.00000" pt_clust_8="13000.00000" pt_clust_9="20.29968"></scales>
<clustering>
<clus scale="   20.300">  2  9  1 -1</clus>
<clus scale="   79.069">  5  6 -1 -1</clus>
<clus scale="   93.638">  7  8 -1 -1</clus>
<clus scale="  110.993">  2  5  1 -1</clus>
<clus scale="   20.300">  2  5  1 -1</clus>
</clustering>
</event>
<event>
 9    1  0.3197504E-005  0.1021710E+03  0.7546771E-02  0.1281440E+00
         21   -1    0    0  501  502  0.00000000000E+00  0.00000000000E+00  0.13375318869E+03  0.13375318869E+03  0.00000000000E+00 0. -1.
          1   -1    0    0  502    0 -0.00000000000E+00 -0.00000000000E+00 -0.15292442635E+03  0.15292442635E+03  0.00000000000E+00 0. -1.
        -24    2    1    2    0    0  0.22743713893E+02 -0.40384764873E+02 -0.84036627116E+02  0.12395121286E+03  0.78444520000E+02 0.  0.
         23    2    1    2    0    0 -0.43651822292E+02  0.32765839887E+02  0.13156490687E+02  0.10643246622E+03  0.90419548578E+02 0.  0.
         11    1    3    3    0    0  0.86311323397E+01 -0.36391148712E+02 -0.97260158841E+02  0.10420340996E+03  0.00000000000E+00 0. -1.
        -12    1    3    3    0    0  0.14112581553E+02 -0.39936161612E+01  0.13223531725E+02  0.19747802902E+02  0.00000000000E+00 0.  1.
        -13    1    4    4    0    0 -0.50015834986E+02 -0.14344155693E+02 -0.10888922535E+02  0.53159262465E+02  0.00000000000E+00 0. -1.
         13    1    4    4    0    0  0.63640126940E+01  0.47109995579E+02  0.24045413221E+02  0.53273203752E+02  0.00000000000E+00 0.  1.
          2    1    1    2  501    0  0.20908108399E+02  0.76189249863E+01  0.51708898769E+02  0.56293935967E+02  0.00000000000E+00 0. -1.
<scales pt_clust_5="13000.00000" pt_clust_6="13000.00000" pt_clust_7="13000.00000" pt_clust_8="13000.00000" pt_clust_9="22.25302"></scales>
<clustering>
<clus scale="   22.253">  1  9  2 -1</clus>
<clus scale="   78.445">  5  6 -1 -1</clus>
<clus scale="   90.420">  7  8 -1 -1</clus>
<clus scale="   91.743">  2  5  1 -1</clus>
<clus scale="   22.253">  1  5  2 -1</clus>
</clustering>
</event>
<event>
 9    1  0.3197504E-005  0.9335012E+02  0.7546771E-02  0.1299448E+00
         21   -1    0    0  501  502  0.00000000000E+00  0.00000000000E+00  0.27509603108E+03  0.27509603108E+03  0.00000000000E+00 0. -1.
          1   -1    0    0  502    0 -0.00000000000E+00 -0.00000000000E+00 -0.18617409864E+03  0.18617409864E+03  0.00000000000E+00 0. -1.
         23    2    1    2    0    0 -0.17917444916E+02  0.14912042630E+02 -0.13411335585E+03  0.16319656898E+03  0.90018465114E+02 0.  0.
        -24    2    1    2    0    0  0.68697764425E+02  0.44217511271E+02  0.10365777972E+03  0.15550450889E+03  0.82232267680E+02 0.  0.
         11    1    4    4    0    0  0.73337089038E+02  0.51857667351E+02  0.53477057911E+02  0.10453392758E+03  0.00000000000E+00 0. -1.
        -12    1    4    4    0    0 -0.46393246135E+01 -0.76401560801E+01  0.50180721811E+02  0.50970581312E+02  0.00000000000E+00 0.  1.
        -13    1    3    3    0    0  0.61400108367E+01  0.37758630172E+02 -0.17705787426E+02  0.42153395995E+02  0.00000000000E+00 0.  1.
         13    1    3    3    0    0 -0.24057455753E+02 -0.22846587542E+02 -0.11640756842E+03  0.12104317298E+03  0.00000000000E+00 0. -1.
          2    1    1    2  501    0 -0.50780319509E+02 -0.59129553901E+02  0.11937750857E+03  0.14256905185E+03  0.00000000000E+00 0. -1.
<scales pt_clust_5="13000.00000" pt_clust_6="13000.00000" pt_clust_7="13000.00000" pt_clust_8="13000.00000" pt_clust_9="77.94193"></scales>
<clustering>
<clus scale="   77.942">  1  9  2 -1</clus>
<clus scale="   82.232">  5  6 -1 -1</clus>
<clus scale="   85.867">  1  5  2 -1</clus>
<clus scale="   90.018">  7  8 -1 -1</clus>
<clus scale="   77.942">  1  5  2 -1</clus>
</clustering>
</event>
<event>
 9    1  0.3197504E-005  0.1362524E+03  0.7546771E-02  0.1219096E+00
         21   -1    0    0  501  502  0.00000000000E+00  0.00000000000E+00  0.52354249303E+03  0.52354249303E+03  0.00000000000E+00 0.  1.
          1   -1    0    0  502    0 -0.00000000000E+00 -0.00000000000E+00 -0.52367193119E+02  0.52367193119E+02  0.00000000000E+00 0. -1.
         23    2    1    2    0    0 -0.46291288692E+02 -0.89329996205E+02  0.13860084159E+03  0.19190510770E+03  0.86571620308E+02 0.  0.
        -24    2    1    2    0    0  0.25789206008E+02  0.10963692985E+03  0.17750792614E+03  0.22627589890E+03  0.83704116069E+02 0.  0.
         13    1    4    4    0    0  0.38579789700E+01  0.81736300136E+02  0.54659150290E+02  0.98403909842E+02  0.00000000000E+00 0. -1.
        -14    1    4    4    0    0  0.21931227038E+02  0.27900629712E+02  0.12284877585E+03  0.12787198905E+03  0.00000000000E+00 0.  1.
        -11    1    3    3    0    0 -0.54562487448E+02 -0.24261701609E+02  0.34790911445E+02  0.69109353351E+02  0.00000000000E+00 0.  1.
         11    1    3    3    0    0  0.82711987557E+01 -0.65068294596E+02  0.10380993014E+03  0.12279575435E+03  0.00000000000E+00 0. -1.
          2    1    1    2  501    0  0.20502082684E+02 -0.20306933643E+02  0.15506653219E+03  0.15772867955E+03  0.00000000000E+00 0. -1.
<scales pt_clust_5="13000.00000" pt_clust_6="13000.00000" pt_clust_7="13000.00000" pt_clust_8="13000.00000" pt_clust_9="28.85666"></scales>
<clustering>
<clus scale="   28.857">  1  9  2 -1</clus>
<clus scale="   83.704">  5  6 -1 -1</clus>
<clus scale="   86.572">  7  8 -1 -1</clus>
<clus scale="  134.449">  1  5  2 -1</clus>
<clus scale="   28.857">  1  5  2 -1</clus>
</clustering>
</event>
<event>
 9    1  0.3197504E-005  0.1291581E+03  0.7546771E-02  0.1230820E+00
         21   -1    0    0  501  502  0.00000000000E+00  0.00000000000E+00  0.10468948999E+03  0.10468948999E+03  0.00000000000E+00 0. -1.
          1   -1    0    0  502    0 -0.00000000000E+00 -0.00000000000E+00 -0.33883660511E+03  0.33883660511E+03  0.00000000000E+00 0. -1.
         23    2    1    2    0    0 -0.31360754750E+02 -0.10486731600E+03 -0.20029350811E+03  0.24540842474E+03  0.90150732888E+02 0.  0.
        -24    2    1    2    0    0 -0.26269469411E+02  0.72829006131E+02 -0.59278927914E+02  0.12744841976E+03  0.82066797480E+02 0.  0.
         11    1    4    4    0    0 -0.21651731679E+02  0.20433283866E+02  0.17384939491E+02  0.34475392606E+02  0.00000000000E+00 0. -1.
        -12    1    4    4    0    0 -0.46177377318E+01  0.52395722266E+02 -0.76663867405E+02  0.92973027158E+02  0.00000000000E+00 0.  1.
        -11    1    3    3    0    0 -0.61389707325E+02 -0.63790386507E+02 -0.14790472974E+03  0.17237667666E+03  0.00000000000E+00 0. -1.
         11    1    3    3    0    0  0.30028952575E+02 -0.41076929493E+02 -0.52388778373E+02  0.73031748088E+02  0.00000000000E+00 0.  1.
          2    1    1    2  501    0  0.57630224161E+02  0.32038309869E+02  0.25425320903E+02  0.70669250591E+02  0.00000000000E+00 0. -1.
<scales pt_clust_5="13000.00000" pt_clust_6="13000.00000" pt_clust_7="13000.00000" pt_clust_8="13000.00000" pt_clust_9="65.93706"></scales>
<clustering>
<clus scale="   65.937">  1  9  2 -1</clus>
<clus scale="   82.067">  5  6 -1 -1</clus>
<clus scale="   90.151">  7  8 -1 -1</clus>
<clus scale="  123.651">  1  5  2 -1</clus>
<clus scale="   65.937">  1  5  2 -1</clus>
</clustering>
</event>
<event>
 9    1  0.3197504E-005  0.9121497E+02  0.7546771E-02  0.1305335E+00
         -2   -1    0    0    0  501 -0.00000000000E+00  0.00000000000E+00  0.16952628254E+03  0.16952628254E+03  0.00000000000E+00 0.  1.
         21   -1    0    0  501  502  0.00000000000E+00 -0.00000000000E+00 -0.18028209159E+03  0.18028209159E+03  0.00000000000E+00 0.  1.
        -24    2    1    2    0    0  0.12557018958E+02 -0.20795057702E+01  0.12307572135E+03  0.14787857142E+03  0.80984169011E+02 0.  0.
         23    2    1    2    0    0 -0.40343422576E+02 -0.15165781585E+02 -0.48903590572E+02  0.11092299459E+03  0.89748297373E+02 0.  0.
         13    1    3    3    0    0  0.21363781390E+02 -0.43539893559E+01 -0.25252397279E+01  0.21948695047E+02  0.00000000000E+00 0. -1.
        -14    1    3    3    0    0 -0.88067624318E+01  0.22744835857E+01  0.12560096107E+03  0.12592987637E+03  0.00000000000E+00 0.  1.
        -13    1    4    4    0    0 -0.18346959595E+02 -0.50168753622E+02 -0.44165528976E+02  0.69311678064E+02  0.00000000000E+00 0.  1.
         13    1    4    4    0    0 -0.21996462981E+02  0.35002972037E+02 -0.47380615961E+01  0.41611316524E+02  0.00000000000E+00 0. -1.
         -1    1    1    2    0  502  0.27786403618E+02  0.17245287355E+02 -0.84927939825E+02  0.91006808124E+02  0.00000000000E+00 0.  1.
<scales pt_clust_5="13000.00000" pt_clust_6="13000.00000" pt_clust_7="13000.00000" pt_clust_8="13000.00000" pt_clust_9="32.70297"></scales>
<clustering>
<clus scale="   32.703">  2  9  1 -1</clus>
<clus scale="   80.984">  5  6 -1 -1</clus>
<clus scale="   82.607">  1  5  2 -1</clus>
<clus scale="   89.748">  7  8 -1 -1</clus>
<clus scale="   32.703">  2  5  1 -1</clus>
</clustering>
</event>
<event>
 9    1  0.3197504E-005  0.1232939E+03  0.7546771E-02  0.1242474E+00
         21   -1    0    0  501  502  0.00000000000E+00  0.00000000000E+00  0.16493001919E+02  0.16493001919E+02  0.00000000000E+00 0. -1.
          3   -1    0    0  502    0 -0.00000000000E+00 -0.00000000000E+00 -0.12930638989E+04  0.12930638989E+04  0.00000000000E+00 0. -1.
        -24    2    1    2    0    0  0.70619395130E+02  0.28460230464E+02 -0.53740945489E+03  0.54881819927E+03  0.81212129353E+02 0.  0.
         23    2    1    2    0    0 -0.48627500008E+02 -0.72515025369E+02 -0.50272818385E+03  0.51923268919E+03  0.96145182019E+02 0.  0.
         11    1    3    3    0    0  0.32910719295E+02  0.46331295303E+02 -0.17458169227E+03  0.18359867005E+03  0.00000000000E+00 0. -1.
        -12    1    3    3    0    0  0.37708675836E+02 -0.17871064839E+02 -0.36282776262E+03  0.36521952922E+03  0.00000000000E+00 0.  1.
        -13    1    4    4    0    0 -0.77991518992E+02 -0.55066970403E+02 -0.38382142663E+03  0.39551730152E+03  0.00000000000E+00 0. -1.
         13    1    4    4    0    0  0.29364018984E+02 -0.17448054965E+02 -0.11890675722E+03  0.12371538767E+03  0.00000000000E+00 0.  1.
          4    1    1    2  501    0 -0.21991895123E+02  0.44054794904E+02 -0.23643325827E+03  0.24150601239E+03  0.00000000000E+00 0. -1.
<scales pt_clust_5="13000.00000" pt_clust_6="13000.00000" pt_clust_7="13000.00000" pt_clust_8="13000.00000" pt_clust_9="49.23892"></scales>
<clustering>
<clus scale="   49.239">  1  9  2 -1</clus>
<clus scale="   81.212">  5  6 -1 -1</clus>
<clus scale="   96.145">  7  8 -1 -1</clus>
<clus scale="  112.040">  2  5  1 -1</clus>
<clus scale="   49.239">  1  5  2 -1</clus>
</clustering>
</event>
<event>
 9    1  0.3197504E-005  0.1059133E+03  0.7546771E-02  0.1278400E+00
         -4   -1    0    0    0  501 -0.00000000000E+00  0.00000000000E+00  0.10388076565E+03  0.10388076565E+03  0.00000000000E+00 0.  1.
         21   -1    0    0  501  502  0.00000000000E+00 -0.00000000000E+00 -0.22500494612E+03  0.22500494612E+03  0.00000000000E+00 0.  1.
         23    2    1    2    0    0 -0.14268698426E+02  0.37185921554E+02  0.27822858219E+02  0.11150838635E+03  0.10036742635E+03 0.  0.
        -24    2    1    2    0    0 -0.37402608321E+02 -0.26958622461E+02 -0.50142643854E+02  0.10540933881E+03  0.80443281515E+02 0.  0.
         13    1    4    4    0    0 -0.30524020593E+02 -0.42880554584E+01 -0.68711360718E+02  0.75308394913E+02  0.00000000000E+00 0. -1.
        -14    1    4    4    0    0 -0.68785877281E+01 -0.22670567002E+02  0.18568716863E+02  0.30100943894E+02  0.00000000000E+00 0.  1.
        -13    1    3    3    0    0  0.60274554602E+00 -0.31765716127E+02 -0.74652935051E+01  0.32636706794E+02  0.00000000000E+00 0. -1.
         13    1    3    3    0    0 -0.14871443972E+02  0.68951637680E+02  0.35288151724E+02  0.78871679561E+02  0.00000000000E+00 0.  1.
         -3    1    1    2    0  502  0.51671306747E+02 -0.10227299093E+02 -0.98804394837E+02  0.11196798662E+03  0.00000000000E+00 0.  1.
<scales pt_clust_5="13000.00000" pt_clust_6="13000.00000" pt_clust_7="13000.00000" pt_clust_8="13000.00000" pt_clust_9="52.67373"></scales>
<clustering>
<clus scale="   52.674">  2  9  1 -1</clus>
<clus scale="   80.443">  5  6 -1 -1</clus>
<clus scale="   87.265">  2  5  1 -1</clus>
<clus scale="  100.367">  7  8 -1 -1</clus>
<clus scale="   52.674">  2  5  1 -1</clus>
</clustering>
</event>
<event>
 9    1  0.3197504E-005  0.1123584E+03  0.7546771E-02  0.1261549E+00
          1   -1    0    0  502    0 -0.00000000000E+00  0.00000000000E+00  0.40470414787E+02  0.40470414787E+02  0.00000000000E+00 0. -1.
         21   -1    0    0  501  502  0.00000000000E+00 -0.00000000000E+00 -0.58676350385E+03  0.58676350385E+03  0.00000000000E+00 0.  1.
        -24    2    1    2    0    0 -0.13013426165E+02  0.64175878809E+02 -0.56432393866E+02  0.11764689261E+03  0.79801526188E+02 0.  0.
         23    2    1    2    0    0 -0.13980207611E+02 -0.52657585695E+02 -0.33737334565E+03  0.35430109906E+03  0.93489180692E+02 0.  0.
         11    1    3    3    0    0 -0.41714643007E+02  0.11597111555E+02 -0.25072231087E+02  0.50032201723E+02  0.00000000000E+00 0. -1.
        -12    1    3    3    0    0  0.28701216842E+02  0.52578767255E+02 -0.31360162779E+02  0.67614690887E+02  0.00000000000E+00 0.  1.
        -13    1    4    4    0    0  0.38888664117E+02 -0.97551454552E+01 -0.12881067919E+03  0.13490619754E+03  0.00000000000E+00 0.  1.
         13    1    4    4    0    0 -0.52868871728E+02 -0.42902440240E+02 -0.20856266646E+03  0.21939490153E+03  0.00000000000E+00 0. -1.
          2    1    1    2  501    0  0.26993633776E+02 -0.11518293114E+02 -0.15248734955E+03  0.15528592697E+03  0.00000000000E+00 0. -1.
<scales pt_clust_5="13000.00000" pt_clust_6="13000.00000" pt_clust_7="13000.00000" pt_clust_8="13000.00000" pt_clust_9="29.34838"></scales>
<clustering>
<clus scale="   29.348">  2  9  1 -1</clus>
<clus scale="   79.802">  5  6 -1 -1</clus>
<clus scale="   93.489">  7  8 -1 -1</clus>
<clus scale="  101.254">  1  5  2 -1</clus>
<clus scale="   29.348">  2  5  1 -1</clus>
</clustering>
</event>
<event>
 9    1  0.3197504E-005  0.3436215E+03  0.7546771E-02  0.1111203E+00
         21   -1    0    0  501  502  0.00000000000E+00  0.00000000000E+00  0.42614297863E+03  0.42614297863E+03  0.00000000000E+00 0. -1.
          1   -1    0    0  502    0 -0.00000000000E+00 -0.00000000000E+00 -0.37271612464E+03  0.37271612464E+03  0.00000000000E+00 0. -1.
        -24    2    1    2    0    0  0.40094201087E+02  0.47417620914E+02  0.59572106999E+02  0.11773356692E+03  0.80351609281E+02 0.  0.
         23    2    1    2    0    0 -0.15476376341E+03 -0.32576108272E+03  0.52086200202E+02  0.37450672839E+03  0.86430387473E+02 0.  0.
         13    1    3    3    0    0  0.12944414649E+02 -0.18965652939E+02 -0.22147200638E+01  0.23068568377E+02  0.00000000000E+00 0. -1.
        -14    1    3    3    0    0  0.27149786438E+02  0.66383273854E+02  0.61786827063E+02  0.94664998546E+02  0.00000000000E+00 0.  1.
        -11    1    4    4    0    0 -0.65491539355E+02 -0.17833496553E+03 -0.12651102295E+02  0.19040102954E+03  0.00000000000E+00 0. -1.
         11    1    4    4    0    0 -0.89272224052E+02 -0.14742611719E+03  0.64737302497E+02  0.18410569885E+03  0.00000000000E+00 0.  1.
          2    1    1    2  501    0  0.11466956232E+03  0.27834346180E+03 -0.58231453217E+02  0.30661880796E+03  0.00000000000E+00 0. -1.
<scales pt_clust_5="13000.00000" pt_clust_6="13000.00000" pt_clust_7="13000.00000" pt_clust_8="13000.00000" pt_clust_9="332.57424"></scales>
<clustering>
<clus scale="   80.352">  5  6 -1 -1</clus>
<clus scale="   86.430">  7  8 -1 -1</clus>
<clus scale="  101.550">  2  5  1 -1</clus>
<clus scale="  332.574">  1  9  2 -1</clus>
<clus scale="  332.574">  1  5  2 -1</clus>
</clustering>
</event>
<event>
 9    1  0.3197504E-005  0.8879579E+02  0.7546771E-02  0.1307252E+00
          1   -1    0    0  502    0 -0.00000000000E+00  0.00000000000E+00  0.75902393282E+02  0.75902393282E+02  0.00000000000E+00 0. -1.
         21   -1    0    0  501  502  0.00000000000E+00 -0.00000000000E+00 -0.17131484939E+03  0.17131484939E+03  0.00000000000E+00 0. -1.
         23    2    1    2    0    0 -0.17167675373E+02 -0.16036595662E+02 -0.19983207423E+02  0.93873922920E+02  0.88662750619E+02 0.  0.
        -24    2    1    2    0    0 -0.14443858535E+02 -0.15288500756E+02 -0.53684686223E+02  0.10381174661E+03  0.86327689035E+02 0.  0.
         11    1    4    4    0    0 -0.49653699773E+02 -0.65983280396E+01 -0.42969550929E+02  0.65995531221E+02  0.00000000000E+00 0. -1.
        -12    1    4    4    0    0  0.35209841238E+02 -0.86901727163E+01 -0.10715135294E+02  0.37816215387E+02  0.00000000000E+00 0.  1.
        -13    1    3    3    0    0  0.53755441697E+00 -0.51563094645E+02 -0.15946380506E+02  0.53975260493E+02  0.00000000000E+00 0. -1.
         13    1    3    3    0    0 -0.17705229790E+02  0.35526498983E+02 -0.40368269180E+01  0.39898662427E+02  0.00000000000E+00 0.  1.
          2    1    1    2  501    0  0.31611533909E+02  0.31325096418E+02 -0.21744562463E+02  0.49531573146E+02  0.00000000000E+00 0. -1.
<scales pt_clust_5="13000.00000" pt_clust_6="13000.00000" pt_clust_7="13000.00000" pt_clust_8="13000.00000" pt_clust_9="44.50338"></scales>
<clustering>
<clus scale="   44.503">  2  9  1 -1</clus>
<clus scale="   86.328">  5  6 -1 -1</clus>
<clus scale="   86.464">  2  5  1 -1</clus>
<clus scale="   88.663">  7  8 -1 -1</clus>
<clus scale="   44.503">  2  5  1 -1</clus>
</clustering>
</event>
<event>
 9    1  0.3197504E-005  0.9734564E+02  0.7546771E-02  0.1291336E+00
         -2   -1    0    0    0  501 -0.00000000000E+00  0.00000000000E+00  0.16655576076E+03  0.16655576076E+03  0.00000000000E+00 0.  1.
         21   -1    0    0  501  502  0.00000000000E+00 -0.00000000000E+00 -0.14756286499E+03  0.14756286499E+03  0.00000000000E+00 0.  1.
        -24    2    1    2    0    0 -0.13163884976E+02 -0.16060105254E+02  0.11171161323E+03  0.14205287552E+03  0.85254443080E+02 0.  0.
         23    2    1    2    0    0  0.40929855969E+00  0.32396001808E+02 -0.27926330352E+02  0.10403932582E+03  0.94840038656E+02 0.  0.
         13    1    3    3    0    0  0.31105407546E+02  0.14127317422E+02  0.43907750388E+02  0.55632886141E+02  0.00000000000E+00 0. -1.
        -14    1    3    3    0    0 -0.44269292522E+02 -0.30187422676E+02  0.67803862839E+02  0.86419989379E+02  0.00000000000E+00 0.  1.
        -11    1    4    4    0    0 -0.46619607716E+02  0.14886905468E+02 -0.61066156085E+01  0.49318338701E+02  0.00000000000E+00 0.  1.
         11    1    4    4    0    0  0.47028906276E+02  0.17509096341E+02 -0.21819714744E+02  0.54720987122E+02  0.00000000000E+00 0. -1.
         -1    1    1    2    0  502  0.12754586416E+02 -0.16335896554E+02 -0.64792387110E+02  0.68026424412E+02  0.00000000000E+00 0.  1.
<scales pt_clust_5="13000.00000" pt_clust_6="13000.00000" pt_clust_7="13000.00000" pt_clust_8="13000.00000" pt_clust_9="20.72537"></scales>
<clustering>
<clus scale="   20.725">  2  9  1 -1</clus>
<clus scale="   85.254">  5  6 -1 -1</clus>
<clus scale="   88.033">  1  5  2 -1</clus>
<clus scale="   94.840">  7  8 -1 -1</clus>
<clus scale="   20.725">  2  5  1 -1</clus>
</clustering>
</event>
<event>
 9    1  0.3197504E-005  0.1892484E+03  0.7546771E-02  0.1171533E+00
         21   -1    0    0  501  502  0.00000000000E+00  0.00000000000E+00  0.61349107492E+02  0.61349107492E+02  0.00000000000E+00 0. -1.
          1   -1    0    0  502    0 -0.00000000000E+00 -0.00000000000E+00 -0.11607325770E+04  0.11607325770E+04  0.00000000000E+00 0. -1.
         23    2    1    2    0    0 -0.90528803572E+02  0.58948621920E+02 -0.18709892753E+03  0.23500693593E+03  0.92476196679E+02 0.  0.
        -24    2    1    2    0    0 -0.12687461628E+03 -0.31169526891E+02 -0.43300352629E+03  0.46005841381E+03  0.84219847291E+02 0.  0.
         13    1    4    4    0    0 -0.13418602100E+03 -0.31267313684E+02 -0.43098513573E+03  0.45247289461E+03  0.00000000000E+00 0. -1.
        -14    1    4    4    0    0  0.73114047117E+01  0.97786793527E-01 -0.20183905560E+01  0.75855192012E+01  0.00000000000E+00 0.  1.
        -11    1    3    3    0    0 -0.29523316285E+02  0.40078294359E+02 -0.15644439533E+03  0.16417291102E+03  0.00000000000E+00 0.  1.
         11    1    3    3    0    0 -0.61005487287E+02  0.18870327560E+02 -0.30654532205E+02  0.70834024917E+02  0.00000000000E+00 0. -1.
          2    1    1    2  501    0  0.21740341986E+03 -0.27779095029E+02 -0.47928101567E+03  0.52701633473E+03  0.00000000000E+00 0. -1.
<scales pt_clust_5="13000.00000" pt_clust_6="13000.00000" pt_clust_7="13000.00000" pt_clust_8="13000.00000" pt_clust_9="169.47571"></scales>
<clustering>
<clus scale="   84.220">  5  6 -1 -1</clus>
<clus scale="   92.476">  7  8 -1 -1</clus>
<clus scale="  142.205">  2  7  1 -1</clus>
<clus scale="  169.476">  1  9  2 -1</clus>
<clus scale="  169.476">  1  5  2 -1</clus>
</clustering>
</event>
<event>
 9    1  0.3197504E-005  0.1797724E+03  0.7546771E-02  0.1196719E+00
         21   -1    0    0  501  502  0.00000000000E+00  0.00000000000E+00  0.60211314550E+02  0.60211314550E+02  0.00000000000E+00 0. -1.
          3   -1    0    0  502    0 -0.00000000000E+00 -0.00000000000E+00 -0.81146484760E+03  0.81146484760E+03  0.00000000000E+00 0. -1.
         23    2    1    2    0    0 -0.13398607260E+02  0.13022624830E+02 -0.13774315851E+03  0.16707529418E+03  0.92692312377E+02 0.  0.
        -24    2    1    2    0    0 -0.13311840211E+03  0.65776916700E+02 -0.39469987561E+03  0.42972883188E+03  0.82654494119E+02 0.  0.
         13    1    4    4    0    0 -0.78796571627E+02  0.35313216065E+02 -0.32491838206E+03  0.33619618964E+03  0.00000000000E+00 0. -1.
        -14    1    4    4    0    0 -0.54321830484E+02  0.30463700635E+02 -0.69781493548E+02  0.93532642245E+02  0.00000000000E+00 0.  1.
        -11    1    3    3    0    0 -0.44325342204E+02  0.34657174576E+02 -0.73478022912E+02  0.92546612916E+02  0.00000000000E+00 0.  1.
         11    1    3    3    0    0  0.30926734944E+02 -0.21634549746E+02 -0.64265135599E+02  0.74528681262E+02  0.00000000000E+00 0. -1.
          4    1    1    2  501    0  0.14651700937E+03 -0.78799541530E+02 -0.21881049893E+03  0.27487203609E+03  0.00000000000E+00 0. -1.
<scales pt_clust_5="13000.00000" pt_clust_6="13000.00000" pt_clust_7="13000.00000" pt_clust_8="13000.00000" pt_clust_9="159.64449"></scales>
<clustering>
<clus scale="   82.654">  5  6 -1 -1</clus>
<clus scale="   92.692">  7  8 -1 -1</clus>
<clus scale="   94.557">  2  7  1 -1</clus>
<clus scale="  159.644">  1  9  2 -1</clus>
<clus scale="  159.644">  1  5  2 -1</clus>
</clustering>
</event>
<event>
 9    1  0.3197504E-005  0.9643957E+02  0.7546771E-02  0.1293549E+00
         -4   -1    0    0    0  501 -0.00000000000E+00  0.00000000000E+00  0.13824118247E+03  0.13824118247E+03  0.00000000000E+00 0.  1.
         21   -1    0    0  501  502  0.00000000000E+00 -0.00000000000E+00 -0.12500484815E+03  0.12500484815E+03  0.00000000000E+00 0. -1.
        -24    2    1    2    0    0  0.17695417617E+01 -0.29158880292E+02  0.73535856955E+02  0.11274162515E+03  0.80310523623E+02 0.  0.
         23    2    1    2    0    0  0.24119398585E+02  0.48540287342E+02 -0.45544858832E+02  0.11495758740E+03  0.90570457940E+02 0.  0.
         11    1    3    3    0    0 -0.68755737270E+01 -0.48646510773E+02  0.76803920507E+02  0.91173454084E+02  0.00000000000E+00 0. -1.
        -12    1    3    3    0    0  0.86451154888E+01  0.19487630481E+02 -0.32680635522E+01  0.21568171062E+02  0.00000000000E+00 0.  1.
        -13    1    4    4    0    0  0.39488456196E+01  0.68858076911E+02 -0.10597917036E+02  0.69780684885E+02  0.00000000000E+00 0.  1.
         13    1    4    4    0    0  0.20170552965E+02 -0.20317789569E+02 -0.34946941796E+02  0.45176902515E+02  0.00000000000E+00 0. -1.
         -3    1    1    2    0  502 -0.25888940347E+02 -0.19381407050E+02 -0.14754663796E+02  0.35546818074E+02  0.00000000000E+00 0.  1.
<scales pt_clust_5="13000.00000" pt_clust_6="13000.00000" pt_clust_7="13000.00000" pt_clust_8="13000.00000" pt_clust_9="32.34001"></scales>
<clustering>
<clus scale="   32.340">  2  9  1 -1</clus>
<clus scale="   80.311">  5  6 -1 -1</clus>
<clus scale="   86.876">  1  5  2 -1</clus>
<clus scale="   90.570">  7  8 -1 -1</clus>
<clus scale="   32.340">  2  5  1 -1</clus>
</clustering>
</event>
<event>
 9    1  0.3197504E-005  0.9754496E+02  0.7546771E-02  0.1292398E+00
          1   -1    0    0  502    0 -0.00000000000E+00  0.00000000000E+00  0.58764300970E+03  0.58764300970E+03  0.00000000000E+00 0. -1.
         21   -1    0    0  501  502  0.00000000000E+00 -0.00000000000E+00 -0.33151081181E+02  0.33151081181E+02  0.00000000000E+00 0. -1.
        -24    2    1    2    0    0  0.86780590580E+01 -0.36564361380E+02  0.40855381645E+03  0.41816139721E+03  0.80811335525E+02 0.  0.
         23    2    1    2    0    0  0.12824260743E+02  0.26261328591E+01  0.12736725548E+03  0.15837176478E+03  0.93208582611E+02 0.  0.
         13    1    3    3    0    0  0.26947536467E+02 -0.51835832696E+02  0.35175052266E+03  0.35656914261E+03  0.00000000000E+00 0. -1.
        -14    1    3    3    0    0 -0.18269477409E+02  0.15271471316E+02  0.56803293793E+02  0.61592254600E+02  0.00000000000E+00 0.  1.
        -11    1    4    4    0    0  0.47175638659E+02  0.24177171367E+02  0.80620531629E+02  0.96487028239E+02  0.00000000000E+00 0. -1.
         11    1    4    4    0    0 -0.34351377915E+02 -0.21551038508E+02  0.46746723853E+02  0.61884736538E+02  0.00000000000E+00 0.  1.
          2    1    1    2  501    0 -0.21502319802E+02  0.33938228521E+02  0.18570856587E+02  0.44260928892E+02  0.00000000000E+00 0. -1.
<scales pt_clust_5="13000.00000" pt_clust_6="13000.00000" pt_clust_7="13000.00000" pt_clust_8="13000.00000" pt_clust_9="40.17652"></scales>
<clustering>
<clus scale="   40.177">  2  9  1 -1</clus>
<clus scale="   80.811">  5  6 -1 -1</clus>
<clus scale="   85.777">  1  5  2 -1</clus>
<clus scale="   93.209">  7  8 -1 -1</clus>
<clus scale="   40.177">  2  5  1 -1</clus>
</clustering>
</event>
<event>
 9    1  0.3197504E-005  0.1555108E+03  0.7546771E-02  0.1205510E+00
          1   -1    0    0  502    0 -0.00000000000E+00  0.00000000000E+00  0.19077166895E+03  0.19077166895E+03  0.00000000000E+00 0. -1.
         21   -1    0    0  501  502  0.00000000000E+00 -0.00000000000E+00 -0.25132990379E+03  0.25132990379E+03  0.00000000000E+00 0. -1.
        -24    2    1    2    0    0 -0.24006216589E+02 -0.91895022587E+02 -0.20873356066E+02  0.12252078783E+03  0.74529543450E+02 0.  0.
         23    2    1    2    0    0 -0.90681518584E+02  0.12993453509E+03  0.20522959669E+02  0.18457980372E+03  0.92425055293E+02 0.  0.
         11    1    3    3    0    0 -0.21505606668E+02 -0.10510036141E+03 -0.18013821109E+02  0.10877993766E+03  0.00000000000E+00 0. -1.
        -12    1    3    3    0    0 -0.25006099219E+01  0.13205338821E+02 -0.28595349567E+01  0.13740850175E+02  0.00000000000E+00 0.  1.
        -11    1    4    4    0    0 -0.10076884525E+03  0.98687665376E+02  0.39738198419E+02  0.14653579728E+03  0.00000000000E+00 0. -1.
         11    1    4    4    0    0  0.10087326663E+02  0.31246869713E+02 -0.19215238749E+02  0.38044006443E+02  0.00000000000E+00 0.  1.
          2    1    1    2  501    0  0.11468773517E+03 -0.38039512503E+02 -0.60207838449E+02  0.13500098119E+03  0.00000000000E+00 0. -1.
<scales pt_clust_5="13000.00000" pt_clust_6="13000.00000" pt_clust_7="13000.00000" pt_clust_8="13000.00000" pt_clust_9="125.06480"></scales>
<clustering>
<clus scale="   74.530">  5  6 -1 -1</clus>
<clus scale="   92.425">  7  8 -1 -1</clus>
<clus scale="  120.730">  1  5  2 -1</clus>
<clus scale="  125.065">  2  9  1 -1</clus>
<clus scale="  125.065">  2  5  1 -1</clus>
</clustering>
</event>
<event>
 9    1  0.3197504E-005  0.1811180E+03  0.7546771E-02  0.1197275E+00
         -2   -1    0    0    0  501 -0.00000000000E+00  0.00000000000E+00  0.71557103758E+03  0.71557103758E+03  0.00000000000E+00 0.  1.
         21   -1    0    0  501  502  0.00000000000E+00 -0.00000000000E+00 -0.12364566735E+03  0.12364566735E+03  0.00000000000E+00 0.  1.
        -24    2    1    2    0    0  0.42440720875E+02 -0.19734244416E+01  0.46845045342E+03  0.47727385697E+03  0.80866544644E+02 0.  0.
         23    2    1    2    0    0  0.11459034752E+03 -0.71770954620E+02  0.85396007235E+02  0.18432811536E+03  0.91664379053E+02 0.  0.
         13    1    3    3    0    0 -0.21891462957E+02  0.77542880941E+01  0.76088767172E+02  0.79554167861E+02  0.00000000000E+00 0. -1.
        -14    1    3    3    0    0  0.64332183832E+02 -0.97277125358E+01  0.39236168625E+03  0.39771968911E+03  0.00000000000E+00 0.  1.
        -13    1    4    4    0    0  0.20608805855E+02  0.90693191312E+01 -0.13052018799E+02  0.26025576324E+02  0.00000000000E+00 0. -1.
         13    1    4    4    0    0  0.93981541669E+02 -0.80840273751E+02  0.98448026034E+02  0.15830253903E+03  0.00000000000E+00 0.  1.
         -1    1    1    2    0  502 -0.15703106840E+03  0.73744379062E+02  0.38078909572E+02  0.17761473261E+03  0.00000000000E+00 0.  1.
<scales pt_clust_5="13000.00000" pt_clust_6="13000.00000" pt_clust_7="13000.00000" pt_clust_8="13000.00000" pt_clust_9="156.20936"></scales>
<clustering>
<clus scale="   80.867">  5  6 -1 -1</clus>
<clus scale="   91.348">  1  5  2 -1</clus>
<clus scale="   91.664">  7  8 -1 -1</clus>
<clus scale="  156.209">  2  9  1 -1</clus>
<clus scale="  156.209">  2  5  1 -1</clus>
</clustering>
</event>
<event>
 9    1  0.3197504E-005  0.1641228E+03  0.7546771E-02  0.1185557E+00
         21   -1    0    0  501  502  0.00000000000E+00  0.00000000000E+00  0.55543043665E+02  0.55543043665E+02  0.00000000000E+00 0. -1.
         -4   -1    0    0    0  501 -0.00000000000E+00 -0.00000000000E+00 -0.89166669873E+03  0.89166669873E+03  0.00000000000E+00 0.  1.
        -24    2    1    2    0    0  0.13384764003E+03  0.55386605305E+02 -0.64668115694E+03  0.66756317779E+03  0.80381657169E+02 0.  0.
         23    2    1    2    0    0 -0.11705587927E+03 -0.24748491466E+02 -0.19322048596E+03  0.24450498750E+03  0.90188502692E+02 0.  0.
         11    1    3    3    0    0  0.70179498442E+02  0.71262376915E+02 -0.39641775754E+03  0.40884046627E+03  0.00000000000E+00 0. -1.
        -12    1    3    3    0    0  0.63668141585E+02 -0.15875771610E+02 -0.25026339940E+03  0.25872271152E+03  0.00000000000E+00 0.  1.
        -13    1    4    4    0    0 -0.84955889359E+01  0.27796774309E+02 -0.33256097927E+02  0.44167903988E+02  0.00000000000E+00 0.  1.
         13    1    4    4    0    0 -0.10856029033E+03 -0.52545265774E+02 -0.15996438803E+03  0.20033708351E+03  0.00000000000E+00 0. -1.
         -3    1    1    2    0  502 -0.16791760759E+02 -0.30638113840E+02  0.37779878387E+01  0.35141577101E+02  0.00000000000E+00 0.  1.
<scales pt_clust_5="13000.00000" pt_clust_6="13000.00000" pt_clust_7="13000.00000" pt_clust_8="13000.00000" pt_clust_9="34.93791"></scales>
<clustering>
<clus scale="   34.938">  1  9  2 -1</clus>
<clus scale="   80.382">  5  6 -1 -1</clus>
<clus scale="   90.189">  7  8 -1 -1</clus>
<clus scale="  158.945">  2  5  1 -1</clus>
<clus scale="   34.938">  1  5  2 -1</clus>
</clustering>
</event>
<event>
 9    1  0.3197504E-005  0.2483712E+03  0.7546771E-02  0.1114339E+00
         21   -1    0    0  501  502  0.00000000000E+00  0.00000000000E+00  0.58202854300E+02  0.58202854300E+02  0.00000000000E+00 0. -1.
          1   -1    0    0  502    0 -0.00000000000E+00 -0.00000000000E+00 -0.74337453433E+03  0.74337453433E+03  0.00000000000E+00 0. -1.
        -24    2    1    2    0    0  0.33586637722E+02  0.85301046311E+02 -0.21924431506E+03  0.25367929122E+03  0.88773770769E+02 0.  0.
         23    2    1    2    0    0  0.39949773917E+02  0.56840580264E+02 -0.12021589492E+03  0.16694105735E+03  0.92685593469E+02 0.  0.
         11    1    3    3    0    0 -0.27987531797E+02  0.48099281590E+02 -0.93193585370E+02  0.10854440188E+03  0.00000000000E+00 0. -1.
        -12    1    3    3    0    0  0.61574169519E+02  0.37201764721E+02 -0.12605072969E+03  0.14513488934E+03  0.00000000000E+00 0.  1.
        -11    1    4    4    0    0 -0.20759376508E+02 -0.65015537663E+01 -0.53526645084E+01  0.22402520656E+02  0.00000000000E+00 0.  1.
         11    1    4    4    0    0  0.60709150425E+02  0.63342134030E+02 -0.11486323042E+03  0.14453853670E+03  0.00000000000E+00 0. -1.
          2    1    1    2  501    0 -0.73536411639E+02 -0.14214162657E+03 -0.34571147005E+03  0.38095704005E+03  0.00000000000E+00 0. -1.
<scales pt_clust_5="13000.00000" pt_clust_6="13000.00000" pt_clust_7="13000.00000" pt_clust_8="13000.00000" pt_clust_9="160.03709"></scales>
<clustering>
<clus scale="   88.774">  5  6 -1 -1</clus>
<clus scale="   92.686">  7  8 -1 -1</clus>
<clus scale="  104.418">  5  7 -1 -1</clus>
<clus scale="  160.037">  1  9  2 -1</clus>
<clus scale="  160.037">  1  5  2 -1</clus>
</clustering>
</event>
<event>
 9    1  0.3197504E-005  0.1001232E+03  0.7546771E-02  0.1285601E+00
          1   -1    0    0  502    0 -0.00000000000E+00  0.00000000000E+00  0.52131259659E+03  0.52131259659E+03  0.00000000000E+00 0. -1.
         21   -1    0    0  501  502  0.00000000000E+00 -0.00000000000E+00 -0.53411007179E+02  0.53411007179E+02  0.00000000000E+00 0.  1.
        -24    2    1    2    0    0 -0.21499958533E+02 -0.29961505926E+02  0.32566418915E+03  0.33716534415E+03  0.79141424995E+02 0.  0.
         23    2    1    2    0    0  0.43136087598E+01  0.70389149431E+02  0.15409105321E+03  0.19205799515E+03  0.90382416680E+02 0.  0.
         11    1    3    3    0    0 -0.32485896900E+02 -0.48909798472E+02  0.28492139694E+03  0.29090841225E+03  0.00000000000E+00 0. -1.
        -12    1    3    3    0    0  0.10985938367E+02  0.18948292545E+02  0.40742792212E+02  0.46256931907E+02  0.00000000000E+00 0.  1.
        -11    1    4    4    0    0  0.42497616650E+02  0.35589629219E+02  0.11365599394E+03  0.12645297184E+03  0.00000000000E+00 0.  1.
         11    1    4    4    0    0 -0.38184007890E+02  0.34799520212E+02  0.40435059266E+02  0.65605023309E+02  0.00000000000E+00 0. -1.
          2    1    1    2  501    0  0.17186349773E+02 -0.40427643505E+02 -0.11853652948E+02  0.45500264462E+02  0.00000000000E+00 0. -1.
<scales pt_clust_5="13000.00000" pt_clust_6="13000.00000" pt_clust_7="13000.00000" pt_clust_8="13000.00000" pt_clust_9="43.92909"></scales>
<clustering>
<clus scale="   43.929">  2  9  1 -1</clus>
<clus scale="   79.141">  5  6 -1 -1</clus>
<clus scale="   90.106">  1  5  2 -1</clus>
<clus scale="   90.382">  7  8 -1 -1</clus>
<clus scale="   43.929">  2  5  1 -1</clus>
</clustering>
</event>
<event>
 9    1  0.3197504E-005  0.9132911E+02  0.7546771E-02  0.1304534E+00
         21   -1    0    0  501  502  0.00000000000E+00  0.00000000000E+00  0.16431308390E+03  0.16431308390E+03  0.00000000000E+00 0. -1.
         -4   -1    0    0    0  501 -0.00000000000E+00 -0.00000000000E+00 -0.10288877116E+03  0.10288877116E+03  0.00000000000E+00 0.  1.
        -24    2    1    2    0    0  0.21910689899E+02 -0.77865761926E+01 -0.11243120264E+02  0.84544519298E+02  0.80502539646E+02 0.  0.
         23    2    1    2    0    0 -0.20508400053E+02 -0.43698710814E+02  0.82379577295E+02  0.13024524802E+03  0.88584750808E+02 0.  0.
         13    1    3    3    0    0 -0.63908017712E+01 -0.20050396068E+02  0.27749922887E+02  0.34826985944E+02  0.00000000000E+00 0. -1.
        -14    1    3    3    0    0  0.28301491670E+02  0.12263819875E+02 -0.38993043150E+02  0.49717533354E+02  0.00000000000E+00 0.  1.
        -13    1    4    4    0    0  0.33553418557E+02 -0.28072960366E+02  0.27698934376E+02  0.51779860623E+02  0.00000000000E+00 0. -1.
         13    1    4    4    0    0 -0.54061818611E+02 -0.15625750448E+02  0.54680642919E+02  0.78465387392E+02  0.00000000000E+00 0.  1.
         -3    1    1    2    0  502 -0.14022898453E+01  0.51485287006E+02 -0.97121442967E+01  0.52412087745E+02  0.00000000000E+00 0.  1.
<scales pt_clust_5="13000.00000" pt_clust_6="13000.00000" pt_clust_7="13000.00000" pt_clust_8="13000.00000" pt_clust_9="51.50441"></scales>
<clustering>
<clus scale="   51.504">  1  9  2 -1</clus>
<clus scale="   80.503">  5  6 -1 -1</clus>
<clus scale="   83.513">  2  5  1 -1</clus>
<clus scale="   88.585">  7  8 -1 -1</clus>
<clus scale="   51.504">  1  5  2 -1</clus>
</clustering>
</event>
<event>
 9    1  0.3197504E-005  0.9398185E+02  0.7546771E-02  0.1300616E+00
          1   -1    0    0  502    0 -0.00000000000E+00  0.00000000000E+00  0.41291404046E+03  0.41291404046E+03  0.00000000000E+00 0. -1.
         21   -1    0    0  501  502  0.00000000000E+00 -0.00000000000E+00 -0.44943559473E+02  0.44943559473E+02  0.00000000000E+00 0. -1.
        -24    2    1    2    0    0 -0.44292555797E+01  0.23923905183E+02  0.14135824217E+03  0.16496318710E+03  0.81478395444E+02 0.  0.
         23    2    1    2    0    0 -0.30486630782E+02  0.38109690473E+02  0.17773756920E+03  0.20654616769E+03  0.93214230225E+02 0.  0.
         13    1    3    3    0    0  0.22939209646E+02  0.12121529751E+02  0.63588298637E+01  0.26712797306E+02  0.00000000000E+00 0. -1.
        -14    1    3    3    0    0 -0.27368465225E+02  0.11802375432E+02  0.13499941231E+03  0.13825038979E+03  0.00000000000E+00 0.  1.
        -11    1    4    4    0    0  0.29840729011E+02  0.45383188447E+01  0.89850944919E+02  0.94785324543E+02  0.00000000000E+00 0.  1.
         11    1    4    4    0    0 -0.60327359793E+02  0.33571371628E+02  0.87886624280E+02  0.11176084314E+03  0.00000000000E+00 0. -1.
          2    1    1    2  501    0  0.34915886362E+02 -0.62033595656E+02  0.48874669620E+02  0.86348245152E+02  0.00000000000E+00 0. -1.
<scales pt_clust_5="13000.00000" pt_clust_6="13000.00000" pt_clust_7="13000.00000" pt_clust_8="13000.00000" pt_clust_9="71.18487"></scales>
<clustering>
<clus scale="   71.185">  2  9  1 -1</clus>
<clus scale="   81.478">  5  6 -1 -1</clus>
<clus scale="   82.355">  1  5  2 -1</clus>
<clus scale="   93.214">  7  8 -1 -1</clus>
<clus scale="   71.185">  2  5  1 -1</clus>
</clustering>
</event>
<event>
 9    1  0.3197504E-005  0.1395824E+03  0.7546771E-02  0.1227383E+00
         21   -1    0    0  501  502  0.00000000000E+00  0.00000000000E+00  0.10163372766E+04  0.10163372766E+04  0.00000000000E+00 0. -1.
          1   -1    0    0  502    0 -0.00000000000E+00 -0.00000000000E+00 -0.90829349965E+02  0.90829349965E+02  0.00000000000E+00 0. -1.
         23    2    1    2    0    0 -0.40042415188E+02 -0.34992287639E+02  0.35924740034E+03  0.37432806509E+03  0.90746627815E+02 0.  0.
        -24    2    1    2    0    0  0.33836466467E+02 -0.82108051232E+02 -0.31845883424E+02  0.12334509923E+03  0.79455740339E+02 0.  0.
         11    1    4    4    0    0  0.36318344225E+02 -0.68831043625E+02 -0.55857239219E+02  0.95795437610E+02  0.00000000000E+00 0. -1.
        -12    1    4    4    0    0 -0.24818777577E+01 -0.13277007608E+02  0.24011355795E+02  0.27549661620E+02  0.00000000000E+00 0.  1.
        -13    1    3    3    0    0 -0.64629905468E+02 -0.40723008343E+02  0.22192716330E+03  0.23470631415E+03  0.00000000000E+00 0.  1.
         13    1    3    3    0    0  0.24587490280E+02  0.57307207041E+01  0.13732023704E+03  0.13962175095E+03  0.00000000000E+00 0. -1.
          2    1    1    2  501    0  0.62059487203E+01  0.11710033887E+03  0.59810640969E+03  0.60949346221E+03  0.00000000000E+00 0. -1.
<scales pt_clust_5="13000.00000" pt_clust_6="13000.00000" pt_clust_7="13000.00000" pt_clust_8="13000.00000" pt_clust_9="114.76075"></scales>
<clustering>
<clus scale="   79.456">  5  6 -1 -1</clus>
<clus scale="   90.747">  7  8 -1 -1</clus>
<clus scale="  105.180">  2  7  1 -1</clus>
<clus scale="  114.761">  1  9  2 -1</clus>
<clus scale="  114.761">  1  5  2 -1</clus>
</clustering>
</event>
<event>
 9    1  0.3197504E-005  0.2549313E+03  0.7546771E-02  0.1147839E+00
         21   -1    0    0  501  502  0.00000000000E+00  0.00000000000E+00  0.81991215358E+02  0.81991215358E+02  0.00000000000E+00 0. -1.
          1   -1    0    0  502    0 -0.00000000000E+00 -0.00000000000E+00 -0.15496524408E+04  0.15496524408E+04  0.00000000000E+00 0. -1.
        -24    2    1    2    0    0  0.61160954034E+02 -0.11620947082E+02 -0.53830088080E+03  0.54769917667E+03  0.79566583134E+02 0.  0.
         23    2    1    2    0    0 -0.55829128464E+02  0.24476366997E+03 -0.72746659366E+03  0.77548857618E+03  0.95649052154E+02 0.  0.
         13    1    3    3    0    0  0.78907326161E+02 -0.19510216874E+02 -0.45073112739E+03  0.45800170729E+03  0.00000000000E+00 0. -1.
        -14    1    3    3    0    0 -0.17746372126E+02  0.78892697924E+01 -0.87569753407E+02  0.89697469380E+02  0.00000000000E+00 0.  1.
        -11    1    4    4    0    0 -0.74626796056E+02  0.23142295484E+03 -0.68895498995E+03  0.73060572191E+03  0.00000000000E+00 0. -1.
         11    1    4    4    0    0  0.18797667592E+02  0.13340715133E+02 -0.38511603710E+02  0.44882854270E+02  0.00000000000E+00 0.  1.
          2    1    1    2  501    0 -0.53318255704E+01 -0.23314272289E+03 -0.20189375101E+03  0.30845590332E+03  0.00000000000E+00 0. -1.
<scales pt_clust_5="13000.00000" pt_clust_6="13000.00000" pt_clust_7="13000.00000" pt_clust_8="13000.00000" pt_clust_9="236.30752"></scales>
<clustering>
<clus scale="   79.567">  5  6 -1 -1</clus>
<clus scale="   95.649">  7  8 -1 -1</clus>
<clus scale="  101.027">  2  5  1 -1</clus>
<clus scale="  236.308">  1  9  2 -1</clus>
<clus scale="  236.308">  1  5  2 -1</clus>
</clustering>
</event>
<event>
 9    1  0.3197504E-005  0.9463470E+02  0.7546771E-02  0.1292450E+00
         21   -1    0    0  501  502  0.00000000000E+00  0.00000000000E+00  0.87423783757E+02  0.87423783757E+02  0.00000000000E+00 0. -1.
          3   -1    0    0  502    0 -0.00000000000E+00 -0.00000000000E+00 -0.23935802278E+03  0.23935802278E+03  0.00000000000E+00 0. -1.
        -24    2    1    2    0    0 -0.48403736741E+02  0.81252665763E+01 -0.16353192326E+03  0.18904893506E+03  0.81165683852E+02 0.  0.
         23    2    1    2    0    0  0.43108233491E+02  0.17203333612E+02 -0.20508537778E+02  0.96497088056E+02  0.82078093298E+02 0.  0.
         11    1    3    3    0    0 -0.34730180177E+02 -0.30072207092E+02 -0.47292088056E+02  0.65932273184E+02  0.00000000000E+00 0. -1.
        -12    1    3    3    0    0 -0.13673556564E+02  0.38197473668E+02 -0.11623983520E+03  0.12311666187E+03  0.00000000000E+00 0.  1.
        -13    1    4    4    0    0  0.32228091133E+02 -0.29482283434E+02 -0.21207645834E+02  0.48555320372E+02  0.00000000000E+00 0.  1.
         13    1    4    4    0    0  0.10880142358E+02  0.46685617045E+02  0.69910805616E+00  0.47941767685E+02  0.00000000000E+00 0. -1.
          4    1    1    2  501    0  0.52955032500E+01 -0.25328600188E+02  0.32106222014E+02  0.41235783419E+02  0.00000000000E+00 0. -1.
<scales pt_clust_5="13000.00000" pt_clust_6="13000.00000" pt_clust_7="13000.00000" pt_clust_8="13000.00000" pt_clust_9="25.87625"></scales>
<clustering>
<clus scale="   25.876">  1  9  2 -1</clus>
<clus scale="   81.166">  5  6 -1 -1</clus>
<clus scale="   82.078">  7  8 -1 -1</clus>
<clus scale="   93.844">  2  5  1 -1</clus>
<clus scale="   25.876">  1  5  2 -1</clus>
</clustering>
</event>
<event>
 9    1  0.3197504E-005  0.1122631E+03  0.7546771E-02  0.1267346E+00
         -4   -1    0    0    0  501 -0.00000000000E+00  0.00000000000E+00  0.13136702899E+03  0.13136702899E+03  0.00000000000E+00 0.  1.
         21   -1    0    0  501  502  0.00000000000E+00 -0.00000000000E+00 -0.12488430896E+03  0.12488430896E+03  0.00000000000E+00 0.  1.
         23    2    1    2    0    0 -0.43342027997E+02  0.50893928836E+01  0.42860326100E+02  0.12049148997E+03  0.10381116650E+03 0.  0.
        -24    2    1    2    0    0  0.39465142735E+02  0.30951901682E+02 -0.29337265441E+02  0.98833278294E+02  0.79948883957E+02 0.  0.
         11    1    4    4    0    0 -0.12919492262E+02 -0.18124147212E+02 -0.34342328788E+01  0.22520922448E+02  0.00000000000E+00 0. -1.
        -12    1    4    4    0    0  0.52384634997E+02  0.49076048894E+02 -0.25903032562E+02  0.76312355845E+02  0.00000000000E+00 0.  1.
        -11    1    3    3    0    0 -0.65433252723E+02 -0.24796176440E+02  0.96226144117E+01  0.70632539499E+02  0.00000000000E+00 0.  1.
         11    1    3    3    0    0  0.22091224727E+02  0.29885569323E+02  0.33237711688E+02  0.49858950470E+02  0.00000000000E+00 0. -1.
         -3    1    1    2    0  502  0.38768852617E+01 -0.36041294565E+02 -0.70403406305E+01  0.36926569696E+02  0.00000000000E+00 0.  1.
<scales pt_clust_5="13000.00000" pt_clust_6="13000.00000" pt_clust_7="13000.00000" pt_clust_8="13000.00000" pt_clust_9="36.24921"></scales>
<clustering>
<clus scale="   36.249">  2  9  1 -1</clus>
<clus scale="   79.949">  5  6 -1 -1</clus>
<clus scale="   90.654">  2  5  1 -1</clus>
<clus scale="  103.811">  7  8 -1 -1</clus>
<clus scale="   36.249">  2  5  1 -1</clus>
</clustering>
</event>
<event>
 9    1  0.3197504E-005  0.1288061E+03  0.7546771E-02  0.1243345E+00
         -2   -1    0    0    0  501 -0.00000000000E+00  0.00000000000E+00  0.19885581210E+03  0.19885581210E+03  0.00000000000E+00 0.  1.
         21   -1    0    0  501  502  0.00000000000E+00 -0.00000000000E+00 -0.35096142044E+03  0.35096142044E+03  0.00000000000E+00 0.  1.
        -24    2    1    2    0    0 -0.52531051184E+02  0.82565524094E+01  0.11566263961E+03  0.15066296745E+03  0.80584127251E+02 0.  0.
         23    2    1    2    0    0 -0.27277761184E+02  0.47366000149E+02  0.83663455397E+01  0.10638536543E+03  0.90885840565E+02 0.  0.
         11    1    3    3    0    0  0.34750646048E+01 -0.25528041647E+02  0.58011107170E+02  0.63474763012E+02  0.00000000000E+00 0. -1.
        -12    1    3    3    0    0 -0.56006115789E+02  0.33784594057E+02  0.57651532435E+02  0.87188204440E+02  0.00000000000E+00 0.  1.
        -11    1    4    4    0    0 -0.80800983256E+01  0.59406386266E+02  0.36553954612E+02  0.70218219259E+02  0.00000000000E+00 0.  1.
         11    1    4    4    0    0 -0.19197662859E+02 -0.12040386117E+02 -0.28187609072E+02  0.36167146173E+02  0.00000000000E+00 0. -1.
         -1    1    1    2    0  502  0.79808812368E+02 -0.55622552558E+02 -0.27613459348E+03  0.29276889965E+03  0.00000000000E+00 0.  1.
<scales pt_clust_5="13000.00000" pt_clust_6="13000.00000" pt_clust_7="13000.00000" pt_clust_8="13000.00000" pt_clust_9="91.27307"></scales>
<clustering>
<clus scale="   80.584">  5  6 -1 -1</clus>
<clus scale="   90.886">  7  8 -1 -1</clus>
<clus scale="   96.548">  1  5  2 -1</clus>
<clus scale="   91.273">  2  9  1 -1</clus>
<clus scale="   91.273">  2  5  1 -1</clus>
</clustering>
</event>
<event>
 9    1  0.3197504E-005  0.9662907E+02  0.7546771E-02  0.1294623E+00
         21   -1    0    0  501  502  0.00000000000E+00  0.00000000000E+00  0.30586688629E+02  0.30586688629E+02  0.00000000000E+00 0.  1.
          1   -1    0    0  502    0 -0.00000000000E+00 -0.00000000000E+00 -0.84228934697E+03  0.84228934697E+03  0.00000000000E+00 0. -1.
        -24    2    1    2    0    0  0.12226418810E+02  0.41339176431E+02 -0.52360533610E+03  0.53136354787E+03  0.79537784618E+02 0.  0.
         23    2    1    2    0    0  0.40271714579E+02  0.20013980820E+02 -0.15629753854E+03  0.18694390458E+03  0.92177722270E+02 0.  0.
         13    1    3    3    0    0 -0.66353359373E+01  0.56004462349E+02 -0.23100909653E+03  0.23779346115E+03  0.00000000000E+00 0. -1.
        -14    1    3    3    0    0  0.18861754747E+02 -0.14665285918E+02 -0.29259623957E+03  0.29357008672E+03  0.00000000000E+00 0.  1.
        -11    1    4    4    0    0  0.44917354704E+02  0.43227021861E+02 -0.55698843843E+02  0.83597280925E+02  0.00000000000E+00 0.  1.
         11    1    4    4    0    0 -0.46456401247E+01 -0.23213041041E+02 -0.10059869469E+03  0.10334662365E+03  0.00000000000E+00 0. -1.
          2    1    1    2  501    0 -0.52498133389E+02 -0.61353157251E+02 -0.13179978370E+03  0.15456858315E+03  0.00000000000E+00 0. -1.
<scales pt_clust_5="13000.00000" pt_clust_6="13000.00000" pt_clust_7="13000.00000" pt_clust_8="13000.00000" pt_clust_9="80.74815"></scales>
<clustering>
<clus scale="   79.538">  5  6 -1 -1</clus>
<clus scale="   80.748">  1  9  2 -1</clus>
<clus scale="   84.656">  2  5  1 -1</clus>
<clus scale="   92.178">  7  8 -1 -1</clus>
<clus scale="   80.748">  1  5  2 -1</clus>
</clustering>
</event>
<event>
 9    1  0.3197504E-005  0.1747780E+03  0.7546771E-02  0.1186877E+00
          1   -1    0    0  502    0 -0.00000000000E+00  0.00000000000E+00  0.13777409331E+04  0.13777409331E+04  0.00000000000E+00 0. -1.
         21   -1    0    0  501  502  0.00000000000E+00 -0.00000000000E+00 -0.45137325675E+03  0.45137325675E+03  0.00000000000E+00 0. -1.
         23    2    1    2    0    0 -0.92729668395E+02 -0.22134613212E+01 -0.12175198204E+03  0.17651536440E+03  0.87922909006E+02 0.  0.
        -24    2    1    2    0    0  0.16034449201E+03  0.14190590540E+03  0.13199729756E+04  0.13395653298E+04  0.79113679522E+02 0.  0.
         11    1    4    4    0    0  0.75858229985E+02  0.89223040316E+02  0.49804928217E+03  0.51163298315E+03  0.00000000000E+00 0. -1.
        -12    1    4    4    0    0  0.84486262030E+02  0.52682865087E+02  0.82192369347E+03  0.82793234665E+03  0.00000000000E+00 0.  1.
        -13    1    3    3    0    0 -0.57104113599E+02  0.35777533198E+02 -0.36561388821E+02  0.76665812617E+02  0.00000000000E+00 0. -1.
         13    1    3    3    0    0 -0.35625554796E+02 -0.37990994519E+02 -0.85190593217E+02  0.99849551786E+02  0.00000000000E+00 0.  1.
          2    1    1    2  501    0 -0.67614823619E+02 -0.13969244408E+03 -0.27185331725E+03  0.31303349566E+03  0.00000000000E+00 0. -1.
<scales pt_clust_5="13000.00000" pt_clust_6="13000.00000" pt_clust_7="13000.00000" pt_clust_8="13000.00000" pt_clust_9="155.84729"></scales>
<clustering>
<clus scale="   79.114">  5  6 -1 -1</clus>
<clus scale="   87.923">  7  8 -1 -1</clus>
<clus scale="  127.805">  1  7  2 -1</clus>
<clus scale="  155.847">  2  9  1 -1</clus>
<clus scale="  155.847">  2  5  1 -1</clus>
</clustering>
</event>
<event>
 9    1  0.3197504E-005  0.1766979E+03  0.7546771E-02  0.1188995E+00
         21   -1    0    0  501  502  0.00000000000E+00  0.00000000000E+00  0.50631905167E+02  0.50631905167E+02  0.00000000000E+00 0. -1.
          1   -1    0    0  502    0 -0.00000000000E+00 -0.00000000000E+00 -0.17701791706E+04  0.17701791706E+04  0.00000000000E+00 0. -1.
        -24    2    1    2    0    0 -0.49358233668E+02  0.70777266479E+02 -0.49927059560E+03  0.51302798492E+03  0.80504217274E+02 0.  0.
         23    2    1    2    0    0  0.39078369675E+02 -0.21295808177E+03 -0.10887953360E+04  0.11138542354E+04  0.91201482439E+02 0.  0.
         11    1    3    3    0    0 -0.53705735939E+02  0.79943278327E+02 -0.33839737435E+03  0.35183521255E+03  0.00000000000E+00 0. -1.
        -12    1    3    3    0    0  0.43475022710E+01 -0.91660118485E+01 -0.16087322124E+03  0.16119277236E+03  0.00000000000E+00 0.  1.
        -11    1    4    4    0    0  0.15399624559E+02 -0.33592808510E+02 -0.70365566110E+02  0.79479167799E+02  0.00000000000E+00 0.  1.
         11    1    4    4    0    0  0.23678745115E+02 -0.17936527326E+03 -0.10184297699E+04  0.10343750676E+04  0.00000000000E+00 0. -1.
          2    1    1    2  501    0  0.10279863993E+02  0.14218081529E+03 -0.13148133384E+03  0.19392885549E+03  0.00000000000E+00 0. -1.
<scales pt_clust_5="13000.00000" pt_clust_6="13000.00000" pt_clust_7="13000.00000" pt_clust_8="13000.00000" pt_clust_9="151.34216"></scales>
<clustering>
<clus scale="   80.504">  5  6 -1 -1</clus>
<clus scale="   91.201">  7  8 -1 -1</clus>
<clus scale="  118.011">  2  5  1 -1</clus>
<clus scale="  151.342">  1  9  2 -1</clus>
<clus scale="  151.342">  1  5  2 -1</clus>
</clustering>
</event>
<event>
 9    1  0.3197504E-005  0.9294893E+02  0.7546771E-02  0.1301620E+00
         21   -1    0    0  501  502  0.00000000000E+00  0.00000000000E+00  0.28143995116E+03  0.28143995116E+03  0.00000000000E+00 0. -1.
          1   -1    0    0  502    0 -0.00000000000E+00 -0.00000000000E+00 -0.79003324594E+02  0.79003324594E+02  0.00000000000E+00 0. -1.
        -24    2    1    2    0    0 -0.31989035672E+02 -0.25915880348E+02 -0.56764186629E+01  0.90831109678E+02  0.80765942692E+02 0.  0.
         23    2    1    2    0    0 -0.10483921577E+02 -0.17634486793E+02  0.62567190462E+02  0.11186495559E+03  0.90433551467E+02 0.  0.
         13    1    3    3    0    0 -0.48528067174E+02  0.10518194813E+02  0.35068126799E+01  0.49778544182E+02  0.00000000000E+00 0. -1.
        -14    1    3    3    0    0  0.16539031501E+02 -0.36434075161E+02 -0.91832313428E+01  0.41052565495E+02  0.00000000000E+00 0.  1.
        -11    1    4    4    0    0  0.30089618902E+02  0.96084456163E+01  0.53545984451E+02  0.62168157795E+02  0.00000000000E+00 0.  1.
         11    1    4    4    0    0 -0.40573540479E+02 -0.27242932410E+02  0.90212060112E+01  0.49696797796E+02  0.00000000000E+00 0. -1.
          2    1    1    2  501    0  0.42472957249E+02  0.43550367142E+02  0.14554585476E+03  0.15774721048E+03  0.00000000000E+00 0. -1.
<scales pt_clust_5="13000.00000" pt_clust_6="13000.00000" pt_clust_7="13000.00000" pt_clust_8="13000.00000" pt_clust_9="60.83245"></scales>
<clustering>
<clus scale="   60.832">  1  9  2 -1</clus>
<clus scale="   80.766">  5  6 -1 -1</clus>
<clus scale="   83.573">  2  5  1 -1</clus>
<clus scale="   90.434">  7  8 -1 -1</clus>
<clus scale="   60.832">  1  5  2 -1</clus>
</clustering>
</event>
<event>
 9    1  0.3197504E-005  0.9191456E+02  0.7546771E-02  0.1306982E+00
         -2   -1    0    0    0  501 -0.00000000000E+00  0.00000000000E+00  0.20918568200E+03  0.20918568200E+03  0.00000000000E+00 0.  1.
         21   -1    0    0  501  502  0.00000000000E+00 -0.00000000000E+00 -0.79958354035E+02  0.79958354035E+02  0.00000000000E+00 0.  1.
         23    2    1    2    0    0  0.66974856773E+01 -0.58020056093E+01  0.13470276212E+03  0.16257871705E+03  0.90600692781E+02 0.  0.
        -24    2    1    2    0    0 -0.24249309538E+02  0.34516767713E+02 -0.20058235126E+02  0.89887503238E+02  0.76798399564E+02 0.  0.
         13    1    4    4    0    0 -0.28832633375E+02 -0.13923146560E+02  0.89430261413E+01  0.33243833624E+02  0.00000000000E+00 0. -1.
        -14    1    4    4    0    0  0.45833238365E+01  0.48439914274E+02 -0.29001261267E+02  0.56643669614E+02  0.00000000000E+00 0.  1.
        -13    1    3    3    0    0 -0.40693070884E+02 -0.56704627801E+01  0.43736303327E+02  0.60007869440E+02  0.00000000000E+00 0.  1.
         13    1    3    3    0    0  0.47390556561E+02 -0.13154282918E+00  0.90966458792E+02  0.10257084761E+03  0.00000000000E+00 0. -1.
         -1    1    1    2    0  502  0.17551823861E+02 -0.28714762104E+02  0.14582800972E+02  0.36677815744E+02  0.00000000000E+00 0.  1.
<scales pt_clust_5="13000.00000" pt_clust_6="13000.00000" pt_clust_7="13000.00000" pt_clust_8="13000.00000" pt_clust_9="33.65418"></scales>
<clustering>
<clus scale="   33.654">  2  9  1 -1</clus>
<clus scale="   76.798">  5  6 -1 -1</clus>
<clus scale="   78.344">  2  5  1 -1</clus>
<clus scale="   90.601">  7  8 -1 -1</clus>
<clus scale="   33.654">  2  5  1 -1</clus>
</clustering>
</event>
<event>
 9    1  0.3197504E-005  0.1387337E+03  0.7546771E-02  0.1221276E+00
         -2   -1    0    0    0  501 -0.00000000000E+00  0.00000000000E+00  0.96448186176E+02  0.96448186176E+02  0.00000000000E+00 0.  1.
         21   -1    0    0  501  502  0.00000000000E+00 -0.00000000000E+00 -0.31541001904E+03  0.31541001904E+03  0.00000000000E+00 0.  1.
         23    2    1    2    0    0  0.51626405981E+02 -0.96064917471E+02 -0.11104078358E+02  0.15089284266E+03  0.10368989945E+03 0.  0.
        -24    2    1    2    0    0 -0.13505650027E+02  0.55742180414E+02 -0.16040138421E+03  0.18795014331E+03  0.79416994757E+02 0.  0.
         13    1    4    4    0    0  0.29178368351E+02  0.15036529196E+02 -0.28535225931E+02  0.43494062914E+02  0.00000000000E+00 0. -1.
        -14    1    4    4    0    0 -0.42684018378E+02  0.40705651218E+02 -0.13186615828E+03  0.14445608040E+03  0.00000000000E+00 0.  1.
        -11    1    3    3    0    0  0.83018714913E+02 -0.62795164147E+02 -0.14145063691E+02  0.10504961919E+03  0.00000000000E+00 0.  1.
         11    1    3    3    0    0 -0.31392308932E+02 -0.33269753323E+02  0.30409853331E+01  0.45843223469E+02  0.00000000000E+00 0. -1.
         -1    1    1    2    0  502 -0.38120755955E+02  0.40322737057E+02 -0.47456370299E+02  0.73015219238E+02  0.00000000000E+00 0.  1.
<scales pt_clust_5="13000.00000" pt_clust_6="13000.00000" pt_clust_7="13000.00000" pt_clust_8="13000.00000" pt_clust_9="55.48978"></scales>
<clustering>
<clus scale="   55.490">  2  9  1 -1</clus>
<clus scale="   79.417">  5  6 -1 -1</clus>
<clus scale="  103.690">  7  8 -1 -1</clus>
<clus scale="  121.666">  2  5  1 -1</clus>
<clus scale="   55.490">  2  5  1 -1</clus>
</clustering>
</event>
<event>
 9    1  0.3197504E-005  0.3396154E+03  0.7546771E-02  0.1066960E+00
         21   -1    0    0  501  502  0.00000000000E+00  0.00000000000E+00  0.85313976463E+02  0.85313976463E+02  0.00000000000E+00 0.  1.
         -2   -1    0    0    0  501 -0.00000000000E+00 -0.00000000000E+00 -0.11456777170E+04  0.11456777170E+04  0.00000000000E+00 0.  1.
        -24    2    1    2    0    0 -0.85667294627E+02  0.18417137239E+03 -0.32776275862E+03  0.39305235764E+03  0.76182347872E+02 0.  0.
         23    2    1    2    0    0 -0.25037081991E+01  0.80594343571E+02 -0.16445621734E+03  0.20495949129E+03  0.91982764013E+02 0.  0.
         13    1    3    3    0    0  0.98343156580E+00  0.50008048271E+02 -0.40428087204E+02  0.64313313276E+02  0.00000000000E+00 0. -1.
        -14    1    3    3    0    0 -0.86650726193E+02  0.13416332412E+03 -0.28733467142E+03  0.32873904436E+03  0.00000000000E+00 0.  1.
        -13    1    4    4    0    0 -0.29916181989E+01  0.43195893339E+02 -0.16176663666E+03  0.16746127826E+03  0.00000000000E+00 0. -1.
         13    1    4    4    0    0  0.48790999971E+00  0.37398450233E+02 -0.26895806847E+01  0.37498213027E+02  0.00000000000E+00 0.  1.
         -1    1    1    2    0  502  0.88171002826E+02 -0.26476571596E+03 -0.56814476462E+03  0.63297984459E+03  0.00000000000E+00 0.  1.
<scales pt_clust_5="13000.00000" pt_clust_6="13000.00000" pt_clust_7="13000.00000" pt_clust_8="13000.00000" pt_clust_9="279.06108"></scales>
<clustering>
<clus scale="   76.182">  5  6 -1 -1</clus>
<clus scale="   91.983">  7  8 -1 -1</clus>
<clus scale="   98.673">  5  7 -1 -1</clus>
<clus scale="  279.061">  1  9  2 -1</clus>
<clus scale="  279.061">  1  5  2 -1</clus>
</clustering>
</event>
<event>
 9    1  0.3197504E-005  0.1042845E+03  0.7546771E-02  0.1275023E+00
         21   -1    0    0  501  502  0.00000000000E+00  0.00000000000E+00  0.81474535571E+02  0.81474535571E+02  0.00000000000E+00 0. -1.
         -2   -1    0    0    0  501 -0.00000000000E+00 -0.00000000000E+00 -0.27371216114E+03  0.27371216114E+03  0.00000000000E+00 0.  1.
        -24    2    1    2    0    0 -0.59738917390E+02  0.13236679825E+02 -0.11770184865E+03  0.15640577281E+03  0.82855854660E+02 0.  0.
         23    2    1    2    0    0  0.30359768137E+02  0.46590890841E+02 -0.11477928130E+02  0.10702709609E+03  0.90722818700E+02 0.  0.
         13    1    3    3    0    0  0.49719890151E+01 -0.26442185285E+02 -0.35050851600E+02  0.44186785754E+02  0.00000000000E+00 0. -1.
        -14    1    3    3    0    0 -0.64710906405E+02  0.39678865110E+02 -0.82650997045E+02  0.11221898706E+03  0.00000000000E+00 0.  1.
        -11    1    4    4    0    0  0.45628849868E+02  0.63172197700E+02 -0.23614035192E+02  0.81426906859E+02  0.00000000000E+00 0.  1.
         11    1    4    4    0    0 -0.15269081732E+02 -0.16581306859E+02  0.12136107062E+02  0.25600189232E+02  0.00000000000E+00 0. -1.
         -1    1    1    2    0  502  0.29379149253E+02 -0.59827570666E+02 -0.63057848795E+02  0.91753827807E+02  0.00000000000E+00 0.  1.
<scales pt_clust_5="13000.00000" pt_clust_6="13000.00000" pt_clust_7="13000.00000" pt_clust_8="13000.00000" pt_clust_9="66.65191"></scales>
<clustering>
<clus scale="   66.652">  1  9  2 -1</clus>
<clus scale="   82.856">  5  6 -1 -1</clus>
<clus scale="   90.723">  7  8 -1 -1</clus>
<clus scale="   97.518">  2  5  1 -1</clus>
<clus scale="   66.652">  1  5  2 -1</clus>
</clustering>
</event>
<event>
 9    1  0.3197504E-005  0.2581218E+03  0.7546771E-02  0.1123854E+00
         -4   -1    0    0    0  501 -0.00000000000E+00  0.00000000000E+00  0.75630391978E+03  0.75630391978E+03  0.00000000000E+00 0.  1.
         21   -1    0    0  501  502  0.00000000000E+00 -0.00000000000E+00 -0.24769520113E+03  0.24769520113E+03  0.00000000000E+00 0.  1.
        -24    2    1    2    0    0 -0.14523362559E+03  0.52160336315E+02  0.40219095893E+03  0.43835297238E+03  0.81131093064E+02 0.  0.
         23    2    1    2    0    0  0.10387827771E+03  0.20651255313E+03  0.16457164092E+03  0.29731090592E+03  0.88723269808E+02 0.  0.
         13    1    3    3    0    0 -0.32533743478E+02  0.49951534667E+02  0.17215291991E+03  0.18218185451E+03  0.00000000000E+00 0. -1.
        -14    1    3    3    0    0 -0.11269988211E+03  0.22088016482E+01  0.23003803902E+03  0.25617111787E+03  0.00000000000E+00 0.  1.
        -11    1    4    4    0    0  0.11479680117E+03  0.14950720115E+03  0.13719011041E+03  0.23313480039E+03  0.00000000000E+00 0.  1.
         11    1    4    4    0    0 -0.10918523466E+02  0.57005351974E+02  0.27381530501E+02  0.64176105530E+02  0.00000000000E+00 0. -1.
         -3    1    1    2    0  502  0.41355347878E+02 -0.25867288944E+03 -0.58153881193E+02  0.26833524261E+03  0.00000000000E+00 0.  1.
<scales pt_clust_5="13000.00000" pt_clust_6="13000.00000" pt_clust_7="13000.00000" pt_clust_8="13000.00000" pt_clust_9="242.39435"></scales>
<clustering>
<clus scale="   81.131">  5  6 -1 -1</clus>
<clus scale="   88.723">  7  8 -1 -1</clus>
<clus scale="  174.344">  1  5  2 -1</clus>
<clus scale="  242.394">  2  9  1 -1</clus>
<clus scale="  242.394">  2  5  1 -1</clus>
</clustering>
</event>
<event>
 9    1  0.3197504E-005  0.1463427E+03  0.7546771E-02  0.1217619E+00
         21   -1    0    0  501  502  0.00000000000E+00  0.00000000000E+00  0.15852458920E+03  0.15852458920E+03  0.00000000000E+00 0. -1.
          1   -1    0    0  502    0 -0.00000000000E+00 -0.00000000000E+00 -0.38102110609E+03  0.38102110609E+03  0.00000000000E+00 0. -1.
         23    2    1    2    0    0 -0.70787263423E+02 -0.34320119116E+01 -0.18016762317E+03  0.21211033431E+03  0.86647597278E+02 0.  0.
        -24    2    1    2    0    0 -0.90557293151E+02 -0.48575235090E+02  0.40684707196E+02  0.13868134747E+03  0.83768096138E+02 0.  0.
         13    1    4    4    0    0 -0.38472275144E+02 -0.74628054066E+01  0.58097058372E+02  0.70079081121E+02  0.00000000000E+00 0. -1.
        -14    1    4    4    0    0 -0.52085018007E+02 -0.41112429684E+02 -0.17412351176E+02  0.68602266353E+02  0.00000000000E+00 0.  1.
        -13    1    3    3    0    0  0.10859037324E+02  0.19583008912E+02 -0.67245399392E+02  0.70875642284E+02  0.00000000000E+00 0.  1.
         13    1    3    3    0    0 -0.81646300747E+02 -0.23015020824E+02 -0.11292222378E+03  0.14123469203E+03  0.00000000000E+00 0. -1.
          2    1    1    2  501    0  0.16134455657E+03  0.52007247002E+02 -0.83013600918E+02  0.18875401350E+03  0.00000000000E+00 0. -1.
<scales pt_clust_5="13000.00000" pt_clust_6="13000.00000" pt_clust_7="13000.00000" pt_clust_8="13000.00000" pt_clust_9="119.99630"></scales>
<clustering>
<clus scale="   83.768">  5  6 -1 -1</clus>
<clus scale="   86.648">  7  8 -1 -1</clus>
<clus scale="  111.939">  2  7  1 -1</clus>
<clus scale="  119.996">  1  9  2 -1</clus>
<clus scale="  119.996">  1  5  2 -1</clus>
</clustering>
</event>
<event>
 9    1  0.3197504E-005  0.1749592E+03  0.7546771E-02  0.1196447E+00
         21   -1    0    0  501  502  0.00000000000E+00  0.00000000000E+00  0.65977270208E+02  0.65977270208E+02  0.00000000000E+00 0. -1.
          1   -1    0    0  502    0 -0.00000000000E+00 -0.00000000000E+00 -0.10124011041E+04  0.10124011041E+04  0.00000000000E+00 0. -1.
        -24    2    1    2    0    0  0.60588124294E+02  0.20192069407E+02 -0.12247132724E+03  0.16014640315E+03  0.81049392182E+02 0.  0.
         23    2    1    2    0    0 -0.16220439433E+03  0.10712269987E+02 -0.16021308921E+03  0.24604824718E+03  0.91904775245E+02 0.  0.
         11    1    3    3    0    0  0.79700551657E+02  0.19017507027E+02 -0.11049582256E+03  0.13756151464E+03  0.00000000000E+00 0. -1.
        -12    1    3    3    0    0 -0.19112427363E+02  0.11745623804E+01 -0.11975504684E+02  0.22584888508E+02  0.00000000000E+00 0.  1.
        -11    1    4    4    0    0 -0.90035281994E+02 -0.27227703159E+02 -0.43393691918E+02  0.10358915156E+03  0.00000000000E+00 0. -1.
         11    1    4    4    0    0 -0.72169112340E+02  0.37939973146E+02 -0.11681939730E+03  0.14245909561E+03  0.00000000000E+00 0.  1.
          2    1    1    2  501    0  0.10161627004E+03 -0.30904339394E+02 -0.66373941740E+03  0.67218372395E+03  0.00000000000E+00 0. -1.
<scales pt_clust_5="13000.00000" pt_clust_6="13000.00000" pt_clust_7="13000.00000" pt_clust_8="13000.00000" pt_clust_9="148.87669"></scales>
<clustering>
<clus scale="   81.049">  5  6 -1 -1</clus>
<clus scale="   91.905">  7  8 -1 -1</clus>
<clus scale="  103.187">  2  5  1 -1</clus>
<clus scale="  148.877">  1  9  2 -1</clus>
<clus scale="  148.877">  1  5  2 -1</clus>
</clustering>
</event>
<event>
 9    1  0.3197504E-005  0.1557436E+03  0.7546771E-02  0.1216543E+00
          3   -1    0    0  502    0 -0.00000000000E+00  0.00000000000E+00  0.10285816900E+03  0.10285816900E+03  0.00000000000E+00 0. -1.
         21   -1    0    0  501  502  0.00000000000E+00 -0.00000000000E+00 -0.36998956510E+03  0.36998956510E+03  0.00000000000E+00 0.  1.
        -24    2    1    2    0    0  0.47941580800E+02 -0.13853296389E+02 -0.46163073857E+02  0.10562210417E+03  0.80837432610E+02 0.  0.
         23    2    1    2    0    0 -0.12955891573E+03  0.87977651356E+02 -0.12087915486E+03  0.21831743409E+03  0.92331750561E+02 0.  0.
         13    1    3    3    0    0  0.78210563604E+01 -0.32467686852E+02  0.93154615343E+01  0.34671276812E+02  0.00000000000E+00 0. -1.
        -14    1    3    3    0    0  0.40120524439E+02  0.18614390464E+02 -0.55478535392E+02  0.70950827358E+02  0.00000000000E+00 0.  1.
        -11    1    4    4    0    0 -0.11865297737E+01  0.28565714876E+02 -0.55614882029E+02  0.62533375268E+02  0.00000000000E+00 0. -1.
         11    1    4    4    0    0 -0.12837238596E+03  0.59411936479E+02 -0.65264272832E+02  0.15578405882E+03  0.00000000000E+00 0.  1.
          4    1    1    2  501    0  0.81617334935E+02 -0.74124354967E+02 -0.10008916738E+03  0.14890819584E+03  0.00000000000E+00 0. -1.
<scales pt_clust_5="13000.00000" pt_clust_6="13000.00000" pt_clust_7="13000.00000" pt_clust_8="13000.00000" pt_clust_9="125.42296"></scales>
<clustering>
<clus scale="   80.837">  5  6 -1 -1</clus>
<clus scale="   92.332">  7  8 -1 -1</clus>
<clus scale="   95.000">  1  5  2 -1</clus>
<clus scale="  125.423">  2  9  1 -1</clus>
<clus scale="  125.423">  2  5  1 -1</clus>
</clustering>
</event>
<event>
 9    1  0.3197504E-005  0.9490942E+02  0.7546771E-02  0.1297779E+00
         -2   -1    0    0    0  501 -0.00000000000E+00  0.00000000000E+00  0.10485985895E+04  0.10485985895E+04  0.00000000000E+00 0.  1.
         21   -1    0    0  501  502  0.00000000000E+00 -0.00000000000E+00 -0.22098250072E+02  0.22098250072E+02  0.00000000000E+00 0.  1.
        -24    2    1    2    0    0 -0.23059850751E+02  0.11223472552E+02  0.61149123759E+03  0.61734857779E+03  0.80870327024E+02 0.  0.
         23    2    1    2    0    0  0.25980928614E+02  0.58276952337E+02  0.23218344149E+03  0.25773623803E+03  0.91910859359E+02 0.  0.
         11    1    3    3    0    0  0.10316714801E+02 -0.22579338739E+02  0.80602419744E+02  0.84338669724E+02  0.00000000000E+00 0. -1.
        -12    1    3    3    0    0 -0.33376565552E+02  0.33802811291E+02  0.53088881785E+03  0.53300990806E+03  0.00000000000E+00 0.  1.
        -13    1    4    4    0    0 -0.26680953054E+02  0.50185817807E+02  0.14254628713E+03  0.15345987599E+03  0.00000000000E+00 0.  1.
         13    1    4    4    0    0  0.52661881668E+02  0.80911345298E+01  0.89637154356E+02  0.10427636204E+03  0.00000000000E+00 0. -1.
         -1    1    1    2    0  502 -0.29210778629E+01 -0.69500424889E+02  0.18282566039E+03  0.19561202379E+03  0.00000000000E+00 0.  1.
<scales pt_clust_5="13000.00000" pt_clust_6="13000.00000" pt_clust_7="13000.00000" pt_clust_8="13000.00000" pt_clust_9="69.56178"></scales>
<clustering>
<clus scale="   69.562">  2  9  1 -1</clus>
<clus scale="   80.870">  5  6 -1 -1</clus>
<clus scale="   84.263">  1  5  2 -1</clus>
<clus scale="   91.911">  7  8 -1 -1</clus>
<clus scale="   69.562">  2  5  1 -1</clus>
</clustering>
</event>
<event>
 9    1  0.3197504E-005  0.9347110E+02  0.7546771E-02  0.1301924E+00
          1   -1    0    0  502    0 -0.00000000000E+00  0.00000000000E+00  0.44003396134E+03  0.44003396134E+03  0.00000000000E+00 0. -1.
         21   -1    0    0  501  502  0.00000000000E+00 -0.00000000000E+00 -0.65374245159E+02  0.65374245159E+02  0.00000000000E+00 0. -1.
        -24    2    1    2    0    0  0.16756851058E+02 -0.13003467197E+02  0.43623672922E+02  0.92009502874E+02  0.78184663223E+02 0.  0.
         23    2    1    2    0    0 -0.33212973965E+02 -0.36161472084E+02  0.28905977159E+02  0.10685250470E+03  0.90394405477E+02 0.  0.
         13    1    3    3    0    0  0.10925772609E+02 -0.35972358227E+02  0.54278561793E+02  0.66026853127E+02  0.00000000000E+00 0. -1.
        -14    1    3    3    0    0  0.58310784495E+01  0.22968891030E+02 -0.10654888871E+02  0.25982649747E+02  0.00000000000E+00 0.  1.
        -11    1    4    4    0    0 -0.21144102298E+02  0.28676324216E+02  0.21919112729E+01  0.35696065715E+02  0.00000000000E+00 0.  1.
         11    1    4    4    0    0 -0.12068871668E+02 -0.64837796300E+02  0.26714065886E+02  0.71156438982E+02  0.00000000000E+00 0. -1.
          2    1    1    2  501    0  0.16456122907E+02  0.49164939281E+02  0.30213006610E+03  0.30654619892E+03  0.00000000000E+00 0. -1.
<scales pt_clust_5="13000.00000" pt_clust_6="13000.00000" pt_clust_7="13000.00000" pt_clust_8="13000.00000" pt_clust_9="51.84591"></scales>
<clustering>
<clus scale="   51.846">  2  9  1 -1</clus>
<clus scale="   78.185">  5  6 -1 -1</clus>
<clus scale="   81.722">  1  5  2 -1</clus>
<clus scale="   90.394">  7  8 -1 -1</clus>
<clus scale="   51.846">  2  5  1 -1</clus>
</clustering>
</event>
<event>
 9    1  0.3197504E-005  0.2988161E+03  0.7546771E-02  0.1124624E+00
         21   -1    0    0  501  502  0.00000000000E+00  0.00000000000E+00  0.18827778608E+03  0.18827778608E+03  0.00000000000E+00 0. -1.
          1   -1    0    0  502    0 -0.00000000000E+00 -0.00000000000E+00 -0.75995332508E+03  0.75995332508E+03  0.00000000000E+00 0. -1.
        -24    2    1    2    0    0 -0.26440858928E+02  0.11477254907E+02 -0.10301334331E+03  0.15088504716E+03  0.10641288529E+03 0.  0.
         23    2    1    2    0    0  0.16678131692E+03 -0.24058593695E+03 -0.65260908787E+02  0.31266180533E+03  0.88322237090E+02 0.  0.
         13    1    3    3    0    0 -0.23031525224E+02 -0.44157218619E+02 -0.27076555726E+02  0.56687308812E+02  0.00000000000E+00 0. -1.
        -14    1    3    3    0    0 -0.34093337037E+01  0.55634473526E+02 -0.75936787588E+02  0.94197738349E+02  0.00000000000E+00 0.  1.
        -11    1    4    4    0    0  0.66479763581E+02 -0.50311829506E+02 -0.49577097918E+02  0.96998596856E+02  0.00000000000E+00 0. -1.
         11    1    4    4    0    0  0.10030155333E+03 -0.19027410744E+03 -0.15683810869E+02  0.21566320847E+03  0.00000000000E+00 0.  1.
          2    1    1    2  501    0 -0.14034045799E+03  0.22910868204E+03 -0.40340128690E+03  0.48468425867E+03  0.00000000000E+00 0. -1.
<scales pt_clust_5="13000.00000" pt_clust_6="13000.00000" pt_clust_7="13000.00000" pt_clust_8="13000.00000" pt_clust_9="285.46515"></scales>
<clustering>
<clus scale="   88.322">  7  8 -1 -1</clus>
<clus scale="  106.413">  5  6 -1 -1</clus>
<clus scale="  110.248">  2  5  1 -1</clus>
<clus scale="  285.465">  1  9  2 -1</clus>
<clus scale="  285.465">  1  5  2 -1</clus>
</clustering>
</event>
<event>
 9    1  0.3197504E-005  0.1065863E+03  0.7546771E-02  0.1273820E+00
         -2   -1    0    0    0  501 -0.00000000000E+00  0.00000000000E+00  0.12856191149E+04  0.12856191149E+04  0.00000000000E+00 0.  1.
         21   -1    0    0  501  502  0.00000000000E+00 -0.00000000000E+00 -0.56550741434E+02  0.56550741434E+02  0.00000000000E+00 0.  1.
        -24    2    1    2    0    0 -0.44938711278E+02  0.53993289427E+01  0.10879724684E+04  0.10919266723E+04  0.81062477945E+02 0.  0.
         23    2    1    2    0    0  0.58803642915E+02  0.13191790332E+02  0.17542835498E+03  0.20881151536E+03  0.95891863388E+02 0.  0.
         13    1    3    3    0    0 -0.42053436780E+02 -0.60995684944E+01  0.23122649417E+03  0.23509867691E+03  0.00000000000E+00 0. -1.
        -14    1    3    3    0    0 -0.28852744976E+01  0.11498897437E+02  0.85674597420E+03  0.85682799544E+03  0.00000000000E+00 0.  1.
        -11    1    4    4    0    0 -0.10710633339E+02  0.37975286974E+02  0.61206378459E+02  0.72822117872E+02  0.00000000000E+00 0.  1.
         11    1    4    4    0    0  0.69514276254E+02 -0.24783496642E+02  0.11422197652E+03  0.13598939749E+03  0.00000000000E+00 0. -1.
         -1    1    1    2    0  502 -0.13864931637E+02 -0.18591119274E+02 -0.34332449916E+02  0.41431668593E+02  0.00000000000E+00 0.  1.
<scales pt_clust_5="13000.00000" pt_clust_6="13000.00000" pt_clust_7="13000.00000" pt_clust_8="13000.00000" pt_clust_9="23.19194"></scales>
<clustering>
<clus scale="   23.192">  2  9  1 -1</clus>
<clus scale="   81.062">  5  6 -1 -1</clus>
<clus scale="   93.469">  1  5  2 -1</clus>
<clus scale="   95.892">  7  8 -1 -1</clus>
<clus scale="   23.192">  2  5  1 -1</clus>
</clustering>
</event>
<event>
 9    1  0.3197504E-005  0.2294971E+03  0.7546771E-02  0.1164549E+00
         21   -1    0    0  501  502  0.00000000000E+00  0.00000000000E+00  0.19278982002E+03  0.19278982002E+03  0.00000000000E+00 0. -1.
          1   -1    0    0  502    0 -0.00000000000E+00 -0.00000000000E+00 -0.43088646644E+03  0.43088646644E+03  0.00000000000E+00 0. -1.
        -24    2    1    2    0    0  0.34040843416E+02 -0.34595020536E+02 -0.11904225103E+03  0.15143647793E+03  0.80039707961E+02 0.  0.
         23    2    1    2    0    0 -0.23326422536E+03  0.50722218572E+02 -0.98687592917E+02  0.27132975633E+03  0.83040070973E+02 0.  0.
         11    1    3    3    0    0  0.77303522008E+01 -0.32234302153E+02 -0.39864670426E+01  0.33387130753E+02  0.00000000000E+00 0. -1.
        -12    1    3    3    0    0  0.26310491216E+02 -0.23607183824E+01 -0.11505578399E+03  0.11804934718E+03  0.00000000000E+00 0.  1.
        -11    1    4    4    0    0 -0.19805284254E+03  0.47164957214E+02 -0.11335390792E+03  0.23302053572E+03  0.00000000000E+00 0. -1.
         11    1    4    4    0    0 -0.35211382825E+02  0.35572613576E+01  0.14666314999E+02  0.38309220620E+02  0.00000000000E+00 0.  1.
          2    1    1    2  501    0  0.19922338194E+03 -0.16127198036E+02 -0.20366802479E+02  0.20091005219E+03  0.00000000000E+00 0. -1.
<scales pt_clust_5="13000.00000" pt_clust_6="13000.00000" pt_clust_7="13000.00000" pt_clust_8="13000.00000" pt_clust_9="213.94693"></scales>
<clustering>
<clus scale="   80.040">  5  6 -1 -1</clus>
<clus scale="   83.040">  7  8 -1 -1</clus>
<clus scale="   93.605">  2  5  1 -1</clus>
<clus scale="  213.947">  1  9  2 -1</clus>
<clus scale="  213.947">  1  5  2 -1</clus>
</clustering>
</event>
<event>
 9    1  0.3197504E-005  0.1199310E+03  0.7546771E-02  0.1256296E+00
         21   -1    0    0  501  502  0.00000000000E+00  0.00000000000E+00  0.23297434957E+03  0.23297434957E+03  0.00000000000E+00 0.  1.
         -2   -1    0    0    0  501 -0.00000000000E+00 -0.00000000000E+00 -0.26244923977E+03  0.26244923977E+03  0.00000000000E+00 0.  1.
        -24    2    1    2    0    0  0.17024841012E+02  0.51491548892E+02 -0.12485901246E+03  0.15779082645E+03  0.79793151968E+02 0.  0.
         23    2    1    2    0    0  0.55099958774E+01 -0.35621010709E+02 -0.91967499091E+02  0.14826454253E+03  0.11056734249E+03 0.  0.
         11    1    3    3    0    0  0.32253751911E+02  0.97880103715E+01 -0.10797588051E+02  0.35393467858E+02  0.00000000000E+00 0. -1.
        -12    1    3    3    0    0 -0.15228910899E+02  0.41703538520E+02 -0.11406142441E+03  0.12239735859E+03  0.00000000000E+00 0.  1.
        -11    1    4    4    0    0  0.13133329149E+02  0.38542461680E+02 -0.42101793232E+02  0.58571039604E+02  0.00000000000E+00 0.  1.
         11    1    4    4    0    0 -0.76233332714E+01 -0.74163472389E+02 -0.49865705859E+02  0.89693502930E+02  0.00000000000E+00 0. -1.
         -1    1    1    2    0  502 -0.22534836889E+02 -0.15870538183E+02  0.18735162135E+03  0.18936822035E+03  0.00000000000E+00 0.  1.
<scales pt_clust_5="13000.00000" pt_clust_6="13000.00000" pt_clust_7="13000.00000" pt_clust_8="13000.00000" pt_clust_9="27.56253"></scales>
<clustering>
<clus scale="   27.563">  1  9  2 -1</clus>
<clus scale="   79.793">  5  6 -1 -1</clus>
<clus scale="   92.332">  2  5  1 -1</clus>
<clus scale="  110.567">  7  8 -1 -1</clus>
<clus scale="   27.563">  1  5  2 -1</clus>
</clustering>
</event>
<event>
 9    1  0.3197504E-005  0.1403218E+03  0.7546771E-02  0.1226923E+00
          1   -1    0    0  502    0 -0.00000000000E+00  0.00000000000E+00  0.13044099820E+03  0.13044099820E+03  0.00000000000E+00 0. -1.
         21   -1    0    0  501  502  0.00000000000E+00 -0.00000000000E+00 -0.24144087645E+03  0.24144087645E+03  0.00000000000E+00 0. -1.
        -24    2    1    2    0    0 -0.37681167141E+02 -0.66542908295E+02  0.52752399377E+02  0.12087695254E+03  0.77334293912E+02 0.  0.
         23    2    1    2    0    0 -0.11797076118E+02  0.50526656018E+02 -0.14397595795E+03  0.19536572987E+03  0.12143548891E+03 0.  0.
         11    1    3    3    0    0 -0.69347124891E+01 -0.72716946362E+02  0.51713864991E+02  0.89499543897E+02  0.00000000000E+00 0. -1.
        -12    1    3    3    0    0 -0.30746454652E+02  0.61740380664E+01  0.10385343856E+01  0.31377408647E+02  0.00000000000E+00 0.  1.
        -11    1    4    4    0    0 -0.12275257181E+02 -0.19209788322E+02  0.11081436513E+02  0.25347507598E+02  0.00000000000E+00 0.  1.
         11    1    4    4    0    0  0.47818106261E+00  0.69736444341E+02 -0.15505739446E+03  0.17001822227E+03  0.00000000000E+00 0. -1.
          2    1    1    2  501    0  0.49478243259E+02  0.16016252277E+02 -0.19776319672E+02  0.55639192237E+02  0.00000000000E+00 0. -1.
<scales pt_clust_5="13000.00000" pt_clust_6="13000.00000" pt_clust_7="13000.00000" pt_clust_8="13000.00000" pt_clust_9="52.00593"></scales>
<clustering>
<clus scale="   52.006">  2  9  1 -1</clus>
<clus scale="   77.334">  5  6 -1 -1</clus>
<clus scale="  104.519">  1  5  2 -1</clus>
<clus scale="  121.435">  7  8 -1 -1</clus>
<clus scale="   52.006">  2  5  1 -1</clus>
</clustering>
</event>
<event>
 9    1  0.3197504E-005  0.1249117E+03  0.7546771E-02  0.1239740E+00
         21   -1    0    0  501  502  0.00000000000E+00  0.00000000000E+00  0.26708349181E+03  0.26708349181E+03  0.00000000000E+00 0. -1.
         -2   -1    0    0    0  501 -0.00000000000E+00 -0.00000000000E+00 -0.13680935185E+03  0.13680935185E+03  0.00000000000E+00 0.  1.
        -24    2    1    2    0    0 -0.11170640097E+02  0.80516368047E+02 -0.84351781384E+02  0.14135322942E+03  0.79106533995E+02 0.  0.
         23    2    1    2    0    0  0.32743254163E+02 -0.82479599953E+02  0.18632658174E+03  0.22690136822E+03  0.94295443870E+02 0.  0.
         13    1    3    3    0    0  0.16598023884E+02  0.58463382267E+02 -0.13695478096E+02  0.62297893890E+02  0.00000000000E+00 0. -1.
        -14    1    3    3    0    0 -0.27768663981E+02  0.22052985781E+02 -0.70656303288E+02  0.79055335528E+02  0.00000000000E+00 0.  1.
        -13    1    4    4    0    0  0.47482458316E+02 -0.17066011723E+02  0.12958601802E+03  0.13906246319E+03  0.00000000000E+00 0. -1.
         13    1    4    4    0    0 -0.14739204154E+02 -0.65413588230E+02  0.56740563721E+02  0.87838905023E+02  0.00000000000E+00 0.  1.
         -1    1    1    2    0  502 -0.21572614065E+02  0.19632319060E+01  0.28299339603E+02  0.35638246016E+02  0.00000000000E+00 0.  1.
<scales pt_clust_5="13000.00000" pt_clust_6="13000.00000" pt_clust_7="13000.00000" pt_clust_8="13000.00000" pt_clust_9="21.66176"></scales>
<clustering>
<clus scale="   21.662">  1  9  2 -1</clus>
<clus scale="   79.107">  5  6 -1 -1</clus>
<clus scale="   94.295">  7  8 -1 -1</clus>
<clus scale="  113.882">  2  5  1 -1</clus>
<clus scale="   21.662">  1  5  2 -1</clus>
</clustering>
</event>
<event>
 9    1  0.3197504E-005  0.1751960E+03  0.7546771E-02  0.1173925E+00
          1   -1    0    0  502    0 -0.00000000000E+00  0.00000000000E+00  0.50602339267E+03  0.50602339267E+03  0.00000000000E+00 0. -1.
         21   -1    0    0  501  502  0.00000000000E+00 -0.00000000000E+00 -0.13873090378E+03  0.13873090378E+03  0.00000000000E+00 0. -1.
        -24    2    1    2    0    0 -0.14834033097E+03 -0.35511807571E+02  0.31746390753E+03  0.36109802054E+03  0.79639849212E+02 0.  0.
         23    2    1    2    0    0  0.14086183322E+03 -0.63561802463E+01 -0.50167008521E+02  0.17499177238E+03  0.90680397953E+02 0.  0.
         11    1    3    3    0    0 -0.11679649599E+03  0.93993414648E+01  0.21396496913E+03  0.24394830828E+03  0.00000000000E+00 0. -1.
        -12    1    3    3    0    0 -0.31543834975E+02 -0.44911149036E+02  0.10349893840E+03  0.11714971226E+03  0.00000000000E+00 0.  1.
        -13    1    4    4    0    0  0.75843735278E+02 -0.39421503560E+02  0.16907084762E+01  0.85493775323E+02  0.00000000000E+00 0.  1.
         13    1    4    4    0    0  0.65018097939E+02  0.33065323314E+02 -0.51857716998E+02  0.89497997060E+02  0.00000000000E+00 0. -1.
          2    1    1    2  501    0  0.74784977499E+01  0.41867987817E+02  0.99995589875E+02  0.10866450353E+03  0.00000000000E+00 0. -1.
<scales pt_clust_5="13000.00000" pt_clust_6="13000.00000" pt_clust_7="13000.00000" pt_clust_8="13000.00000" pt_clust_9="42.53067"></scales>
<clustering>
<clus scale="   42.531">  2  9  1 -1</clus>
<clus scale="   79.640">  5  6 -1 -1</clus>
<clus scale="   90.680">  7  8 -1 -1</clus>
<clus scale="  169.745">  1  5  2 -1</clus>
<clus scale="   42.531">  2  5  1 -1</clus>
</clustering>
</event>
<event>
 9    1  0.3197504E-005  0.1065696E+03  0.7546771E-02  0.1277960E+00
         -4   -1    0    0    0  501 -0.00000000000E+00  0.00000000000E+00  0.57698677631E+03  0.57698677631E+03  0.00000000000E+00 0.  1.
         21   -1    0    0  501  502  0.00000000000E+00 -0.00000000000E+00 -0.29182360088E+02  0.29182360088E+02  0.00000000000E+00 0. -1.
         23    2    1    2    0    0 -0.63493208482E+02 -0.98714390138E+01  0.41798676143E+03  0.43267556790E+03  0.91467926054E+02 0.  0.
        -24    2    1    2    0    0  0.40174151979E+02 -0.89761316083E+01  0.11694903325E+03  0.14086519534E+03  0.66868478783E+02 0.  0.
         11    1    4    4    0    0 -0.61101567236E+01 -0.21661618184E+02  0.12096407706E+02  0.25551571320E+02  0.00000000000E+00 0. -1.
        -12    1    4    4    0    0  0.46284308702E+02  0.12685486576E+02  0.10485262554E+03  0.11531362402E+03  0.00000000000E+00 0.  1.
        -13    1    3    3    0    0 -0.84545573975E+02 -0.17862679957E+02  0.36524725285E+03  0.37532996833E+03  0.00000000000E+00 0.  1.
         13    1    3    3    0    0  0.21052365493E+02  0.79912409432E+01  0.52739508583E+02  0.57345599571E+02  0.00000000000E+00 0. -1.
         -3    1    1    2    0  502  0.23319056503E+02  0.18847570622E+02  0.12868621548E+02  0.32628373161E+02  0.00000000000E+00 0.  1.
<scales pt_clust_5="13000.00000" pt_clust_6="13000.00000" pt_clust_7="13000.00000" pt_clust_8="13000.00000" pt_clust_9="29.98348"></scales>
<clustering>
<clus scale="   29.983">  2  9  1 -1</clus>
<clus scale="   66.868">  5  6 -1 -1</clus>
<clus scale="   86.383">  2  5  1 -1</clus>
<clus scale="   91.468">  7  8 -1 -1</clus>
<clus scale="   29.983">  2  5  1 -1</clus>
</clustering>
</event>
<event>
 9    1  0.3197504E-005  0.1144113E+03  0.7546771E-02  0.1256880E+00
          1   -1    0    0  502    0 -0.00000000000E+00  0.00000000000E+00  0.45024211312E+03  0.45024211312E+03  0.00000000000E+00 0. -1.
         21   -1    0    0  501  502  0.00000000000E+00 -0.00000000000E+00 -0.77350862683E+02  0.77350862683E+02  0.00000000000E+00 0.  1.
        -24    2    1    2    0    0 -0.85354763305E+01 -0.67537196529E+02  0.20098928384E+03  0.22774619561E+03  0.82689238263E+02 0.  0.
         23    2    1    2    0    0 -0.17523684420E+02  0.51957477789E+02 -0.15411491954E+02  0.11008867299E+03  0.94209037905E+02 0.  0.
         13    1    3    3    0    0 -0.36546706393E+02 -0.32338679816E+02  0.48664458287E+02  0.68917932796E+02  0.00000000000E+00 0. -1.
        -14    1    3    3    0    0  0.28011230063E+02 -0.35198516712E+02  0.15232482556E+03  0.15882826282E+03  0.00000000000E+00 0.  1.
        -11    1    4    4    0    0 -0.43732511779E+02 -0.61299683284E+01 -0.14072957809E+02  0.46348217223E+02  0.00000000000E+00 0.  1.
         11    1    4    4    0    0  0.26208827359E+02  0.58087446118E+02 -0.13385341448E+01  0.63740455769E+02  0.00000000000E+00 0. -1.
          2    1    1    2  501    0  0.26059160750E+02  0.15579718739E+02  0.18731345855E+03  0.18975810720E+03  0.00000000000E+00 0. -1.
<scales pt_clust_5="13000.00000" pt_clust_6="13000.00000" pt_clust_7="13000.00000" pt_clust_8="13000.00000" pt_clust_9="30.36130"></scales>
<clustering>
<clus scale="   30.361">  2  9  1 -1</clus>
<clus scale="   82.689">  5  6 -1 -1</clus>
<clus scale="   94.209">  7  8 -1 -1</clus>
<clus scale="  105.129">  1  5  2 -1</clus>
<clus scale="   30.361">  2  5  1 -1</clus>
</clustering>
</event>
<event>
 9    1  0.3197504E-005  0.1119990E+03  0.7546771E-02  0.1259461E+00
         21   -1    0    0  501  502  0.00000000000E+00  0.00000000000E+00  0.13445771874E+03  0.13445771874E+03  0.00000000000E+00 0. -1.
         -4   -1    0    0    0  501 -0.00000000000E+00 -0.00000000000E+00 -0.14995400315E+03  0.14995400315E+03  0.00000000000E+00 0.  1.
        -24    2    1    2    0    0  0.58072769730E+02 -0.37846570490E+02 -0.72085816479E+02  0.13086098372E+03  0.84400371099E+02 0.  0.
         23    2    1    2    0    0 -0.32169402067E+02  0.42512382719E+02  0.67145387776E+02  0.12519266437E+03  0.91227884977E+02 0.  0.
         11    1    3    3    0    0 -0.47103158548E+01 -0.34467212642E+02 -0.56060417874E+02  0.65976861664E+02  0.00000000000E+00 0. -1.
        -12    1    3    3    0    0  0.62783085585E+02 -0.33793578481E+01 -0.16025398604E+02  0.64884122060E+02  0.00000000000E+00 0.  1.
        -11    1    4    4    0    0 -0.10186976181E+02  0.21529790477E+02 -0.21125628107E+02  0.31837062123E+02  0.00000000000E+00 0.  1.
         11    1    4    4    0    0 -0.21982425885E+02  0.20982592242E+02  0.88271015883E+02  0.93355602242E+02  0.00000000000E+00 0. -1.
         -3    1    1    2    0  502 -0.25903367664E+02 -0.46658122287E+01 -0.10555855706E+02  0.28358073802E+02  0.00000000000E+00 0.  1.
<scales pt_clust_5="13000.00000" pt_clust_6="13000.00000" pt_clust_7="13000.00000" pt_clust_8="13000.00000" pt_clust_9="26.32024"></scales>
<clustering>
<clus scale="   26.320">  1  9  2 -1</clus>
<clus scale="   84.400">  5  6 -1 -1</clus>
<clus scale="   91.228">  7  8 -1 -1</clus>
<clus scale="  106.511">  2  5  1 -1</clus>
<clus scale="   26.320">  1  5  2 -1</clus>
</clustering>
</event>
<event>
 9    1  0.3197504E-005  0.1181556E+03  0.7546771E-02  0.1246624E+00
          1   -1    0    0  502    0 -0.00000000000E+00  0.00000000000E+00  0.24312113631E+03  0.24312113631E+03  0.00000000000E+00 0. -1.
         21   -1    0    0  501  502  0.00000000000E+00 -0.00000000000E+00 -0.28205744366E+03  0.28205744366E+03  0.00000000000E+00 0. -1.
        -24    2    1    2    0    0  0.73254230011E+02 -0.43323147695E+02  0.18728872259E+03  0.22339415546E+03  0.87090790211E+02 0.  0.
         23    2    1    2    0    0 -0.38621720600E+02  0.34057947651E+02 -0.36530865162E+02  0.10873227925E+03  0.88524704689E+02 0.  0.
         11    1    3    3    0    0  0.79824071717E+02 -0.35142458295E+02  0.19275105639E+03  0.21156522526E+03  0.00000000000E+00 0. -1.
        -12    1    3    3    0    0 -0.65698417062E+01 -0.81806894002E+01 -0.54623337929E+01  0.11828930196E+02  0.00000000000E+00 0.  1.
        -11    1    4    4    0    0  0.25973690398E+02  0.26605873837E+02 -0.99927499318E+01  0.38501430710E+02  0.00000000000E+00 0. -1.
         11    1    4    4    0    0 -0.64595410998E+02  0.74520738148E+01 -0.26538115230E+02  0.70230848536E+02  0.00000000000E+00 0.  1.
          2    1    1    2  501    0 -0.34632509411E+02  0.92652000440E+01 -0.18969416478E+03  0.19305214526E+03  0.00000000000E+00 0. -1.
<scales pt_clust_5="13000.00000" pt_clust_6="13000.00000" pt_clust_7="13000.00000" pt_clust_8="13000.00000" pt_clust_9="35.85045"></scales>
<clustering>
<clus scale="   35.850">  2  9  1 -1</clus>
<clus scale="   87.091">  5  6 -1 -1</clus>
<clus scale="   88.525">  7  8 -1 -1</clus>
<clus scale="  117.085">  1  5  2 -1</clus>
<clus scale="   35.850">  2  5  1 -1</clus>
</clustering>
</event>
<event>
 9    1  0.3197504E-005  0.1207959E+03  0.7546771E-02  0.1245452E+00
          1   -1    0    0  502    0 -0.00000000000E+00  0.00000000000E+00  0.27223215035E+02  0.27223215035E+02  0.00000000000E+00 0. -1.
         21   -1    0    0  501  502  0.00000000000E+00 -0.00000000000E+00 -0.13387992861E+04  0.13387992861E+04  0.00000000000E+00 0. -1.
         23    2    1    2    0    0 -0.56433481348E+02 -0.10215114667E+02 -0.25173477286E+03  0.27386272921E+03  0.91330784504E+02 0.  0.
        -24    2    1    2    0    0  0.14652197502E+03  0.15146488756E+01 -0.79438391416E+03  0.81169719414E+03  0.79596159222E+02 0.  0.
         13    1    4    4    0    0  0.15510351066E+03  0.81370355951E+01 -0.75721822282E+03  0.77298301879E+03  0.00000000000E+00 0. -1.
        -14    1    4    4    0    0 -0.85815356375E+01 -0.66223867195E+01 -0.37165691342E+02  0.38714175346E+02  0.00000000000E+00 0.  1.
        -11    1    3    3    0    0  0.21152445246E+02  0.15110903482E+02 -0.68817603065E+02  0.73563767138E+02  0.00000000000E+00 0.  1.
         11    1    3    3    0    0 -0.77585926595E+02 -0.25326018149E+02 -0.18291716980E+03  0.20029896207E+03  0.00000000000E+00 0. -1.
          2    1    1    2  501    0 -0.90088493672E+02  0.87004657912E+01 -0.26545738402E+03  0.28046257776E+03  0.00000000000E+00 0. -1.
<scales pt_clust_5="13000.00000" pt_clust_6="13000.00000" pt_clust_7="13000.00000" pt_clust_8="13000.00000" pt_clust_9="90.50770"></scales>
<clustering>
<clus scale="   79.596">  5  6 -1 -1</clus>
<clus scale="   90.508">  2  9  1 -1</clus>
<clus scale="   91.331">  7  8 -1 -1</clus>
<clus scale="  112.187">  2  5  1 -1</clus>
<clus scale="   90.508">  2  5  1 -1</clus>
</clustering>
</event>
<event>
 9    1  0.3197504E-005  0.1226487E+03  0.7546771E-02  0.1243436E+00
         -4   -1    0    0    0  501 -0.00000000000E+00  0.00000000000E+00  0.69336515682E+02  0.69336515682E+02  0.00000000000E+00 0.  1.
         21   -1    0    0  501  502  0.00000000000E+00 -0.00000000000E+00 -0.42854566391E+03  0.42854566391E+03  0.00000000000E+00 0. -1.
         23    2    1    2    0    0 -0.15406439216E+02  0.34254546305E+02 -0.12297160861E+03  0.15811037959E+03  0.92011647633E+02 0.  0.
        -24    2    1    2    0    0  0.29409683259E+02 -0.12255195890E+03 -0.10544914805E+03  0.18134791517E+03  0.76704833036E+02 0.  0.
         13    1    4    4    0    0  0.18367626645E+02 -0.12517246853E+03 -0.11136859236E+03  0.16854815322E+03  0.00000000000E+00 0. -1.
        -14    1    4    4    0    0  0.11042056614E+02  0.26205096318E+01  0.59194443151E+01  0.12799761951E+02  0.00000000000E+00 0.  1.
        -13    1    3    3    0    0 -0.45695370214E+02  0.37559108129E+01 -0.27639746385E+02  0.53536242913E+02  0.00000000000E+00 0.  1.
         13    1    3    3    0    0  0.30288930998E+02  0.30498635492E+02 -0.95331862222E+02  0.10457413668E+03  0.00000000000E+00 0. -1.
         -3    1    1    2    0  502 -0.14003244043E+02  0.88297412598E+02 -0.13078839158E+03  0.15842388484E+03  0.00000000000E+00 0.  1.
<scales pt_clust_5="13000.00000" pt_clust_6="13000.00000" pt_clust_7="13000.00000" pt_clust_8="13000.00000" pt_clust_9="89.40092"></scales>
<clustering>
<clus scale="   76.705">  5  6 -1 -1</clus>
<clus scale="   89.401">  2  9  1 -1</clus>
<clus scale="   92.012">  7  8 -1 -1</clus>
<clus scale="  111.625">  2  5  1 -1</clus>
<clus scale="   89.401">  2  5  1 -1</clus>
</clustering>
</event>
<event>
 9    1  0.3197504E-005  0.8909419E+02  0.7546771E-02  0.1310117E+00
         -2   -1    0    0    0  501 -0.00000000000E+00  0.00000000000E+00  0.40894838517E+03  0.40894838517E+03  0.00000000000E+00 0.  1.
         21   -1    0    0  501  502  0.00000000000E+00 -0.00000000000E+00 -0.55572877477E+02  0.55572877477E+02  0.00000000000E+00 0. -1.
        -24    2    1    2    0    0  0.84684723022E+01  0.88623047845E+01  0.30268622962E+03  0.31354441202E+03  0.80875764222E+02 0.  0.
         23    2    1    2    0    0 -0.27993459580E+01  0.25650544101E+02  0.65203229803E+02  0.11310957548E+03  0.88749806416E+02 0.  0.
         13    1    3    3    0    0  0.18244946477E+01  0.42100972796E+02  0.22302875629E+03  0.22697499163E+03  0.00000000000E+00 0. -1.
        -14    1    3    3    0    0  0.66439776545E+01 -0.33238668011E+02  0.79657473331E+02  0.86569420396E+02  0.00000000000E+00 0.  1.
        -13    1    4    4    0    0  0.17167958312E+02  0.27005524184E+02  0.81335313510E+02  0.87404063709E+02  0.00000000000E+00 0.  1.
         13    1    4    4    0    0 -0.19967304270E+02 -0.13549800831E+01 -0.16132083708E+02  0.25705511774E+02  0.00000000000E+00 0. -1.
         -1    1    1    2    0  502 -0.56691263442E+01 -0.34512848885E+02 -0.14513951732E+02  0.37867275140E+02  0.00000000000E+00 0.  1.
<scales pt_clust_5="13000.00000" pt_clust_6="13000.00000" pt_clust_7="13000.00000" pt_clust_8="13000.00000" pt_clust_9="34.97536"></scales>
<clustering>
<clus scale="   34.975">  2  9  1 -1</clus>
<clus scale="   80.876">  5  6 -1 -1</clus>
<clus scale="   81.254">  1  5  2 -1</clus>
<clus scale="   88.750">  7  8 -1 -1</clus>
<clus scale="   34.975">  2  5  1 -1</clus>
</clustering>
</event>
<event>
 9    1  0.3197504E-005  0.1126982E+03  0.7546771E-02  0.1266955E+00
         21   -1    0    0  501  502  0.00000000000E+00  0.00000000000E+00  0.69065615232E+02  0.69065615232E+02  0.00000000000E+00 0.  1.
         -2   -1    0    0    0  501 -0.00000000000E+00 -0.00000000000E+00 -0.45799447504E+03  0.45799447504E+03  0.00000000000E+00 0.  1.
        -24    2    1    2    0    0  0.34146957830E+02 -0.57341627525E+02 -0.21465169306E+03  0.23290910947E+03  0.60969065626E+02 0.  0.
         23    2    1    2    0    0  0.21767896769E+02  0.79429050182E+02 -0.19515688385E+03  0.23050910943E+03  0.90914382105E+02 0.  0.
         11    1    3    3    0    0  0.28216618202E+01 -0.32823917794E+02 -0.31829437226E+02  0.45809217728E+02  0.00000000000E+00 0. -1.
        -12    1    3    3    0    0  0.31325296010E+02 -0.24517709731E+02 -0.18282225583E+03  0.18709989174E+03  0.00000000000E+00 0.  1.
        -11    1    4    4    0    0  0.38953840813E+02  0.22118110564E+02 -0.14709253300E+03  0.15376223786E+03  0.00000000000E+00 0.  1.
         11    1    4    4    0    0 -0.17185944044E+02  0.57310939618E+02 -0.48064350857E+02  0.76746871571E+02  0.00000000000E+00 0. -1.
         -1    1    1    2    0  502 -0.55914854599E+02 -0.22087422657E+02  0.20879717110E+02  0.63641871367E+02  0.00000000000E+00 0.  1.
<scales pt_clust_5="13000.00000" pt_clust_6="13000.00000" pt_clust_7="13000.00000" pt_clust_8="13000.00000" pt_clust_9="60.11926"></scales>
<clustering>
<clus scale="   60.119">  1  9  2 -1</clus>
<clus scale="   60.969">  5  6 -1 -1</clus>
<clus scale="   90.292">  2  5  1 -1</clus>
<clus scale="   90.914">  7  8 -1 -1</clus>
<clus scale="   60.119">  1  5  2 -1</clus>
</clustering>
</event>
<event>
 9    1  0.3197504E-005  0.8360433E+02  0.7546771E-02  0.1320745E+00
         21   -1    0    0  501  502  0.00000000000E+00  0.00000000000E+00  0.83817071613E+02  0.83817071613E+02  0.00000000000E+00 0.  1.
         -2   -1    0    0    0  501 -0.00000000000E+00 -0.00000000000E+00 -0.39624464300E+03  0.39624464300E+03  0.00000000000E+00 0.  1.
        -24    2    1    2    0    0  0.22159493913E+02 -0.53341978740E+01 -0.31625913698E+03  0.32680181056E+03  0.79120697832E+02 0.  0.
         23    2    1    2    0    0 -0.95704026381E-01 -0.81495666143E+01 -0.48243667202E+02  0.95118244290E+02  0.81569629007E+02 0.  0.
         11    1    3    3    0    0  0.13210665614E+02 -0.40799160851E+02 -0.12713018475E+03  0.13416846532E+03  0.00000000000E+00 0. -1.
        -12    1    3    3    0    0  0.89488282997E+01  0.35464962977E+02 -0.18912895223E+03  0.19263334524E+03  0.00000000000E+00 0.  1.
        -11    1    4    4    0    0  0.36776898155E+01  0.36634404983E+02 -0.25159482723E+02  0.44593773127E+02  0.00000000000E+00 0.  1.
         11    1    4    4    0    0 -0.37733938419E+01 -0.44783971598E+02 -0.23084184480E+02  0.50524471162E+02  0.00000000000E+00 0. -1.
         -1    1    1    2    0  502 -0.22063789887E+02  0.13483764488E+02  0.52075232796E+02  0.58141659760E+02  0.00000000000E+00 0.  1.
<scales pt_clust_5="13000.00000" pt_clust_6="13000.00000" pt_clust_7="13000.00000" pt_clust_8="13000.00000" pt_clust_9="25.85774"></scales>
<clustering>
<clus scale="   25.858">  1  9  2 -1</clus>
<clus scale="   79.121">  5  6 -1 -1</clus>
<clus scale="   81.217">  2  5  1 -1</clus>
<clus scale="   81.570">  7  8 -1 -1</clus>
<clus scale="   25.858">  1  5  2 -1</clus>
</clustering>
</event>
<event>
 9    1  0.3197504E-005  0.1598550E+03  0.7546771E-02  0.1190274E+00
          1   -1    0    0  502    0 -0.00000000000E+00  0.00000000000E+00  0.15698934849E+03  0.15698934849E+03  0.00000000000E+00 0. -1.
         21   -1    0    0  501  502  0.00000000000E+00 -0.00000000000E+00 -0.23611453377E+03  0.23611453377E+03  0.00000000000E+00 0. -1.
         23    2    1    2    0    0  0.30496887645E+02 -0.13902155077E+03  0.46275234192E+02  0.17468707992E+03  0.90095098953E+02 0.  0.
        -24    2    1    2    0    0 -0.98908240670E+01  0.11345284906E+03 -0.76016785819E+02  0.15911156113E+03  0.81046651989E+02 0.  0.
         13    1    4    4    0    0 -0.40290237539E+02  0.57249844822E+02 -0.62399163072E+02  0.93779014311E+02  0.00000000000E+00 0. -1.
        -14    1    4    4    0    0  0.30399413471E+02  0.56203004233E+02 -0.13617622747E+02  0.65332546816E+02  0.00000000000E+00 0.  1.
        -13    1    3    3    0    0 -0.88120441214E+00 -0.38525112790E+02 -0.26441568335E+02  0.46734541537E+02  0.00000000000E+00 0.  1.
         13    1    3    3    0    0  0.31378092057E+02 -0.10049643798E+03  0.72716802526E+02  0.12795253838E+03  0.00000000000E+00 0. -1.
          2    1    1    2  501    0 -0.20606063578E+02  0.25568701715E+02 -0.49383633649E+02  0.59305241218E+02  0.00000000000E+00 0. -1.
<scales pt_clust_5="13000.00000" pt_clust_6="13000.00000" pt_clust_7="13000.00000" pt_clust_8="13000.00000" pt_clust_9="32.83852"></scales>
<clustering>
<clus scale="   32.839">  2  9  1 -1</clus>
<clus scale="   81.047">  5  6 -1 -1</clus>
<clus scale="   90.095">  7  8 -1 -1</clus>
<clus scale="  154.936">  2  5  1 -1</clus>
<clus scale="   32.839">  2  5  1 -1</clus>
</clustering>
</event>
<event>
 9    1  0.3197504E-005  0.1303902E+03  0.7546771E-02  0.1228816E+00
         21   -1    0    0  501  502  0.00000000000E+00  0.00000000000E+00  0.73090558098E+02  0.73090558098E+02  0.00000000000E+00 0. -1.
          1   -1    0    0  502    0 -0.00000000000E+00 -0.00000000000E+00 -0.60402870848E+03  0.60402870848E+03  0.00000000000E+00 0. -1.
        -24    2    1    2    0    0  0.53130621272E+02 -0.94708028330E+02 -0.42587595851E+03  0.44711643272E+03  0.82160202153E+02 0.  0.
         23    2    1    2    0    0 -0.25093727832E+02  0.19533992600E+02  0.31314421634E+01  0.95306636861E+02  0.89790183518E+02 0.  0.
         13    1    3    3    0    0  0.34371352457E+02 -0.10395976380E+03 -0.39445644541E+03  0.40937135914E+03  0.00000000000E+00 0. -1.
        -14    1    3    3    0    0  0.18759268814E+02  0.92517354658E+01 -0.31419513099E+02  0.37745073572E+02  0.00000000000E+00 0.  1.
        -13    1    4    4    0    0 -0.37414007285E+02 -0.19924635999E+02  0.24304738862E+02  0.48862249150E+02  0.00000000000E+00 0. -1.
         13    1    4    4    0    0  0.12320279453E+02  0.39458628599E+02 -0.21173296699E+02  0.46444387711E+02  0.00000000000E+00 0.  1.
          2    1    1    2  501    0 -0.28036893439E+02  0.75174035730E+02 -0.10819363403E+03  0.13469619700E+03  0.00000000000E+00 0. -1.
<scales pt_clust_5="13000.00000" pt_clust_6="13000.00000" pt_clust_7="13000.00000" pt_clust_8="13000.00000" pt_clust_9="80.23222"></scales>
<clustering>
<clus scale="   80.232">  1  9  2 -1</clus>
<clus scale="   82.160">  5  6 -1 -1</clus>
<clus scale="   89.790">  7  8 -1 -1</clus>
<clus scale="  125.258">  2  5  1 -1</clus>
<clus scale="   80.232">  1  5  2 -1</clus>
</clustering>
</event>
<event>
 9    1  0.3197504E-005  0.9850126E+02  0.7546771E-02  0.1290608E+00
         -2   -1    0    0    0  501 -0.00000000000E+00  0.00000000000E+00  0.63726291612E+02  0.63726291612E+02  0.00000000000E+00 0.  1.
         21   -1    0    0  501  502  0.00000000000E+00 -0.00000000000E+00 -0.26695866484E+03  0.26695866484E+03  0.00000000000E+00 0. -1.
         23    2    1    2    0    0 -0.37002973685E+02  0.25505882547E+02 -0.26598163185E+02  0.10538809454E+03  0.91539161450E+02 0.  0.
        -24    2    1    2    0    0  0.26830027526E+02 -0.74941400804E+01 -0.49631873389E+02  0.96620892070E+02  0.78078559258E+02 0.  0.
         13    1    4    4    0    0  0.22488177945E+02  0.23384734977E+02 -0.56070820296E+02  0.64780404953E+02  0.00000000000E+00 0. -1.
        -14    1    4    4    0    0  0.43418495810E+01 -0.30878875057E+02  0.64389469069E+01  0.31840487117E+02  0.00000000000E+00 0.  1.
        -11    1    3    3    0    0 -0.53838066291E+02 -0.13259991796E+02 -0.29901190910E+02  0.62995602880E+02  0.00000000000E+00 0.  1.
         11    1    3    3    0    0  0.16835092606E+02  0.38765874343E+02  0.33030277250E+01  0.42392491655E+02  0.00000000000E+00 0. -1.
         -1    1    1    2    0  502  0.10172946159E+02 -0.18011742467E+02 -0.12700233666E+03  0.12867596985E+03  0.00000000000E+00 0.  1.
<scales pt_clust_5="13000.00000" pt_clust_6="13000.00000" pt_clust_7="13000.00000" pt_clust_8="13000.00000" pt_clust_9="20.68603"></scales>
<clustering>
<clus scale="   20.686">  2  9  1 -1</clus>
<clus scale="   78.079">  5  6 -1 -1</clus>
<clus scale="   86.136">  2  5  1 -1</clus>
<clus scale="   91.539">  7  8 -1 -1</clus>
<clus scale="   20.686">  2  5  1 -1</clus>
</clustering>
</event>
<event>
 9    1  0.3197504E-005  0.1365452E+03  0.7546771E-02  0.1219039E+00
         21   -1    0    0  501  502  0.00000000000E+00  0.00000000000E+00  0.20693362396E+02  0.20693362396E+02  0.00000000000E+00 0. -1.
          1   -1    0    0  502    0 -0.00000000000E+00 -0.00000000000E+00 -0.13637993342E+04  0.13637993342E+04  0.00000000000E+00 0. -1.
        -24    2    1    2    0    0 -0.42390821450E+02 -0.10231447885E+03 -0.87430118484E+03  0.88543969009E+03  0.85648401343E+02 0.  0.
         23    2    1    2    0    0  0.53149119086E+02  0.73952701357E+02 -0.43586573661E+03  0.45427452474E+03  0.89958727089E+02 0.  0.
         13    1    3    3    0    0 -0.64084795707E+02 -0.89687841442E+02 -0.60405584646E+03  0.61403113568E+03  0.00000000000E+00 0. -1.
        -14    1    3    3    0    0  0.21693974257E+02 -0.12626637403E+02 -0.27024533838E+03  0.27140855441E+03  0.00000000000E+00 0.  1.
        -11    1    4    4    0    0 -0.13633482248E+02  0.26451048063E+02 -0.39114075354E+02  0.49147132903E+02  0.00000000000E+00 0.  1.
         11    1    4    4    0    0  0.66782601334E+02  0.47501653294E+02 -0.39675166126E+03  0.40512739184E+03  0.00000000000E+00 0. -1.
          2    1    1    2  501    0 -0.10758297635E+02  0.28361777489E+02 -0.32939050330E+02  0.44778481741E+02  0.00000000000E+00 0. -1.
<scales pt_clust_5="13000.00000" pt_clust_6="13000.00000" pt_clust_7="13000.00000" pt_clust_8="13000.00000" pt_clust_9="30.33367"></scales>
<clustering>
<clus scale="   30.334">  1  9  2 -1</clus>
<clus scale="   85.648">  5  6 -1 -1</clus>
<clus scale="   89.959">  7  8 -1 -1</clus>
<clus scale="  133.745">  2  5  1 -1</clus>
<clus scale="   30.334">  1  5  2 -1</clus>
</clustering>
</event>
<event>
 9    1  0.3197504E-005  0.1010258E+03  0.7546771E-02  0.1282539E+00
         21   -1    0    0  501  502  0.00000000000E+00  0.00000000000E+00  0.89466248965E+02  0.89466248965E+02  0.00000000000E+00 0.  1.
          3   -1    0    0  502    0 -0.00000000000E+00 -0.00000000000E+00 -0.24865685813E+03  0.24865685813E+03  0.00000000000E+00 0. -1.
         23    2    1    2    0    0  0.24790318093E+02  0.40103997670E+02 -0.13020074387E+03  0.16534418650E+03  0.90352508578E+02 0.  0.
        -24    2    1    2    0    0 -0.57923942083E+02 -0.25625680998E+01  0.21059504596E+02  0.10198248424E+03  0.81210679945E+02 0.  0.
         13    1    4    4    0    0  0.19488368561E+02 -0.10139221403E+02  0.35383741398E+01  0.22251301342E+02  0.00000000000E+00 0. -1.
        -14    1    4    4    0    0 -0.77412310644E+02  0.75766533033E+01  0.17521130456E+02  0.79731182902E+02  0.00000000000E+00 0.  1.
        -13    1    3    3    0    0 -0.23909584337E+02  0.35029031450E+02 -0.97884767888E+02  0.10667768770E+03  0.00000000000E+00 0. -1.
         13    1    3    3    0    0  0.48699902431E+02  0.50749662201E+01 -0.32315975980E+02  0.58666498808E+02  0.00000000000E+00 0.  1.
          4    1    1    2  501    0  0.33133623989E+02 -0.37541429570E+02 -0.50049369893E+02  0.70796436348E+02  0.00000000000E+00 0. -1.
<scales pt_clust_5="13000.00000" pt_clust_6="13000.00000" pt_clust_7="13000.00000" pt_clust_8="13000.00000" pt_clust_9="50.07193"></scales>
<clustering>
<clus scale="   50.072">  1  9  2 -1</clus>
<clus scale="   81.211">  5  6 -1 -1</clus>
<clus scale="   90.353">  7  8 -1 -1</clus>
<clus scale="   92.940">  1  5  2 -1</clus>
<clus scale="   50.072">  1  5  2 -1</clus>
</clustering>
</event>
<event>
 9    1  0.3197504E-005  0.1179317E+03  0.7546771E-02  0.1260440E+00
         21   -1    0    0  501  502  0.00000000000E+00  0.00000000000E+00  0.42963470685E+02  0.42963470685E+02  0.00000000000E+00 0. -1.
         -2   -1    0    0    0  501 -0.00000000000E+00 -0.00000000000E+00 -0.62536798892E+03  0.62536798892E+03  0.00000000000E+00 0.  1.
        -24    2    1    2    0    0 -0.42487938569E+02 -0.58154070876E+02 -0.42727338464E+03  0.43852572336E+03  0.67491806443E+02 0.  0.
         23    2    1    2    0    0 -0.68298296520E+01  0.15926011814E+02 -0.10680802808E+03  0.14887012134E+03  0.10224516487E+03 0.  0.
         11    1    3    3    0    0 -0.16208669360E+02  0.14296469224E+02 -0.97358377312E+02  0.99728449440E+02  0.00000000000E+00 0. -1.
        -12    1    3    3    0    0 -0.26279269209E+02 -0.72450540101E+02 -0.32991500733E+03  0.33879727392E+03  0.00000000000E+00 0.  1.
        -13    1    4    4    0    0 -0.20602131050E+02  0.34427931657E+02 -0.11697447575E+03  0.12366389230E+03  0.00000000000E+00 0.  1.
         13    1    4    4    0    0  0.13772301398E+02 -0.18501919843E+02  0.10166447677E+02  0.25206229032E+02  0.00000000000E+00 0. -1.
         -1    1    1    2    0  502  0.49317768221E+02  0.42228059062E+02 -0.48323105512E+02  0.80935614910E+02  0.00000000000E+00 0.  1.
<scales pt_clust_5="13000.00000" pt_clust_6="13000.00000" pt_clust_7="13000.00000" pt_clust_8="13000.00000" pt_clust_9="64.92651"></scales>
<clustering>
<clus scale="   64.927">  1  9  2 -1</clus>
<clus scale="   67.492">  5  6 -1 -1</clus>
<clus scale="   89.493">  2  5  1 -1</clus>
<clus scale="  102.245">  7  8 -1 -1</clus>
<clus scale="   64.927">  1  5  2 -1</clus>
</clustering>
</event>
<event>
 9    1  0.4266968E-005  0.9322893E+02  0.7546771E-02  0.1302521E+00
          1   -1    0    0  502    0 -0.00000000000E+00  0.00000000000E+00  0.12937255688E+03  0.12937255688E+03  0.00000000000E+00 0. -1.
         21   -1    0    0  501  502  0.00000000000E+00 -0.00000000000E+00 -0.16892419489E+03  0.16892419489E+03  0.00000000000E+00 0. -1.
         23    2    1    2    0    0  0.73452340435E+01 -0.89710017593E+01  0.89209050227E+02  0.12892651466E+03  0.92354535377E+02 0.  0.
        -24    2    1    2    0    0 -0.28721146367E+02 -0.30169108220E+01 -0.98180574403E+02  0.13018116927E+03  0.80459341547E+02 0.  0.
         11    1    4    4    0    0 -0.55383861712E+02 -0.13143655182E+02 -0.67315191973E+02  0.88155900994E+02  0.00000000000E+00 0. -1.
        -12    1    4    4    0    0  0.26662715345E+02  0.10126744360E+02 -0.30865382429E+02  0.42025268273E+02  0.00000000000E+00 0.  1.
        -11    1    3    3    0    0  0.23143867618E+02  0.34656463598E+02  0.21633214276E+02  0.46954286677E+02  0.00000000000E+00 0. -1.
         11    1    3    3    0    0 -0.15798633574E+02 -0.43627465357E+02  0.67575835952E+02  0.81972227985E+02  0.00000000000E+00 0.  1.
          2    1    1    2  501    0  0.21375912323E+02  0.11987912581E+02 -0.30580113840E+02  0.39189067840E+02  0.00000000000E+00 0. -1.
<scales pt_clust_5="13000.00000" pt_clust_6="13000.00000" pt_clust_7="13000.00000" pt_clust_8="13000.00000" pt_clust_9="24.50795"></scales>
<clustering>
<clus scale="   24.508">  2  9  1 -1</clus>
<clus scale="   80.459">  5  6 -1 -1</clus>
<clus scale="   81.462">  2  5  1 -1</clus>
<clus scale="   92.355">  7  8 -1 -1</clus>
<clus scale="   24.508">  2  5  1 -1</clus>
</clustering>
</event>
<event>
 9    1  0.3197504E-005  0.1142415E+03  0.7546771E-02  0.1261093E+00
         21   -1    0    0  501  502  0.00000000000E+00  0.00000000000E+00  0.73159409544E+03  0.73159409544E+03  0.00000000000E+00 0.  1.
          1   -1    0    0  502    0 -0.00000000000E+00 -0.00000000000E+00 -0.26725682834E+02  0.26725682834E+02  0.00000000000E+00 0. -1.
        -24    2    1    2    0    0 -0.46089964488E+01 -0.41955257415E+02  0.23400143241E+03  0.25029932563E+03  0.78176694525E+02 0.  0.
         23    2    1    2    0    0 -0.46552996455E+02  0.71543010209E+02  0.29632563686E+03  0.32374439569E+03  0.98569604303E+02 0.  0.
         11    1    3    3    0    0 -0.20966523063E+02 -0.60190411045E+02  0.18144535401E+03  0.19231457865E+03  0.00000000000E+00 0. -1.
        -12    1    3    3    0    0  0.16357526614E+02  0.18235153630E+02  0.52556078404E+02  0.57984746977E+02  0.00000000000E+00 0.  1.
        -11    1    4    4    0    0  0.45320537218E+01  0.43552663273E+02  0.35147048985E+02  0.56148811577E+02  0.00000000000E+00 0. -1.
         11    1    4    4    0    0 -0.51085050177E+02  0.27990346935E+02  0.26117858787E+03  0.26759558411E+03  0.00000000000E+00 0.  1.
          2    1    1    2  501    0  0.51161992904E+02 -0.29587752794E+02  0.17454134333E+03  0.18427605695E+03  0.00000000000E+00 0. -1.
<scales pt_clust_5="13000.00000" pt_clust_6="13000.00000" pt_clust_7="13000.00000" pt_clust_8="13000.00000" pt_clust_9="59.10148"></scales>
<clustering>
<clus scale="   59.101">  1  9  2 -1</clus>
<clus scale="   78.177">  5  6 -1 -1</clus>
<clus scale="   97.194">  2  5  1 -1</clus>
<clus scale="   98.570">  7  8 -1 -1</clus>
<clus scale="   59.101">  1  5  2 -1</clus>
</clustering>
</event>
<event>
 9    1  0.3197504E-005  0.1123514E+03  0.7546771E-02  0.1261775E+00
          1   -1    0    0  502    0 -0.00000000000E+00  0.00000000000E+00  0.62030136499E+03  0.62030136499E+03  0.00000000000E+00 0. -1.
         21   -1    0    0  501  502  0.00000000000E+00 -0.00000000000E+00 -0.34370736428E+02  0.34370736428E+02  0.00000000000E+00 0.  1.
         23    2    1    2    0    0 -0.19868390112E+02 -0.71486364032E+02  0.46899979177E+03  0.48377958943E+03  0.92611194240E+02 0.  0.
        -24    2    1    2    0    0  0.72509022295E+01  0.38802530187E+02  0.96458715555E+02  0.13031491049E+03  0.78227106286E+02 0.  0.
         11    1    4    4    0    0  0.36647495520E+02  0.40689363111E+02  0.78837302640E+02  0.95989496747E+02  0.00000000000E+00 0. -1.
        -12    1    4    4    0    0 -0.29396593291E+02 -0.18868329245E+01  0.17621412916E+02  0.34325413744E+02  0.00000000000E+00 0.  1.
        -13    1    3    3    0    0  0.15069210353E+02  0.16779262067E+02  0.65875132458E+02  0.69628713995E+02  0.00000000000E+00 0.  1.
         13    1    3    3    0    0 -0.34937600465E+02 -0.88265626099E+02  0.40312465931E+03  0.41415087544E+03  0.00000000000E+00 0. -1.
          2    1    1    2  501    0  0.12617487882E+02  0.32683833845E+02  0.20472121231E+02  0.40577601494E+02  0.00000000000E+00 0. -1.
<scales pt_clust_5="13000.00000" pt_clust_6="13000.00000" pt_clust_7="13000.00000" pt_clust_8="13000.00000" pt_clust_9="35.03475"></scales>
<clustering>
<clus scale="   35.035">  2  9  1 -1</clus>
<clus scale="   78.227">  5  6 -1 -1</clus>
<clus scale="   92.611">  7  8 -1 -1</clus>
<clus scale="  100.824">  2  5  1 -1</clus>
<clus scale="   35.035">  2  5  1 -1</clus>
</clustering>
</event>
<event>
 9    1  0.3197504E-005  0.1034072E+03  0.7546771E-02  0.1281530E+00
         -4   -1    0    0    0  501 -0.00000000000E+00  0.00000000000E+00  0.32004825142E+03  0.32004825142E+03  0.00000000000E+00 0.  1.
         21   -1    0    0  501  502  0.00000000000E+00 -0.00000000000E+00 -0.76715678562E+02  0.76715678562E+02  0.00000000000E+00 0. -1.
        -24    2    1    2    0    0  0.25521970050E+02 -0.31219815691E+02  0.25303299393E+03  0.26838506820E+03  0.79867396144E+02 0.  0.
         23    2    1    2    0    0 -0.64239916276E+01  0.16612307969E+02 -0.23462785779E+02  0.10067480533E+03  0.96268778258E+02 0.  0.
         11    1    3    3    0    0 -0.14863543059E+02  0.14259177778E+02  0.25062244528E+02  0.32440178235E+02  0.00000000000E+00 0. -1.
        -12    1    3    3    0    0  0.40385513109E+02 -0.45478993469E+02  0.22797074940E+03  0.23594488996E+03  0.00000000000E+00 0.  1.
        -11    1    4    4    0    0 -0.19029643061E+02  0.36182136857E+02  0.24288180330E+02  0.47551972055E+02  0.00000000000E+00 0.  1.
         11    1    4    4    0    0  0.12605651433E+02 -0.19569828888E+02 -0.47750966109E+02  0.53122833275E+02  0.00000000000E+00 0. -1.
         -3    1    1    2    0  502 -0.19097978422E+02  0.14607507723E+02  0.13762364706E+02  0.27704056453E+02  0.00000000000E+00 0.  1.
<scales pt_clust_5="13000.00000" pt_clust_6="13000.00000" pt_clust_7="13000.00000" pt_clust_8="13000.00000" pt_clust_9="24.04396"></scales>
<clustering>
<clus scale="   24.044">  2  9  1 -1</clus>
<clus scale="   79.867">  5  6 -1 -1</clus>
<clus scale="   88.341">  1  5  2 -1</clus>
<clus scale="   96.269">  7  8 -1 -1</clus>
<clus scale="   24.044">  2  5  1 -1</clus>
</clustering>
</event>
<event>
 9    1  0.3197504E-005  0.9711777E+02  0.7546771E-02  0.1294028E+00
          3   -1    0    0  502    0 -0.00000000000E+00  0.00000000000E+00  0.39899122451E+03  0.39899122451E+03  0.00000000000E+00 0. -1.
         21   -1    0    0  501  502  0.00000000000E+00 -0.00000000000E+00 -0.35744878615E+02  0.35744878615E+02  0.00000000000E+00 0.  1.
        -24    2    1    2    0    0 -0.30286028155E+02 -0.20265573138E+02  0.25482938976E+03  0.26924301247E+03  0.78904023488E+02 0.  0.
         23    2    1    2    0    0  0.10791034390E+02 -0.25819514433E+01  0.68817802154E+02  0.11579241503E+03  0.92460156766E+02 0.  0.
         13    1    3    3    0    0 -0.49057969257E+02  0.10942605076E+02  0.13799414198E+03  0.14686322948E+03  0.00000000000E+00 0. -1.
        -14    1    3    3    0    0  0.18771941102E+02 -0.31208178214E+02  0.11683524778E+03  0.12237978299E+03  0.00000000000E+00 0.  1.
        -11    1    4    4    0    0 -0.27182503873E+02  0.20319790617E+02  0.62336591689E+02  0.70976285271E+02  0.00000000000E+00 0. -1.
         11    1    4    4    0    0  0.37973538263E+02 -0.22901742060E+02  0.64812104648E+01  0.44816129760E+02  0.00000000000E+00 0.  1.
          4    1    1    2  501    0  0.19494993764E+02  0.22847524582E+02  0.39599153982E+02  0.49700675624E+02  0.00000000000E+00 0. -1.
<scales pt_clust_5="13000.00000" pt_clust_6="13000.00000" pt_clust_7="13000.00000" pt_clust_8="13000.00000" pt_clust_9="30.03438"></scales>
<clustering>
<clus scale="   30.034">  2  9  1 -1</clus>
<clus scale="   78.904">  5  6 -1 -1</clus>
<clus scale="   84.314">  1  5  2 -1</clus>
<clus scale="   92.460">  7  8 -1 -1</clus>
<clus scale="   30.034">  2  5  1 -1</clus>
</clustering>
</event>
<event>
 9    1  0.3197504E-005  0.1632052E+03  0.7546771E-02  0.1187038E+00
         21   -1    0    0  501  502  0.00000000000E+00  0.00000000000E+00  0.49488099974E+02  0.49488099974E+02  0.00000000000E+00 0.  1.
          1   -1    0    0  502    0 -0.00000000000E+00 -0.00000000000E+00 -0.88218882429E+03  0.88218882429E+03  0.00000000000E+00 0. -1.
        -24    2    1    2    0    0  0.63736770241E+02  0.13808281663E+03 -0.37229964782E+03  0.40990366902E+03  0.79276415038E+02 0.  0.
         23    2    1    2    0    0 -0.15082549799E+02 -0.11130318968E+03 -0.15900938912E+03  0.21530738308E+03  0.91964123634E+02 0.  0.
         13    1    3    3    0    0  0.94178632236E+01  0.10837890374E+03 -0.21768055347E+03  0.24335058307E+03  0.00000000000E+00 0. -1.
        -14    1    3    3    0    0  0.54318907017E+02  0.29703912885E+02 -0.15461909435E+03  0.16655308595E+03  0.00000000000E+00 0.  1.
        -13    1    4    4    0    0 -0.55539603992E+00 -0.93117647726E+02 -0.53778112668E+02  0.10753274006E+03  0.00000000000E+00 0.  1.
         13    1    4    4    0    0 -0.14527153759E+02 -0.18185541955E+02 -0.10523127646E+03  0.10777464302E+03  0.00000000000E+00 0. -1.
          2    1    1    2  501    0 -0.48654220442E+02 -0.26779626948E+02 -0.30139168737E+03  0.30646587217E+03  0.00000000000E+00 0. -1.
<scales pt_clust_5="13000.00000" pt_clust_6="13000.00000" pt_clust_7="13000.00000" pt_clust_8="13000.00000" pt_clust_9="55.53724"></scales>
<clustering>
<clus scale="   55.537">  1  9  2 -1</clus>
<clus scale="   79.276">  5  6 -1 -1</clus>
<clus scale="   91.964">  7  8 -1 -1</clus>
<clus scale="  156.407">  2  5  1 -1</clus>
<clus scale="   55.537">  1  5  2 -1</clus>
</clustering>
</event>
<event>
 9    1  0.3197504E-005  0.1101531E+03  0.7546771E-02  0.1264954E+00
         -4   -1    0    0    0  501 -0.00000000000E+00  0.00000000000E+00  0.34033371790E+03  0.34033371790E+03  0.00000000000E+00 0.  1.
         21   -1    0    0  501  502  0.00000000000E+00 -0.00000000000E+00 -0.64294982880E+02  0.64294982880E+02  0.00000000000E+00 0. -1.
        -24    2    1    2    0    0 -0.29844965338E+02  0.48826530179E+02  0.12456698486E+03  0.15850714310E+03  0.79579071941E+02 0.  0.
         23    2    1    2    0    0  0.49477713655E+02 -0.54815729656E+02  0.27811575912E+02  0.12076943759E+03  0.91427375188E+02 0.  0.
         11    1    3    3    0    0 -0.11146060472E+02 -0.18292838287E+02  0.59250057010E+02  0.63003427307E+02  0.00000000000E+00 0. -1.
        -12    1    3    3    0    0 -0.18698904866E+02  0.67119368466E+02  0.65316927848E+02  0.95503715791E+02  0.00000000000E+00 0.  1.
        -11    1    4    4    0    0  0.36197825151E+02 -0.73370451119E+02 -0.36611496887E+01  0.81895724309E+02  0.00000000000E+00 0. -1.
         11    1    4    4    0    0  0.13279888504E+02  0.18554721462E+02  0.31472725600E+02  0.38873713277E+02  0.00000000000E+00 0.  1.
         -3    1    1    2    0  502 -0.19632748317E+02  0.59891994769E+01  0.12366017425E+03  0.12535212009E+03  0.00000000000E+00 0.  1.
<scales pt_clust_5="13000.00000" pt_clust_6="13000.00000" pt_clust_7="13000.00000" pt_clust_8="13000.00000" pt_clust_9="20.52598"></scales>
<clustering>
<clus scale="   20.526">  2  9  1 -1</clus>
<clus scale="   79.579">  5  6 -1 -1</clus>
<clus scale="   91.427">  7  8 -1 -1</clus>
<clus scale="  100.536">  1  5  2 -1</clus>
<clus scale="   20.526">  2  5  1 -1</clus>
</clustering>
</event>
<event>
 9    1  0.3197504E-005  0.1031169E+03  0.7546771E-02  0.1276893E+00
          1   -1    0    0  502    0 -0.00000000000E+00  0.00000000000E+00  0.33957122971E+03  0.33957122971E+03  0.00000000000E+00 0. -1.
         21   -1    0    0  501  502  0.00000000000E+00 -0.00000000000E+00 -0.17916904505E+03  0.17916904505E+03  0.00000000000E+00 0. -1.
        -24    2    1    2    0    0  0.50588646636E+02  0.17979569001E+02  0.30005150718E+03  0.31564546621E+03  0.81967538120E+02 0.  0.
         23    2    1    2    0    0 -0.45726473793E+02  0.22741216048E+02 -0.76643932244E+02  0.12791833441E+03  0.88773501768E+02 0.  0.
         11    1    3    3    0    0  0.55238330089E+02 -0.44614336948E+01  0.27924772246E+03  0.28469363884E+03  0.00000000000E+00 0. -1.
        -12    1    3    3    0    0 -0.46496834527E+01  0.22441002696E+02  0.20803784726E+02  0.30951827364E+02  0.00000000000E+00 0.  1.
        -11    1    4    4    0    0 -0.18287002945E+02 -0.29585160337E+02 -0.54839430516E+02  0.64938889182E+02  0.00000000000E+00 0.  1.
         11    1    4    4    0    0 -0.27439470848E+02  0.52326376385E+02 -0.21804501729E+02  0.62979445231E+02  0.00000000000E+00 0. -1.
          2    1    1    2  501    0 -0.48621728429E+01 -0.40720785050E+02 -0.63005390277E+02  0.75176474138E+02  0.00000000000E+00 0. -1.
<scales pt_clust_5="13000.00000" pt_clust_6="13000.00000" pt_clust_7="13000.00000" pt_clust_8="13000.00000" pt_clust_9="41.01004"></scales>
<clustering>
<clus scale="   41.010">  2  9  1 -1</clus>
<clus scale="   81.968">  5  6 -1 -1</clus>
<clus scale="   88.774">  7  8 -1 -1</clus>
<clus scale="   97.319">  1  5  2 -1</clus>
<clus scale="   41.010">  2  5  1 -1</clus>
</clustering>
</event>
<event>
 9    1  0.3197504E-005  0.3736081E+03  0.7546771E-02  0.1077886E+00
         -2   -1    0    0    0  501 -0.00000000000E+00  0.00000000000E+00  0.11867609044E+04  0.11867609044E+04  0.00000000000E+00 0.  1.
         21   -1    0    0  501  502  0.00000000000E+00 -0.00000000000E+00 -0.37479970493E+03  0.37479970493E+03  0.00000000000E+00 0.  1.
        -24    2    1    2    0    0 -0.16003026485E+03 -0.48534785172E+02 -0.46431375058E+02  0.19485673476E+03  0.88588732081E+02 0.  0.
         23    2    1    2    0    0 -0.71200179545E+02 -0.25415074035E+03  0.93701879283E+03  0.97777183939E+03  0.91495832734E+02 0.  0.
         13    1    3    3    0    0 -0.49852154484E+02  0.25548939592E+02 -0.20009585798E+02  0.59484192394E+02  0.00000000000E+00 0. -1.
        -14    1    3    3    0    0 -0.11017811037E+03 -0.74083724765E+02 -0.26421789261E+02  0.13537254237E+03  0.00000000000E+00 0.  1.
        -11    1    4    4    0    0 -0.71487350780E+01 -0.17882529721E+03  0.65059530813E+03  0.67476206643E+03  0.00000000000E+00 0.  1.
         11    1    4    4    0    0 -0.64051444466E+02 -0.75325443143E+02  0.28642348470E+03  0.30300977296E+03  0.00000000000E+00 0. -1.
         -1    1    1    2    0  502  0.23123044440E+03  0.30268552552E+03 -0.78626218303E+02  0.38893203517E+03  0.00000000000E+00 0.  1.
<scales pt_clust_5="13000.00000" pt_clust_6="13000.00000" pt_clust_7="13000.00000" pt_clust_8="13000.00000" pt_clust_9="362.23133"></scales>
<clustering>
<clus scale="   88.589">  5  6 -1 -1</clus>
<clus scale="   91.496">  7  8 -1 -1</clus>
<clus scale="  189.244">  1  5  2 -1</clus>
<clus scale="  362.231">  2  9  1 -1</clus>
<clus scale="  362.231">  2  5  1 -1</clus>
</clustering>
</event>
<event>
 9    1  0.3197504E-005  0.1068467E+03  0.7546771E-02  0.1270502E+00
          1   -1    0    0  502    0 -0.00000000000E+00  0.00000000000E+00  0.66468697914E+02  0.66468697914E+02  0.00000000000E+00 0. -1.
         21   -1    0    0  501  502  0.00000000000E+00 -0.00000000000E+00 -0.41990255533E+03  0.41990255533E+03  0.00000000000E+00 0.  1.
        -24    2    1    2    0    0 -0.31368012114E+02 -0.37421774740E+02 -0.41865086016E+02  0.10465784836E+03  0.82560513483E+02 0.  0.
         23    2    1    2    0    0  0.58487044802E+02  0.55637755679E+02 -0.32433561003E+03  0.34663839863E+03  0.91914619106E+02 0.  0.
         11    1    3    3    0    0 -0.33714636057E+02 -0.61827850472E+02 -0.37393607640E+02  0.79734820943E+02  0.00000000000E+00 0. -1.
        -12    1    3    3    0    0  0.23466239434E+01  0.24406075731E+02 -0.44714783753E+01  0.24923027412E+02  0.00000000000E+00 0.  1.
        -11    1    4    4    0    0 -0.19989791302E+01  0.42939157925E+02 -0.22915611955E+03  0.23315294192E+03  0.00000000000E+00 0.  1.
         11    1    4    4    0    0  0.60486023932E+02  0.12698597754E+02 -0.95179490485E+02  0.11348545671E+03  0.00000000000E+00 0. -1.
          2    1    1    2  501    0 -0.27119032688E+02 -0.18215980939E+02  0.12766838628E+02  0.35075006259E+02  0.00000000000E+00 0. -1.
<scales pt_clust_5="13000.00000" pt_clust_6="13000.00000" pt_clust_7="13000.00000" pt_clust_8="13000.00000" pt_clust_9="32.66902"></scales>
<clustering>
<clus scale="   32.669">  2  9  1 -1</clus>
<clus scale="   82.561">  5  6 -1 -1</clus>
<clus scale="   91.915">  7  8 -1 -1</clus>
<clus scale="   98.915">  1  5  2 -1</clus>
<clus scale="   32.669">  2  5  1 -1</clus>
</clustering>
</event>
<event>
 9    1  0.3197504E-005  0.1479107E+03  0.7546771E-02  0.1205074E+00
         21   -1    0    0  501  502  0.00000000000E+00  0.00000000000E+00  0.50453677246E+03  0.50453677246E+03  0.00000000000E+00 0. -1.
          3   -1    0    0  502    0 -0.00000000000E+00 -0.00000000000E+00 -0.62548812015E+02  0.62548812015E+02  0.00000000000E+00 0. -1.
         23    2    1    2    0    0  0.10282383268E+03  0.46855028674E+02  0.14750047965E+03  0.20702183728E+03  0.91288089772E+02 0.  0.
        -24    2    1    2    0    0 -0.12460026009E+03 -0.15781994649E+02  0.28374622834E+03  0.32062872800E+03  0.80725231199E+02 0.  0.
         13    1    4    4    0    0 -0.11795255280E+03 -0.11595218240E+02  0.17358680841E+03  0.21018951889E+03  0.00000000000E+00 0. -1.
        -14    1    4    4    0    0 -0.66477072904E+01 -0.41867764087E+01  0.11015941993E+03  0.11043920911E+03  0.00000000000E+00 0.  1.
        -13    1    3    3    0    0  0.58409734056E+02 -0.13080182520E+02  0.27842275271E+02  0.66015002079E+02  0.00000000000E+00 0. -1.
         13    1    3    3    0    0  0.44414098621E+02  0.59935211194E+02  0.11965820438E+03  0.14100683520E+03  0.00000000000E+00 0.  1.
          4    1    1    2  501    0  0.21776427415E+02 -0.31073034025E+02  0.10741252450E+02  0.39435019192E+02  0.00000000000E+00 0. -1.
<scales pt_clust_5="13000.00000" pt_clust_6="13000.00000" pt_clust_7="13000.00000" pt_clust_8="13000.00000" pt_clust_9="37.94401"></scales>
<clustering>
<clus scale="   37.944">  1  9  2 -1</clus>
<clus scale="   80.725">  5  6 -1 -1</clus>
<clus scale="   91.288">  7  8 -1 -1</clus>
<clus scale="  141.636">  1  5  2 -1</clus>
<clus scale="   37.944">  1  5  2 -1</clus>
</clustering>
</event>
<event>
 9    1  0.3197504E-005  0.1396042E+03  0.7546771E-02  0.1238027E+00
         21   -1    0    0  501  502  0.00000000000E+00  0.00000000000E+00  0.12723185669E+03  0.12723185669E+03  0.00000000000E+00 0. -1.
          1   -1    0    0  502    0 -0.00000000000E+00 -0.00000000000E+00 -0.18163819455E+04  0.18163819455E+04  0.00000000000E+00 0. -1.
        -24    2    1    2    0    0  0.23624168017E+02 -0.10340648401E+02 -0.16898457878E+04  0.16919556954E+04  0.80437914809E+02 0.  0.
         23    2    1    2    0    0 -0.74971459561E+02  0.92742611271E+02 -0.19095365643E+02  0.15257070059E+03  0.93227002494E+02 0.  0.
         11    1    3    3    0    0  0.13068280800E+01  0.20098039833E+02 -0.12166543273E+03  0.12332119253E+03  0.00000000000E+00 0. -1.
        -12    1    3    3    0    0  0.22317339937E+02 -0.30438688234E+02 -0.15681803551E+04  0.15686345028E+04  0.00000000000E+00 0.  1.
        -13    1    4    4    0    0 -0.28535568798E+02 -0.14898870871E+02 -0.14349175251E+02  0.35244203357E+02  0.00000000000E+00 0.  1.
         13    1    4    4    0    0 -0.46435890763E+02  0.10764148214E+03 -0.47461903912E+01  0.11732649723E+03  0.00000000000E+00 0. -1.
          2    1    1    2  501    0  0.51347291544E+02 -0.82401962870E+02  0.19791064658E+02  0.99087406234E+02  0.00000000000E+00 0. -1.
<scales pt_clust_5="13000.00000" pt_clust_6="13000.00000" pt_clust_7="13000.00000" pt_clust_8="13000.00000" pt_clust_9="103.91369"></scales>
<clustering>
<clus scale="   80.438">  5  6 -1 -1</clus>
<clus scale="   84.471">  2  5  1 -1</clus>
<clus scale="   93.227">  7  8 -1 -1</clus>
<clus scale="  103.914">  1  9  2 -1</clus>
<clus scale="  103.914">  1  5  2 -1</clus>
</clustering>
</event>
<event>
 9    1  0.3197504E-005  0.9326313E+02  0.7546771E-02  0.1302539E+00
         21   -1    0    0  501  502  0.00000000000E+00  0.00000000000E+00  0.71330574884E+02  0.71330574884E+02  0.00000000000E+00 0.  1.
         -2   -1    0    0    0  501 -0.00000000000E+00 -0.00000000000E+00 -0.28937727285E+03  0.28937727285E+03  0.00000000000E+00 0.  1.
        -24    2    1    2    0    0  0.28752371331E+00  0.21849739883E+02 -0.17668481452E+03  0.19521942506E+03  0.80097480850E+02 0.  0.
         23    2    1    2    0    0 -0.30136963851E+02  0.27874476122E+02 -0.15901463397E+02  0.10215028469E+03  0.92177009687E+02 0.  0.
         11    1    3    3    0    0  0.38187036153E+02  0.21563548504E+01 -0.62102794382E+02  0.72935976489E+02  0.00000000000E+00 0. -1.
        -12    1    3    3    0    0 -0.37899512439E+02  0.19693385033E+02 -0.11458202013E+03  0.12228344857E+03  0.00000000000E+00 0.  1.
        -11    1    4    4    0    0  0.12236613199E+02 -0.28124562397E+02 -0.54879423613E+01  0.31158357209E+02  0.00000000000E+00 0. -1.
         11    1    4    4    0    0 -0.42373577050E+02  0.55999038519E+02 -0.10413521035E+02  0.70991927481E+02  0.00000000000E+00 0.  1.
         -1    1    1    2    0  502  0.29849440137E+02 -0.49724216005E+02 -0.25460420058E+02  0.63338137985E+02  0.00000000000E+00 0.  1.
<scales pt_clust_5="13000.00000" pt_clust_6="13000.00000" pt_clust_7="13000.00000" pt_clust_8="13000.00000" pt_clust_9="57.99558"></scales>
<clustering>
<clus scale="   57.996">  1  9  2 -1</clus>
<clus scale="   80.097">  5  6 -1 -1</clus>
<clus scale="   81.345">  2  5  1 -1</clus>
<clus scale="   92.177">  7  8 -1 -1</clus>
<clus scale="   57.996">  1  5  2 -1</clus>
</clustering>
</event>
<event>
 9    1  0.3197504E-005  0.1140676E+03  0.7546771E-02  0.1263615E+00
          3   -1    0    0  502    0 -0.00000000000E+00  0.00000000000E+00  0.56394185976E+03  0.56394185976E+03  0.00000000000E+00 0. -1.
         21   -1    0    0  501  502  0.00000000000E+00 -0.00000000000E+00 -0.12125900302E+03  0.12125900302E+03  0.00000000000E+00 0.  1.
        -24    2    1    2    0    0 -0.63726124214E+02  0.55989005714E+01  0.49658385897E+03  0.50519550475E+03  0.67339456722E+02 0.  0.
         23    2    1    2    0    0  0.68478759497E+02  0.41416011751E+02 -0.31416326242E+02  0.12767419927E+03  0.94387971022E+02 0.  0.
         13    1    3    3    0    0 -0.53163961089E+02 -0.26108585905E+02  0.29996602342E+03  0.30575755137E+03  0.00000000000E+00 0. -1.
        -14    1    3    3    0    0 -0.10562163125E+02  0.31707486477E+02  0.19661783555E+03  0.19943795337E+03  0.00000000000E+00 0.  1.
        -13    1    4    4    0    0  0.41179749213E+02  0.27912087908E+02 -0.65315146303E+02  0.82103134734E+02  0.00000000000E+00 0.  1.
         13    1    4    4    0    0  0.27299010285E+02  0.13503923844E+02  0.33898820061E+02  0.45571064539E+02  0.00000000000E+00 0. -1.
          4    1    1    2  501    0 -0.47526352830E+01 -0.47014912323E+02 -0.22484675989E+02  0.52331158760E+02  0.00000000000E+00 0. -1.
<scales pt_clust_5="13000.00000" pt_clust_6="13000.00000" pt_clust_7="13000.00000" pt_clust_8="13000.00000" pt_clust_9="47.25452"></scales>
<clustering>
<clus scale="   47.255">  2  9  1 -1</clus>
<clus scale="   67.339">  5  6 -1 -1</clus>
<clus scale="   92.935">  1  5  2 -1</clus>
<clus scale="   94.388">  7  8 -1 -1</clus>
<clus scale="   47.255">  2  5  1 -1</clus>
</clustering>
</event>
<event>
 9    1  0.3197504E-005  0.1633165E+03  0.7546771E-02  0.1186912E+00
          1   -1    0    0  502    0 -0.00000000000E+00  0.00000000000E+00  0.65611202848E+03  0.65611202848E+03  0.00000000000E+00 0. -1.
         21   -1    0    0  501  502  0.00000000000E+00 -0.00000000000E+00 -0.66447377707E+02  0.66447377707E+02  0.00000000000E+00 0. -1.
        -24    2    1    2    0    0 -0.14136390841E+03 -0.66526918781E+00  0.39970266164E+03  0.43129924573E+03  0.79199901895E+02 0.  0.
         23    2    1    2    0    0  0.11520744073E+03 -0.14286308778E+02  0.63230833591E+02  0.16099697966E+03  0.91896877671E+02 0.  0.
         11    1    3    3    0    0 -0.71197291906E+02  0.18769749838E+02  0.10844311867E+03  0.13107733546E+03  0.00000000000E+00 0. -1.
        -12    1    3    3    0    0 -0.70166616508E+02 -0.19435019026E+02  0.29125954297E+03  0.30022191028E+03  0.00000000000E+00 0.  1.
        -13    1    4    4    0    0  0.12311171967E+02 -0.31224660085E+02  0.43371211584E+02  0.54841647923E+02  0.00000000000E+00 0.  1.
         13    1    4    4    0    0  0.10289626877E+03  0.16938351307E+02  0.19859622007E+02  0.10615533174E+03  0.00000000000E+00 0. -1.
          2    1    1    2  501    0  0.26156467681E+02  0.14951577966E+02  0.12673115554E+03  0.13026318079E+03  0.00000000000E+00 0. -1.
<scales pt_clust_5="13000.00000" pt_clust_6="13000.00000" pt_clust_7="13000.00000" pt_clust_8="13000.00000" pt_clust_9="30.12825"></scales>
<clustering>
<clus scale="   30.128">  2  9  1 -1</clus>
<clus scale="   79.200">  5  6 -1 -1</clus>
<clus scale="   91.897">  7  8 -1 -1</clus>
<clus scale="  156.524">  1  5  2 -1</clus>
<clus scale="   30.128">  2  5  1 -1</clus>
</clustering>
</event>
<event>
 9    1  0.3197504E-005  0.1096511E+03  0.7546771E-02  0.1261336E+00
          1   -1    0    0  502    0 -0.00000000000E+00  0.00000000000E+00  0.35743676328E+02  0.35743676328E+02  0.00000000000E+00 0. -1.
         21   -1    0    0  501  502  0.00000000000E+00 -0.00000000000E+00 -0.91008152508E+03  0.91008152508E+03  0.00000000000E+00 0. -1.
        -24    2    1    2    0    0  0.23937961099E+02 -0.54246002375E+02 -0.19444181951E+03  0.22323375094E+03  0.92249832686E+02 0.  0.
         23    2    1    2    0    0  0.77084297487E+02  0.58827928237E+02 -0.28496075262E+03  0.31491466244E+03  0.92552147602E+02 0.  0.
         13    1    3    3    0    0  0.45329358856E+02 -0.91882798283E+01 -0.40718825312E+02  0.61621408579E+02  0.00000000000E+00 0. -1.
        -14    1    3    3    0    0 -0.21391397758E+02 -0.45057722547E+02 -0.15372299420E+03  0.16161234236E+03  0.00000000000E+00 0.  1.
        -13    1    4    4    0    0  0.28074026568E+02  0.18077162845E+02 -0.13408408646E+02  0.35982220703E+02  0.00000000000E+00 0.  1.
         13    1    4    4    0    0  0.49010270919E+02  0.40750765392E+02 -0.27155234397E+03  0.27893244174E+03  0.00000000000E+00 0. -1.
          2    1    1    2  501    0 -0.10102225859E+03 -0.45819258621E+01 -0.39493527663E+03  0.40767678803E+03  0.00000000000E+00 0. -1.
<scales pt_clust_5="13000.00000" pt_clust_6="13000.00000" pt_clust_7="13000.00000" pt_clust_8="13000.00000" pt_clust_9="101.12611"></scales>
<clustering>
<clus scale="   92.250">  5  6 -1 -1</clus>
<clus scale="   92.552">  7  8 -1 -1</clus>
<clus scale="  101.126">  2  9  1 -1</clus>
<clus scale="  109.396">  1  5  2 -1</clus>
<clus scale="  101.126">  2  5  1 -1</clus>
</clustering>
</event>
<event>
 9    1  0.3197504E-005  0.2496721E+03  0.7546771E-02  0.1140845E+00
         21   -1    0    0  501  502  0.00000000000E+00  0.00000000000E+00  0.21748416657E+03  0.21748416657E+03  0.00000000000E+00 0. -1.
          3   -1    0    0  502    0 -0.00000000000E+00 -0.00000000000E+00 -0.11801777842E+04  0.11801777842E+04  0.00000000000E+00 0. -1.
        -24    2    1    2    0    0 -0.72295111328E+02 -0.65118360552E+02 -0.59905089286E+03  0.61239530792E+03  0.81847766765E+02 0.  0.
         23    2    1    2    0    0 -0.16617511081E+03  0.78077342020E+02 -0.47747486631E+03  0.52070334521E+03  0.97157022245E+02 0.  0.
         13    1    3    3    0    0 -0.73433621715E+02 -0.81481639158E+02 -0.54419358481E+03  0.55513819187E+03  0.00000000000E+00 0. -1.
        -14    1    3    3    0    0  0.11385103872E+01  0.16363278606E+02 -0.54857308050E+02  0.57257116056E+02  0.00000000000E+00 0.  1.
        -11    1    4    4    0    0 -0.15374936137E+03  0.29171350840E+02 -0.37944261348E+03  0.41044674534E+03  0.00000000000E+00 0. -1.
         11    1    4    4    0    0 -0.12425749443E+02  0.48905991180E+02 -0.98032252824E+02  0.11025659988E+03  0.00000000000E+00 0.  1.
          4    1    1    2  501    0  0.23847022214E+03 -0.12958981468E+02  0.11383214149E+03  0.26456329769E+03  0.00000000000E+00 0. -1.
<scales pt_clust_5="13000.00000" pt_clust_6="13000.00000" pt_clust_7="13000.00000" pt_clust_8="13000.00000" pt_clust_9="229.99280"></scales>
<clustering>
<clus scale="   81.848">  5  6 -1 -1</clus>
<clus scale="   97.157">  7  8 -1 -1</clus>
<clus scale="  127.146">  2  5  1 -1</clus>
<clus scale="  229.993">  1  9  2 -1</clus>
<clus scale="  229.993">  1  5  2 -1</clus>
</clustering>
</event>
<event>
 9    1  0.3197504E-005  0.2554606E+03  0.7546771E-02  0.1111047E+00
         21   -1    0    0  501  502  0.00000000000E+00  0.00000000000E+00  0.76835010556E+02  0.76835010556E+02  0.00000000000E+00 0. -1.
          1   -1    0    0  502    0 -0.00000000000E+00 -0.00000000000E+00 -0.11898466800E+04  0.11898466800E+04  0.00000000000E+00 0. -1.
         23    2    1    2    0    0 -0.80043705222E+00  0.26078951734E+03 -0.53850856116E+03  0.60669491888E+03  0.10037649678E+03 0.  0.
        -24    2    1    2    0    0  0.62407414338E+02 -0.20353412173E+03 -0.32464028936E+03  0.39634870868E+03  0.79875887007E+02 0.  0.
         11    1    4    4    0    0  0.12703094354E+02 -0.14413780139E+03 -0.24959982060E+03  0.28850848313E+03  0.00000000000E+00 0. -1.
        -12    1    4    4    0    0  0.49704319984E+02 -0.59396320341E+02 -0.75040468763E+02  0.10784022555E+03  0.00000000000E+00 0.  1.
        -13    1    3    3    0    0  0.29281318744E+02  0.23263395547E+03 -0.41710147308E+03  0.47848677277E+03  0.00000000000E+00 0. -1.
         13    1    3    3    0    0 -0.30081755796E+02  0.28155561869E+02 -0.12140708807E+03  0.12820814612E+03  0.00000000000E+00 0.  1.
          2    1    1    2  501    0 -0.61606977286E+02 -0.57255395604E+02 -0.24986281897E+03  0.26363806303E+03  0.00000000000E+00 0. -1.
<scales pt_clust_5="13000.00000" pt_clust_6="13000.00000" pt_clust_7="13000.00000" pt_clust_8="13000.00000" pt_clust_9="84.10474"></scales>
<clustering>
<clus scale="   79.876">  5  6 -1 -1</clus>
<clus scale="   84.105">  1  9  2 -1</clus>
<clus scale="  100.376">  7  8 -1 -1</clus>
<clus scale="  248.123">  1  5  2 -1</clus>
<clus scale="   84.105">  1  5  2 -1</clus>
</clustering>
</event>
<event>
 9    1  0.3197504E-005  0.1132456E+03  0.7546771E-02  0.1257741E+00
         -4   -1    0    0    0  501 -0.00000000000E+00  0.00000000000E+00  0.54449835385E+02  0.54449835385E+02  0.00000000000E+00 0.  1.
         21   -1    0    0  501  502  0.00000000000E+00 -0.00000000000E+00 -0.53750476458E+03  0.53750476458E+03  0.00000000000E+00 0.  1.
         23    2    1    2    0    0  0.63214218537E+02 -0.12521753294E+02 -0.24655836478E+03  0.27047626504E+03  0.90628643256E+02 0.  0.
        -24    2    1    2    0    0 -0.72776476537E+02 -0.16878716258E+02 -0.25994952001E+03  0.28267285189E+03  0.82151577235E+02 0.  0.
         11    1    4    4    0    0 -0.39675636264E+02 -0.47130004415E+02 -0.10902045118E+03  0.12522320953E+03  0.00000000000E+00 0. -1.
        -12    1    4    4    0    0 -0.33100840274E+02  0.30251288156E+02 -0.15092906882E+03  0.15744964235E+03  0.00000000000E+00 0.  1.
        -13    1    3    3    0    0  0.24590463063E+02  0.77733550446E+01 -0.66510347355E+01  0.26633666390E+02  0.00000000000E+00 0. -1.
         13    1    3    3    0    0  0.38623755474E+02 -0.20295108338E+02 -0.23990733004E+03  0.24384259865E+03  0.00000000000E+00 0.  1.
         -3    1    1    2    0  502  0.95622579999E+01  0.29400469552E+02  0.23452955589E+02  0.38805483038E+02  0.00000000000E+00 0.  1.
<scales pt_clust_5="13000.00000" pt_clust_6="13000.00000" pt_clust_7="13000.00000" pt_clust_8="13000.00000" pt_clust_9="30.91643"></scales>
<clustering>
<clus scale="   30.916">  2  9  1 -1</clus>
<clus scale="   82.152">  5  6 -1 -1</clus>
<clus scale="   90.629">  7  8 -1 -1</clus>
<clus scale="  106.583">  2  5  1 -1</clus>
<clus scale="   30.916">  2  5  1 -1</clus>
</clustering>
</event>
<event>
 9    1  0.3197504E-005  0.9193593E+02  0.7546771E-02  0.1303367E+00
         21   -1    0    0  501  502  0.00000000000E+00  0.00000000000E+00  0.26196909762E+02  0.26196909762E+02  0.00000000000E+00 0.  1.
          1   -1    0    0  502    0 -0.00000000000E+00 -0.00000000000E+00 -0.77732689054E+03  0.77732689054E+03  0.00000000000E+00 0. -1.
        -24    2    1    2    0    0  0.29425624304E+02 -0.39614968772E+00 -0.27263738767E+03  0.28585032348E+03  0.80704634177E+02 0.  0.
         23    2    1    2    0    0  0.80722907918E+01 -0.40292683004E+02 -0.12081021487E+03  0.15573652314E+03  0.89275385404E+02 0.  0.
         11    1    3    3    0    0  0.14411789226E+02  0.39916998061E+02 -0.14994057755E+03  0.15583081595E+03  0.00000000000E+00 0. -1.
        -12    1    3    3    0    0  0.15013835078E+02 -0.40313147749E+02 -0.12269681012E+03  0.13001950753E+03  0.00000000000E+00 0.  1.
        -13    1    4    4    0    0  0.13352876897E+02 -0.66143305298E+02 -0.10549415910E+03  0.12522880564E+03  0.00000000000E+00 0.  1.
         13    1    4    4    0    0 -0.52805861054E+01  0.25850622294E+02 -0.15316055773E+02  0.30507717500E+02  0.00000000000E+00 0. -1.
          2    1    1    2  501    0 -0.37497915096E+02  0.40688832692E+02 -0.35768237824E+03  0.36193695369E+03  0.00000000000E+00 0. -1.
<scales pt_clust_5="13000.00000" pt_clust_6="13000.00000" pt_clust_7="13000.00000" pt_clust_8="13000.00000" pt_clust_9="55.33243"></scales>
<clustering>
<clus scale="   55.332">  1  9  2 -1</clus>
<clus scale="   80.705">  5  6 -1 -1</clus>
<clus scale="   83.638">  2  5  1 -1</clus>
<clus scale="   89.275">  7  8 -1 -1</clus>
<clus scale="   55.332">  1  5  2 -1</clus>
</clustering>
</event>
<event>
 9    1  0.3197504E-005  0.1043490E+03  0.7546771E-02  0.1274954E+00
          3   -1    0    0  502    0 -0.00000000000E+00  0.00000000000E+00  0.79143395762E+03  0.79143395762E+03  0.00000000000E+00 0. -1.
         21   -1    0    0  501  502  0.00000000000E+00 -0.00000000000E+00 -0.29203500853E+02  0.29203500853E+02  0.00000000000E+00 0. -1.
         23    2    1    2    0    0 -0.57776683193E+02 -0.30662400912E+02  0.40109575722E+03  0.41583554314E+03  0.88108254599E+02 0.  0.
        -24    2    1    2    0    0 -0.29162054589E+01  0.66539606477E+02  0.27173257642E+03  0.29094437175E+03  0.79837402753E+02 0.  0.
         13    1    4    4    0    0  0.23069771360E+01  0.83830861705E+02  0.24239290904E+03  0.25649026857E+03  0.00000000000E+00 0. -1.
        -14    1    4    4    0    0 -0.52231825949E+01 -0.17291255228E+02  0.29339667383E+02  0.34454103180E+02  0.00000000000E+00 0.  1.
        -11    1    3    3    0    0 -0.79626693464E+02 -0.24369888578E+02  0.35221489120E+03  0.36192489741E+03  0.00000000000E+00 0. -1.
         11    1    3    3    0    0  0.21850010271E+02 -0.62925123340E+01  0.48880866018E+02  0.53910645729E+02  0.00000000000E+00 0.  1.
          4    1    1    2  501    0  0.60692888652E+02 -0.35877205566E+02  0.89402123123E+02  0.11385754358E+03  0.00000000000E+00 0. -1.
<scales pt_clust_5="13000.00000" pt_clust_6="13000.00000" pt_clust_7="13000.00000" pt_clust_8="13000.00000" pt_clust_9="70.50390"></scales>
<clustering>
<clus scale="   70.504">  2  9  1 -1</clus>
<clus scale="   79.837">  5  6 -1 -1</clus>
<clus scale="   88.108">  7  8 -1 -1</clus>
<clus scale="   97.466">  2  5  1 -1</clus>
<clus scale="   70.504">  2  5  1 -1</clus>
</clustering>
</event>
<event>
 9    1  0.3197504E-005  0.9172312E+02  0.7546771E-02  0.1306589E+00
         21   -1    0    0  501  502  0.00000000000E+00  0.00000000000E+00  0.48276155257E+02  0.48276155257E+02  0.00000000000E+00 0.  1.
         -2   -1    0    0    0  501 -0.00000000000E+00 -0.00000000000E+00 -0.26858771137E+03  0.26858771137E+03  0.00000000000E+00 0.  1.
         23    2    1    2    0    0  0.64320839197E+01 -0.21791608269E+02 -0.13031552653E+03  0.16092898625E+03  0.91650184212E+02 0.  0.
        -24    2    1    2    0    0  0.66024537829E+01 -0.16397855297E+02 -0.80697313317E+02  0.11452473156E+03  0.79318192799E+02 0.  0.
         11    1    4    4    0    0  0.83976896269E+01  0.24156484719E+02 -0.66946181279E+02  0.71664831912E+02  0.00000000000E+00 0. -1.
        -12    1    4    4    0    0 -0.17952358440E+01 -0.40554340016E+02 -0.13751132037E+02  0.42859899652E+02  0.00000000000E+00 0.  1.
        -13    1    3    3    0    0 -0.41891514433E+02 -0.12974325817E+01 -0.56089155742E+02  0.70018395473E+02  0.00000000000E+00 0.  1.
         13    1    3    3    0    0  0.48323598353E+02 -0.20494175687E+02 -0.74226370789E+02  0.90910590777E+02  0.00000000000E+00 0. -1.
         -1    1    1    2    0  502 -0.13034537703E+02  0.38189463566E+02 -0.92987162671E+01  0.41410148814E+02  0.00000000000E+00 0.  1.
<scales pt_clust_5="13000.00000" pt_clust_6="13000.00000" pt_clust_7="13000.00000" pt_clust_8="13000.00000" pt_clust_9="40.35262"></scales>
<clustering>
<clus scale="   40.353">  1  9  2 -1</clus>
<clus scale="   79.318">  5  6 -1 -1</clus>
<clus scale="   79.402">  1  5  2 -1</clus>
<clus scale="   91.650">  7  8 -1 -1</clus>
<clus scale="   40.353">  1  5  2 -1</clus>
</clustering>
</event>
<event>
 9    1  0.3197504E-005  0.1427887E+03  0.7546771E-02  0.1226923E+00
         21   -1    0    0  501  502  0.00000000000E+00  0.00000000000E+00  0.11558508510E+04  0.11558508510E+04  0.00000000000E+00 0.  1.
         -4   -1    0    0    0  501 -0.00000000000E+00 -0.00000000000E+00 -0.53888938057E+02  0.53888938057E+02  0.00000000000E+00 0.  1.
        -24    2    1    2    0    0  0.37781244180E+02  0.42333813520E+02  0.67328448320E+03  0.68055255065E+03  0.81364640396E+02 0.  0.
         23    2    1    2    0    0 -0.75698387145E+02  0.64590803188E+02  0.69284693064E+02  0.15231362223E+03  0.92178376810E+02 0.  0.
         11    1    3    3    0    0  0.22188522512E+02 -0.16410850909E+01  0.41850600693E+02  0.47397220066E+02  0.00000000000E+00 0. -1.
        -12    1    3    3    0    0  0.15592721668E+02  0.43974898610E+02  0.63143388250E+03  0.63315533059E+03  0.00000000000E+00 0.  1.
        -11    1    4    4    0    0 -0.46007674841E+02 -0.16717972628E+02  0.21818250317E+02  0.53593215988E+02  0.00000000000E+00 0. -1.
         11    1    4    4    0    0 -0.29690712305E+02  0.81308775816E+02  0.47466442747E+02  0.98720406243E+02  0.00000000000E+00 0.  1.
         -3    1    1    2    0  502  0.37917142965E+02 -0.10692461671E+03  0.35939273672E+03  0.37687361621E+03  0.00000000000E+00 0.  1.
<scales pt_clust_5="13000.00000" pt_clust_6="13000.00000" pt_clust_7="13000.00000" pt_clust_8="13000.00000" pt_clust_9="109.04931"></scales>
<clustering>
<clus scale="   81.365">  5  6 -1 -1</clus>
<clus scale="   92.178">  7  8 -1 -1</clus>
<clus scale="   99.196">  2  5  1 -1</clus>
<clus scale="  109.049">  1  9  2 -1</clus>
<clus scale="  109.049">  1  5  2 -1</clus>
</clustering>
</event>
<event>
 9    1  0.3197504E-005  0.1033528E+03  0.7546771E-02  0.1278288E+00
         21   -1    0    0  501  502  0.00000000000E+00  0.00000000000E+00  0.16432137409E+03  0.16432137409E+03  0.00000000000E+00 0.  1.
          1   -1    0    0  502    0 -0.00000000000E+00 -0.00000000000E+00 -0.23298274805E+03  0.23298274805E+03  0.00000000000E+00 0. -1.
         23    2    1    2    0    0  0.41534659789E+02 -0.10169100353E+02 -0.16301758552E+03  0.19176207416E+03  0.91484541508E+02 0.  0.
        -24    2    1    2    0    0 -0.59290833028E+02  0.42604521589E+02  0.52871601701E+01  0.10910225249E+03  0.80899933837E+02 0.  0.
         11    1    4    4    0    0 -0.38238504036E+02  0.65111593031E+02 -0.71959694674E+01  0.75851728488E+02  0.00000000000E+00 0. -1.
        -12    1    4    4    0    0 -0.21052328993E+02 -0.22507071442E+02  0.12483129638E+02  0.33250524003E+02  0.00000000000E+00 0.  1.
        -11    1    3    3    0    0 -0.18815279544E+02 -0.31032887336E+02 -0.47580193573E+02  0.59840869489E+02  0.00000000000E+00 0.  1.
         11    1    3    3    0    0  0.60349939333E+02  0.20863786983E+02 -0.11543739194E+03  0.13192120468E+03  0.00000000000E+00 0. -1.
          2    1    1    2  501    0  0.17756173239E+02 -0.32435421236E+02  0.89069051385E+02  0.96439795486E+02  0.00000000000E+00 0. -1.
<scales pt_clust_5="13000.00000" pt_clust_6="13000.00000" pt_clust_7="13000.00000" pt_clust_8="13000.00000" pt_clust_9="36.97754"></scales>
<clustering>
<clus scale="   36.978">  1  9  2 -1</clus>
<clus scale="   80.900">  5  6 -1 -1</clus>
<clus scale="   91.485">  7  8 -1 -1</clus>
<clus scale="   94.113">  1  5  2 -1</clus>
<clus scale="   36.978">  1  5  2 -1</clus>
</clustering>
</event>
<event>
 9    1  0.3197504E-005  0.9678140E+02  0.7546771E-02  0.1293098E+00
         -2   -1    0    0    0  501 -0.00000000000E+00  0.00000000000E+00  0.68248357454E+03  0.68248357454E+03  0.00000000000E+00 0.  1.
         21   -1    0    0  501  502  0.00000000000E+00 -0.00000000000E+00 -0.52512851826E+02  0.52512851826E+02  0.00000000000E+00 0.  1.
        -24    2    1    2    0    0  0.39157634698E+02 -0.83148540949E+01  0.37381544802E+03  0.38483558371E+03  0.82206934935E+02 0.  0.
         23    2    1    2    0    0  0.55089386374E+01  0.30816917376E+02  0.27862222255E+03  0.29533193266E+03  0.92793193444E+02 0.  0.
         11    1    3    3    0    0  0.54982308916E+01  0.31757095860E+02  0.77502042760E+02  0.83936346790E+02  0.00000000000E+00 0. -1.
        -12    1    3    3    0    0  0.33659403807E+02 -0.40071949955E+02  0.29631340526E+03  0.30089923692E+03  0.00000000000E+00 0.  1.
        -13    1    4    4    0    0  0.26699598187E+02  0.51335668644E+02  0.23918092970E+03  0.24608075209E+03  0.00000000000E+00 0.  1.
         13    1    4    4    0    0 -0.21190659550E+02 -0.20518751268E+02  0.39441292853E+02  0.49251180571E+02  0.00000000000E+00 0. -1.
         -1    1    1    2    0  502 -0.44666573336E+02 -0.22502063281E+02 -0.22466947860E+02  0.54828909998E+02  0.00000000000E+00 0.  1.
<scales pt_clust_5="13000.00000" pt_clust_6="13000.00000" pt_clust_7="13000.00000" pt_clust_8="13000.00000" pt_clust_9="50.01445"></scales>
<clustering>
<clus scale="   50.014">  2  9  1 -1</clus>
<clus scale="   82.207">  5  6 -1 -1</clus>
<clus scale="   86.684">  1  5  2 -1</clus>
<clus scale="   92.793">  7  8 -1 -1</clus>
<clus scale="   50.014">  2  5  1 -1</clus>
</clustering>
</event>
<event>
 9    1  0.3197504E-005  0.1042495E+03  0.7546771E-02  0.1275711E+00
          1   -1    0    0  502    0 -0.00000000000E+00  0.00000000000E+00  0.34698104854E+03  0.34698104854E+03  0.00000000000E+00 0. -1.
         21   -1    0    0  501  502  0.00000000000E+00 -0.00000000000E+00 -0.69614182673E+02  0.69614182673E+02  0.00000000000E+00 0.  1.
        -24    2    1    2    0    0  0.34283478912E+02 -0.33867656723E+02  0.20282706511E+03  0.22390934041E+03  0.81695772739E+02 0.  0.
         23    2    1    2    0    0 -0.74186501408E+02  0.13028094683E+02  0.16436942382E+02  0.11918432142E+03  0.90892030208E+02 0.  0.
         13    1    3    3    0    0  0.38500905621E+02 -0.21731522859E+02  0.20598732739E+03  0.21067832795E+03  0.00000000000E+00 0. -1.
        -14    1    3    3    0    0 -0.42174267085E+01 -0.12136133864E+02 -0.31602622807E+01  0.13231012467E+02  0.00000000000E+00 0.  1.
        -11    1    4    4    0    0 -0.45536551297E+02 -0.24824594682E+02 -0.23696309282E+02  0.57020637306E+02  0.00000000000E+00 0.  1.
         11    1    4    4    0    0 -0.28649950111E+02  0.37852689366E+02  0.40133251664E+02  0.62163684114E+02  0.00000000000E+00 0. -1.
          2    1    1    2  501    0  0.39903022496E+02  0.20839562040E+02  0.58102858370E+02  0.73501569379E+02  0.00000000000E+00 0. -1.
<scales pt_clust_5="13000.00000" pt_clust_6="13000.00000" pt_clust_7="13000.00000" pt_clust_8="13000.00000" pt_clust_9="45.01711"></scales>
<clustering>
<clus scale="   45.017">  2  9  1 -1</clus>
<clus scale="   81.696">  5  6 -1 -1</clus>
<clus scale="   90.892">  7  8 -1 -1</clus>
<clus scale="   96.337">  1  5  2 -1</clus>
<clus scale="   45.017">  2  5  1 -1</clus>
</clustering>
</event>
<event>
 9    1  0.3197504E-005  0.1191446E+03  0.7546771E-02  0.1248807E+00
          1   -1    0    0  502    0 -0.00000000000E+00  0.00000000000E+00  0.21708850054E+03  0.21708850054E+03  0.00000000000E+00 0. -1.
         21   -1    0    0  501  502  0.00000000000E+00 -0.00000000000E+00 -0.11629211689E+03  0.11629211689E+03  0.00000000000E+00 0. -1.
         23    2    1    2    0    0 -0.39921773455E+02  0.59711677644E+02  0.13304689764E+03  0.17766562489E+03  0.93297185659E+02 0.  0.
        -24    2    1    2    0    0  0.71890275107E+02 -0.47504998318E+02 -0.20866935735E+02  0.11965152111E+03  0.80349990519E+02 0.  0.
         11    1    4    4    0    0  0.87910969879E+02 -0.28842283588E+02 -0.21735576460E+02  0.95040261109E+02  0.00000000000E+00 0. -1.
        -12    1    4    4    0    0 -0.16020694772E+02 -0.18662714730E+02  0.86864072480E+00  0.24611260000E+02  0.00000000000E+00 0.  1.
        -11    1    3    3    0    0 -0.55029338735E+02  0.24526241136E+02  0.29133947380E+02  0.66921980812E+02  0.00000000000E+00 0.  1.
         11    1    3    3    0    0  0.15107565281E+02  0.35185436508E+02  0.10391295026E+03  0.11074364408E+03  0.00000000000E+00 0. -1.
          2    1    1    2  501    0 -0.31968501653E+02 -0.12206679325E+02 -0.11383578258E+02  0.36063471436E+02  0.00000000000E+00 0. -1.
<scales pt_clust_5="13000.00000" pt_clust_6="13000.00000" pt_clust_7="13000.00000" pt_clust_8="13000.00000" pt_clust_9="34.21970"></scales>
<clustering>
<clus scale="   34.220">  2  9  1 -1</clus>
<clus scale="   80.350">  5  6 -1 -1</clus>
<clus scale="   93.297">  7  8 -1 -1</clus>
<clus scale="  109.303">  2  5  1 -1</clus>
<clus scale="   34.220">  2  5  1 -1</clus>
</clustering>
</event>
<event>
 9    1  0.3197504E-005  0.9294715E+02  0.7546771E-02  0.1299803E+00
         -4   -1    0    0    0  501 -0.00000000000E+00  0.00000000000E+00  0.22743867921E+02  0.22743867921E+02  0.00000000000E+00 0.  1.
         21   -1    0    0  501  502  0.00000000000E+00 -0.00000000000E+00 -0.62444544286E+03  0.62444544286E+03  0.00000000000E+00 0.  1.
        -24    2    1    2    0    0 -0.35713785747E+01  0.37980934061E+02 -0.11849936216E+03  0.14877036377E+03  0.81456836467E+02 0.  0.
         23    2    1    2    0    0 -0.39535184894E+01 -0.56459994070E+01 -0.33285847490E+03  0.34445332879E+03  0.88350573186E+02 0.  0.
         11    1    3    3    0    0  0.30971708562E+02 -0.27012105436E+01 -0.70259044287E+02  0.76830180098E+02  0.00000000000E+00 0. -1.
        -12    1    3    3    0    0 -0.34543087137E+02  0.40682144604E+02 -0.48240317873E+02  0.71940183674E+02  0.00000000000E+00 0.  1.
        -11    1    4    4    0    0 -0.19914042983E+02 -0.40669275151E+02 -0.12247674088E+03  0.13057990314E+03  0.00000000000E+00 0. -1.
         11    1    4    4    0    0  0.15960524494E+02  0.35023275744E+02 -0.21038173403E+03  0.21387342565E+03  0.00000000000E+00 0.  1.
         -3    1    1    2    0  502  0.75248970641E+01 -0.32334934654E+02 -0.15034373787E+03  0.15396561821E+03  0.00000000000E+00 0.  1.
<scales pt_clust_5="13000.00000" pt_clust_6="13000.00000" pt_clust_7="13000.00000" pt_clust_8="13000.00000" pt_clust_9="33.19898"></scales>
<clustering>
<clus scale="   33.199">  2  9  1 -1</clus>
<clus scale="   81.457">  5  6 -1 -1</clus>
<clus scale="   86.421">  1  5  2 -1</clus>
<clus scale="   88.351">  7  8 -1 -1</clus>
<clus scale="   33.199">  2  5  1 -1</clus>
</clustering>
</event>
<event>
 9    1  0.3197504E-005  0.1031174E+03  0.7546771E-02  0.1274799E+00
         -4   -1    0    0    0  501 -0.00000000000E+00  0.00000000000E+00  0.22403066664E+03  0.22403066664E+03  0.00000000000E+00 0.  1.
         21   -1    0    0  501  502  0.00000000000E+00 -0.00000000000E+00 -0.10347791198E+03  0.10347791198E+03  0.00000000000E+00 0.  1.
        -24    2    1    2    0    0  0.60909468429E+01  0.49040883776E+02  0.14308257835E+03  0.17567146777E+03  0.89138838018E+02 0.  0.
         23    2    1    2    0    0 -0.43774593458E+02 -0.34405436317E+02 -0.29423320793E+02  0.11082767479E+03  0.91198095443E+02 0.  0.
         13    1    3    3    0    0  0.22496119539E+02 -0.13649708454E+02  0.10943628250E+02  0.28498297044E+02  0.00000000000E+00 0. -1.
        -14    1    3    3    0    0 -0.16405172696E+02  0.62690592229E+02  0.13213895010E+03  0.14717317072E+03  0.00000000000E+00 0.  1.
        -11    1    4    4    0    0 -0.64522362641E+02 -0.42041086147E+02 -0.39478979415E+02  0.86540037098E+02  0.00000000000E+00 0.  1.
         11    1    4    4    0    0  0.20747769183E+02  0.76356498298E+01  0.10055658622E+02  0.24287637693E+02  0.00000000000E+00 0. -1.
         -3    1    1    2    0  502  0.37683646615E+02 -0.14635447459E+02  0.68934971005E+01  0.41009436071E+02  0.00000000000E+00 0.  1.
<scales pt_clust_5="13000.00000" pt_clust_6="13000.00000" pt_clust_7="13000.00000" pt_clust_8="13000.00000" pt_clust_9="40.42590"></scales>
<clustering>
<clus scale="   40.426">  2  9  1 -1</clus>
<clus scale="   89.139">  5  6 -1 -1</clus>
<clus scale="   91.198">  7  8 -1 -1</clus>
<clus scale="  101.301">  1  5  2 -1</clus>
<clus scale="   40.426">  2  5  1 -1</clus>
</clustering>
</event>
<event>
 9    1  0.4843975E-005  0.1708713E+03  0.7546771E-02  0.1197400E+00
         21   -1    0    0  501  502  0.00000000000E+00  0.00000000000E+00  0.36456960525E+03  0.36456960525E+03  0.00000000000E+00 0. -1.
          1   -1    0    0  502    0 -0.00000000000E+00 -0.00000000000E+00 -0.27235427828E+03  0.27235427828E+03  0.00000000000E+00 0. -1.
        -24    2    1    2    0    0  0.71839908658E+02 -0.96017132086E+01 -0.15842755342E+03  0.19201467974E+03  0.80729066525E+02 0.  0.
         23    2    1    2    0    0  0.83996450466E+02  0.40051248014E+02 -0.18277655850E+02  0.13261062902E+03  0.92693042169E+02 0.  0.
         13    1    3    3    0    0  0.53701771508E+02 -0.37064140941E+01 -0.16362088442E+03  0.17224811055E+03  0.00000000000E+00 0. -1.
        -14    1    3    3    0    0  0.18138137150E+02 -0.58952991145E+01  0.51933310006E+01  0.19766569196E+02  0.00000000000E+00 0.  1.
        -11    1    4    4    0    0 -0.11176117217E+02  0.34207308040E+02 -0.55937233213E+01  0.36418886034E+02  0.00000000000E+00 0.  1.
         11    1    4    4    0    0  0.95172567682E+02  0.58439399747E+01 -0.12683932529E+02  0.96191742983E+02  0.00000000000E+00 0. -1.
          2    1    1    2  501    0 -0.15583635912E+03 -0.30449534806E+02  0.26892053624E+03  0.31229857477E+03  0.00000000000E+00 0. -1.
<scales pt_clust_5="13000.00000" pt_clust_6="13000.00000" pt_clust_7="13000.00000" pt_clust_8="13000.00000" pt_clust_9="143.54445"></scales>
<clustering>
<clus scale="   80.729">  5  6 -1 -1</clus>
<clus scale="   92.693">  7  8 -1 -1</clus>
<clus scale="  108.491">  2  5  1 -1</clus>
<clus scale="  143.544">  1  9  2 -1</clus>
<clus scale="  143.544">  1  5  2 -1</clus>
</clustering>
</event>
<event>
 9    1  0.3197504E-005  0.1028695E+03  0.7546771E-02  0.1278810E+00
         -2   -1    0    0    0  501 -0.00000000000E+00  0.00000000000E+00  0.16393275364E+03  0.16393275364E+03  0.00000000000E+00 0.  1.
         21   -1    0    0  501  502  0.00000000000E+00 -0.00000000000E+00 -0.20661676795E+03  0.20661676795E+03  0.00000000000E+00 0.  1.
        -24    2    1    2    0    0  0.50315876019E+02  0.15950871990E+01  0.11952228665E+03  0.15302686522E+03  0.81224459314E+02 0.  0.
         23    2    1    2    0    0 -0.29089310009E+02 -0.38103341405E+02 -0.11529444368E+03  0.15440259552E+03  0.90825658130E+02 0.  0.
         11    1    3    3    0    0 -0.18856685145E+02  0.11397776027E+02  0.12833437236E+02  0.25498646715E+02  0.00000000000E+00 0. -1.
        -12    1    3    3    0    0  0.69172561164E+02 -0.98026888279E+01  0.10668884941E+03  0.12752821851E+03  0.00000000000E+00 0.  1.
        -13    1    4    4    0    0 -0.15670480500E+02 -0.61047888965E+02 -0.40232583278E+02  0.74773454270E+02  0.00000000000E+00 0.  1.
         13    1    4    4    0    0 -0.13418829508E+02  0.22944547560E+02 -0.75061860405E+02  0.79629141246E+02  0.00000000000E+00 0. -1.
         -1    1    1    2    0  502 -0.21226566011E+02  0.36508254206E+02 -0.46911857277E+02  0.63120060860E+02  0.00000000000E+00 0.  1.
<scales pt_clust_5="13000.00000" pt_clust_6="13000.00000" pt_clust_7="13000.00000" pt_clust_8="13000.00000" pt_clust_9="42.23055"></scales>
<clustering>
<clus scale="   42.231">  2  9  1 -1</clus>
<clus scale="   81.224">  5  6 -1 -1</clus>
<clus scale="   90.826">  7  8 -1 -1</clus>
<clus scale="   94.500">  1  5  2 -1</clus>
<clus scale="   42.231">  2  5  1 -1</clus>
</clustering>
</event>
<event>
 9    1  0.3197504E-005  0.9060853E+02  0.7546771E-02  0.1311037E+00
         -4   -1    0    0    0  501 -0.00000000000E+00  0.00000000000E+00  0.78922216800E+02  0.78922216800E+02  0.00000000000E+00 0.  1.
         21   -1    0    0  501  502  0.00000000000E+00 -0.00000000000E+00 -0.17040560789E+03  0.17040560789E+03  0.00000000000E+00 0.  1.
        -24    2    1    2    0    0  0.87883380909E+01 -0.12852509344E+01 -0.24235694240E+02  0.79487400025E+02  0.75179725533E+02 0.  0.
         23    2    1    2    0    0  0.39651457451E+02  0.16241325648E+02 -0.65265171618E+02  0.11910554151E+03  0.89947588377E+02 0.  0.
         11    1    3    3    0    0  0.36153508459E+02  0.12961526958E+02  0.27416574512E+01  0.38504467800E+02  0.00000000000E+00 0. -1.
        -12    1    3    3    0    0 -0.27365170368E+02 -0.14246777893E+02 -0.26977351691E+02  0.40982932226E+02  0.00000000000E+00 0.  1.
        -13    1    4    4    0    0  0.58569894389E+02 -0.17091640484E+02 -0.35604185924E+02  0.70641452126E+02  0.00000000000E+00 0.  1.
         13    1    4    4    0    0 -0.18918436937E+02  0.33332966132E+02 -0.29660985694E+02  0.48464089383E+02  0.00000000000E+00 0. -1.
         -3    1    1    2    0  502 -0.48439795542E+02 -0.14956074713E+02 -0.19825252376E+01  0.50734883161E+02  0.00000000000E+00 0.  1.
<scales pt_clust_5="13000.00000" pt_clust_6="13000.00000" pt_clust_7="13000.00000" pt_clust_8="13000.00000" pt_clust_9="50.69616"></scales>
<clustering>
<clus scale="   50.696">  2  9  1 -1</clus>
<clus scale="   75.180">  5  6 -1 -1</clus>
<clus scale="   75.969">  1  5  2 -1</clus>
<clus scale="   89.948">  7  8 -1 -1</clus>
<clus scale="   50.696">  2  5  1 -1</clus>
</clustering>
</event>
<event>
 9    1  0.3197504E-005  0.1037567E+03  0.7546771E-02  0.1281997E+00
          1   -1    0    0  502    0 -0.00000000000E+00  0.00000000000E+00  0.44284420673E+03  0.44284420673E+03  0.00000000000E+00 0. -1.
         21   -1    0    0  501  502  0.00000000000E+00 -0.00000000000E+00 -0.36784259521E+02  0.36784259521E+02  0.00000000000E+00 0.  1.
        -24    2    1    2    0    0  0.41243260616E+02 -0.38451947176E+02  0.16831903079E+03  0.19400373354E+03  0.78272560427E+02 0.  0.
         23    2    1    2    0    0 -0.25067668592E+02 -0.15482963772E+02  0.13892977168E+03  0.17189581501E+03  0.96843066771E+02 0.  0.
         13    1    3    3    0    0 -0.36392460986E+01  0.20830870641E+02  0.26784546200E+02  0.34125960778E+02  0.00000000000E+00 0. -1.
        -14    1    3    3    0    0  0.44882506714E+02 -0.59282817817E+02  0.14153448459E+03  0.15987777277E+03  0.00000000000E+00 0.  1.
        -11    1    4    4    0    0 -0.54611165228E+02  0.12815232732E+02  0.55166621228E+02  0.78676334786E+02  0.00000000000E+00 0. -1.
         11    1    4    4    0    0  0.29543496636E+02 -0.28298196504E+02  0.83763150453E+02  0.93219480221E+02  0.00000000000E+00 0.  1.
          2    1    1    2  501    0 -0.16175592024E+02  0.53934910948E+02  0.98811144745E+02  0.11372891770E+03  0.00000000000E+00 0. -1.
<scales pt_clust_5="13000.00000" pt_clust_6="13000.00000" pt_clust_7="13000.00000" pt_clust_8="13000.00000" pt_clust_9="56.30833"></scales>
<clustering>
<clus scale="   56.308">  2  9  1 -1</clus>
<clus scale="   78.273">  5  6 -1 -1</clus>
<clus scale="   86.680">  1  5  2 -1</clus>
<clus scale="   96.843">  7  8 -1 -1</clus>
<clus scale="   56.308">  2  5  1 -1</clus>
</clustering>
</event>
<event>
 9    1  0.3197504E-005  0.9741450E+02  0.7546771E-02  0.1305803E+00
         21   -1    0    0  501  502  0.00000000000E+00  0.00000000000E+00  0.28036422038E+02  0.28036422038E+02  0.00000000000E+00 0. -1.
          1   -1    0    0  502    0 -0.00000000000E+00 -0.00000000000E+00 -0.37840678357E+03  0.37840678357E+03  0.00000000000E+00 0. -1.
         23    2    1    2    0    0  0.43138583029E+02  0.24057910146E+01 -0.16812379974E+03  0.19625589440E+03  0.91564397413E+02 0.  0.
        -24    2    1    2    0    0 -0.23471159118E+02  0.12820758409E+02 -0.69227293335E+02  0.94463457079E+02  0.58443643147E+02 0.  0.
         11    1    4    4    0    0 -0.41143318232E+02  0.13824458103E+02 -0.34350411532E+02  0.55351956148E+02  0.00000000000E+00 0. -1.
        -12    1    4    4    0    0  0.17672159113E+02 -0.10036996941E+01 -0.34876881803E+02  0.39111500932E+02  0.00000000000E+00 0.  1.
        -13    1    3    3    0    0  0.63825533269E+02 -0.13871555903E+02 -0.74860216137E+02  0.99348732857E+02  0.00000000000E+00 0. -1.
         13    1    3    3    0    0 -0.20686950240E+02  0.16277346917E+02 -0.93263583599E+02  0.96907161545E+02  0.00000000000E+00 0.  1.
          2    1    1    2  501    0 -0.19667423911E+02 -0.15226549424E+02 -0.11301926846E+03  0.11572385413E+03  0.00000000000E+00 0. -1.
<scales pt_clust_5="13000.00000" pt_clust_6="13000.00000" pt_clust_7="13000.00000" pt_clust_8="13000.00000" pt_clust_9="24.87280"></scales>
<clustering>
<clus scale="   24.873">  1  9  2 -1</clus>
<clus scale="   58.444">  5  6 -1 -1</clus>
<clus scale="   67.240">  1  5  2 -1</clus>
<clus scale="   91.564">  7  8 -1 -1</clus>
<clus scale="   24.873">  1  5  2 -1</clus>
</clustering>
</event>
<event>
 9    1  0.3197504E-005  0.9106574E+02  0.7546771E-02  0.1313358E+00
         21   -1    0    0  501  502  0.00000000000E+00  0.00000000000E+00  0.70775256349E+02  0.70775256349E+02  0.00000000000E+00 0.  1.
          1   -1    0    0  502    0 -0.00000000000E+00 -0.00000000000E+00 -0.13924344449E+03  0.13924344449E+03  0.00000000000E+00 0. -1.
        -24    2    1    2    0    0 -0.93579414520E+01  0.21860801044E+02 -0.57058450725E+02  0.93215774109E+02  0.69771398531E+02 0.  0.
         23    2    1    2    0    0  0.93391238659E+01  0.42656932495E+01 -0.79541318858E+01  0.90448889702E+02  0.89511552666E+02 0.  0.
         11    1    3    3    0    0  0.24436529384E+02 -0.91503652281E+01 -0.30789467225E+02  0.40359192808E+02  0.00000000000E+00 0. -1.
        -12    1    3    3    0    0 -0.33794470836E+02  0.31011166272E+02 -0.26268983501E+02  0.52856581301E+02  0.00000000000E+00 0.  1.
        -13    1    4    4    0    0 -0.33524372666E+02 -0.18617757382E+02  0.82578800232E+01  0.39226228917E+02  0.00000000000E+00 0.  1.
         13    1    4    4    0    0  0.42863496532E+02  0.22883450632E+02 -0.16212011909E+02  0.51222660785E+02  0.00000000000E+00 0. -1.
          2    1    1    2  501    0  0.18817586079E-01 -0.26126494294E+02 -0.34556055317E+01  0.26354037030E+02  0.00000000000E+00 0. -1.
<scales pt_clust_5="13000.00000" pt_clust_6="13000.00000" pt_clust_7="13000.00000" pt_clust_8="13000.00000" pt_clust_9="26.12650"></scales>
<clustering>
<clus scale="   26.127">  1  9  2 -1</clus>
<clus scale="   69.771">  5  6 -1 -1</clus>
<clus scale="   71.754">  2  5  1 -1</clus>
<clus scale="   89.512">  7  8 -1 -1</clus>
<clus scale="   26.127">  1  5  2 -1</clus>
</clustering>
</event>
<event>
 9    1  0.3197504E-005  0.1017693E+03  0.7546771E-02  0.1277885E+00
         21   -1    0    0  501  502  0.00000000000E+00  0.00000000000E+00  0.42368299338E+03  0.42368299338E+03  0.00000000000E+00 0. -1.
         -4   -1    0    0    0  501 -0.00000000000E+00 -0.00000000000E+00 -0.96888521278E+02  0.96888521278E+02  0.00000000000E+00 0.  1.
         23    2    1    2    0    0 -0.33063125447E+02 -0.14997844977E+02 -0.61612084845E+01  0.98886464823E+02  0.91773998588E+02 0.  0.
        -24    2    1    2    0    0  0.98716969690E+02  0.24756763378E+02  0.32839428825E+03  0.35515332768E+03  0.89068177078E+02 0.  0.
         13    1    4    4    0    0  0.61383383562E+02  0.57734990895E+01  0.29559397966E+03  0.30195538392E+03  0.00000000000E+00 0. -1.
        -14    1    4    4    0    0  0.37333586128E+02  0.18983264289E+02  0.32800308594E+02  0.53197943758E+02  0.00000000000E+00 0.  1.
        -13    1    3    3    0    0 -0.39922762877E+01 -0.47747927985E+02 -0.21458456316E+02  0.52500173755E+02  0.00000000000E+00 0.  1.
         13    1    3    3    0    0 -0.29070849159E+02  0.32750083008E+02  0.15297247831E+02  0.46386291068E+02  0.00000000000E+00 0. -1.
         -3    1    1    2    0  502 -0.65653844243E+02 -0.97589184006E+01  0.45613923284E+01  0.66531722150E+02  0.00000000000E+00 0.  1.
<scales pt_clust_5="13000.00000" pt_clust_6="13000.00000" pt_clust_7="13000.00000" pt_clust_8="13000.00000" pt_clust_9="66.37521"></scales>
<clustering>
<clus scale="   66.375">  1  9  2 -1</clus>
<clus scale="   89.068">  5  6 -1 -1</clus>
<clus scale="   91.774">  7  8 -1 -1</clus>
<clus scale="   99.336">  1  5  2 -1</clus>
<clus scale="   66.375">  1  5  2 -1</clus>
</clustering>
</event>
<event>
 9    1  0.3197504E-005  0.9570153E+02  0.7546771E-02  0.1292925E+00
         21   -1    0    0  501  502  0.00000000000E+00  0.00000000000E+00  0.71980648229E+03  0.71980648229E+03  0.00000000000E+00 0.  1.
          1   -1    0    0  502    0 -0.00000000000E+00 -0.00000000000E+00 -0.25561733384E+03  0.25561733384E+03  0.00000000000E+00 0. -1.
        -24    2    1    2    0    0  0.54107640760E+01  0.14304806521E+02 -0.23823791439E+03  0.25670611891E+03  0.94375970326E+02 0.  0.
         23    2    1    2    0    0  0.17490220399E+02 -0.48227368760E+02  0.37377749093E+03  0.38752932720E+03  0.88530106780E+02 0.  0.
         13    1    3    3    0    0  0.28786763898E+02  0.38116397082E+02 -0.20146752089E+03  0.20705240756E+03  0.00000000000E+00 0. -1.
        -14    1    3    3    0    0 -0.23375999822E+02 -0.23811590561E+02 -0.36770393501E+02  0.49653711352E+02  0.00000000000E+00 0.  1.
        -13    1    4    4    0    0  0.45416735689E+02 -0.91851480575E+01  0.25910106090E+03  0.26321171437E+03  0.00000000000E+00 0. -1.
         13    1    4    4    0    0 -0.27926515290E+02 -0.39042220702E+02  0.11467643003E+03  0.12431761283E+03  0.00000000000E+00 0.  1.
          2    1    1    2  501    0 -0.22900984475E+02  0.33922562239E+02  0.32864957191E+03  0.33118837002E+03  0.00000000000E+00 0. -1.
<scales pt_clust_5="13000.00000" pt_clust_6="13000.00000" pt_clust_7="13000.00000" pt_clust_8="13000.00000" pt_clust_9="40.92915"></scales>
<clustering>
<clus scale="   40.929">  1  9  2 -1</clus>
<clus scale="   88.530">  7  8 -1 -1</clus>
<clus scale="   89.942">  1  7  2 -1</clus>
<clus scale="   94.376">  5  6 -1 -1</clus>
<clus scale="   40.929">  1  5  2 -1</clus>
</clustering>
</event>
<event>
 9    1  0.3197504E-005  0.1031981E+03  0.7546771E-02  0.1279301E+00
         21   -1    0    0  501  502  0.00000000000E+00  0.00000000000E+00  0.30395576241E+03  0.30395576241E+03  0.00000000000E+00 0. -1.
         -4   -1    0    0    0  501 -0.00000000000E+00 -0.00000000000E+00 -0.26764253026E+03  0.26764253026E+03  0.00000000000E+00 0.  1.
        -24    2    1    2    0    0  0.14839007098E+02  0.45305456808E+02 -0.23860913334E+03  0.25604275595E+03  0.79691867938E+02 0.  0.
         23    2    1    2    0    0 -0.51100732360E+02 -0.26803172620E+02  0.15645601518E+03  0.19028972576E+03  0.91662424863E+02 0.  0.
         11    1    3    3    0    0 -0.15611127150E+02  0.20558454487E+02 -0.16821770001E+02  0.30811187704E+02  0.00000000000E+00 0. -1.
        -12    1    3    3    0    0  0.30450134248E+02  0.24747002321E+02 -0.22178736334E+03  0.22523156825E+03  0.00000000000E+00 0.  1.
        -11    1    4    4    0    0 -0.73608934217E+02 -0.17353976499E+02  0.80253479615E+02  0.11027264705E+03  0.00000000000E+00 0.  1.
         11    1    4    4    0    0  0.22508201856E+02 -0.94491961207E+01  0.76202535568E+02  0.80017078709E+02  0.00000000000E+00 0. -1.
         -3    1    1    2    0  502  0.36261725262E+02 -0.18502284189E+02  0.11846635031E+03  0.12526581096E+03  0.00000000000E+00 0.  1.
<scales pt_clust_5="13000.00000" pt_clust_6="13000.00000" pt_clust_7="13000.00000" pt_clust_8="13000.00000" pt_clust_9="40.70930"></scales>
<clustering>
<clus scale="   40.709">  1  9  2 -1</clus>
<clus scale="   79.692">  5  6 -1 -1</clus>
<clus scale="   91.662">  7  8 -1 -1</clus>
<clus scale="   92.729">  2  5  1 -1</clus>
<clus scale="   40.709">  1  5  2 -1</clus>
</clustering>
</event>
<event>
 9    1  0.3197504E-005  0.1032815E+03  0.7546771E-02  0.1278274E+00
         21   -1    0    0  501  502  0.00000000000E+00  0.00000000000E+00  0.54526300204E+02  0.54526300204E+02  0.00000000000E+00 0. -1.
         -2   -1    0    0    0  501 -0.00000000000E+00 -0.00000000000E+00 -0.26158627347E+03  0.26158627347E+03  0.00000000000E+00 0.  1.
         23    2    1    2    0    0  0.31239298066E+02  0.25737578866E+02 -0.12095968582E+03  0.15726654441E+03  0.91995672121E+02 0.  0.
        -24    2    1    2    0    0 -0.24952887244E+02 -0.55541233204E+02 -0.57602307702E+02  0.11713378139E+03  0.81821890238E+02 0.  0.
         13    1    4    4    0    0 -0.51602452607E+02 -0.51656845601E+02 -0.51964235194E+02  0.89618773434E+02  0.00000000000E+00 0. -1.
        -14    1    4    4    0    0  0.26649565363E+02 -0.38843876025E+01 -0.56380725083E+01  0.27515007954E+02  0.00000000000E+00 0.  1.
        -13    1    3    3    0    0  0.27819108036E+02 -0.29204247058E+02 -0.76598055208E+02  0.86568197855E+02  0.00000000000E+00 0.  1.
         13    1    3    3    0    0  0.34201900297E+01  0.54941825924E+02 -0.44361630612E+02  0.70698346560E+02  0.00000000000E+00 0. -1.
         -1    1    1    2    0  502 -0.62864108218E+01  0.29803654338E+02 -0.28497979740E+02  0.41712247868E+02  0.00000000000E+00 0.  1.
<scales pt_clust_5="13000.00000" pt_clust_6="13000.00000" pt_clust_7="13000.00000" pt_clust_8="13000.00000" pt_clust_9="30.45944"></scales>
<clustering>
<clus scale="   30.459">  1  9  2 -1</clus>
<clus scale="   81.822">  5  6 -1 -1</clus>
<clus scale="   91.996">  7  8 -1 -1</clus>
<clus scale="   94.333">  1  5  2 -1</clus>
<clus scale="   30.459">  1  5  2 -1</clus>
</clustering>
</event>
<event>
 9    1  0.3197504E-005  0.1431378E+03  0.7546771E-02  0.1210938E+00
         21   -1    0    0  501  502  0.00000000000E+00  0.00000000000E+00  0.10126182950E+03  0.10126182950E+03  0.00000000000E+00 0. -1.
         -2   -1    0    0    0  501 -0.00000000000E+00 -0.00000000000E+00 -0.75781297301E+03  0.75781297301E+03  0.00000000000E+00 0.  1.
        -24    2    1    2    0    0 -0.38727526699E+02  0.10344153214E+03 -0.62902399883E+03  0.64370635356E+03  0.80540093180E+02 0.  0.
         23    2    1    2    0    0  0.63617361215E+02 -0.10523893249E+03 -0.69038954119E+02  0.16693328782E+03  0.89319336304E+02 0.  0.
         11    1    3    3    0    0 -0.37964607853E+02  0.97540148093E+02 -0.36750079254E+03  0.38211545959E+03  0.00000000000E+00 0. -1.
        -12    1    3    3    0    0 -0.76291884590E+00  0.59013840517E+01 -0.26152320630E+03  0.26159089397E+03  0.00000000000E+00 0.  1.
        -11    1    4    4    0    0  0.81929945520E+02 -0.58619020626E+02 -0.55638500398E+02  0.11508409220E+03  0.00000000000E+00 0.  1.
         11    1    4    4    0    0 -0.18312584306E+02 -0.46619911865E+02 -0.13400453720E+02  0.51849195618E+02  0.00000000000E+00 0. -1.
         -1    1    1    2    0  502 -0.24889834516E+02  0.17974003460E+01  0.41511809438E+02  0.48435161124E+02  0.00000000000E+00 0.  1.
<scales pt_clust_5="13000.00000" pt_clust_6="13000.00000" pt_clust_7="13000.00000" pt_clust_8="13000.00000" pt_clust_9="24.95465"></scales>
<clustering>
<clus scale="   24.955">  1  9  2 -1</clus>
<clus scale="   80.540">  5  6 -1 -1</clus>
<clus scale="   89.319">  7  8 -1 -1</clus>
<clus scale="  137.830">  2  5  1 -1</clus>
<clus scale="   24.955">  1  5  2 -1</clus>
</clustering>
</event>
<event>
 9    1  0.3197504E-005  0.1083048E+03  0.7546771E-02  0.1272010E+00
         21   -1    0    0  501  502  0.00000000000E+00  0.00000000000E+00  0.21276321586E+03  0.21276321586E+03  0.00000000000E+00 0. -1.
          1   -1    0    0  502    0 -0.00000000000E+00 -0.00000000000E+00 -0.26377554120E+03  0.26377554120E+03  0.00000000000E+00 0. -1.
        -24    2    1    2    0    0 -0.15721976211E+02  0.38508410339E+02 -0.14615512495E+03  0.17130345560E+03  0.79078917212E+02 0.  0.
         23    2    1    2    0    0  0.70451209924E+01 -0.64079072422E+02 -0.71181578681E+02  0.13673323801E+03  0.97331392577E+02 0.  0.
         11    1    3    3    0    0 -0.41629984274E+02  0.12212029788E+02 -0.11529805457E+03  0.12319022141E+03  0.00000000000E+00 0. -1.
        -12    1    3    3    0    0  0.25908008064E+02  0.26296380551E+02 -0.30857070379E+02  0.48113234190E+02  0.00000000000E+00 0.  1.
        -13    1    4    4    0    0 -0.40049304486E+02 -0.36797892233E+02 -0.60348037799E+02  0.81239875239E+02  0.00000000000E+00 0. -1.
         13    1    4    4    0    0  0.47094425478E+02 -0.27281180189E+02 -0.10833540882E+02  0.55493362772E+02  0.00000000000E+00 0.  1.
          2    1    1    2  501    0  0.86768552181E+01  0.25570662083E+02  0.16632437829E+03  0.16850206346E+03  0.00000000000E+00 0. -1.
<scales pt_clust_5="13000.00000" pt_clust_6="13000.00000" pt_clust_7="13000.00000" pt_clust_8="13000.00000" pt_clust_9="27.00271"></scales>
<clustering>
<clus scale="   27.003">  1  9  2 -1</clus>
<clus scale="   79.079">  5  6 -1 -1</clus>
<clus scale="   92.250">  2  5  1 -1</clus>
<clus scale="   97.331">  7  8 -1 -1</clus>
<clus scale="   27.003">  1  5  2 -1</clus>
</clustering>
</event>
<event>
 9    1  0.3197504E-005  0.9692558E+02  0.7546771E-02  0.1295820E+00
         21   -1    0    0  501  502  0.00000000000E+00  0.00000000000E+00  0.15471657020E+02  0.15471657020E+02  0.00000000000E+00 0.  1.
          1   -1    0    0  502    0 -0.00000000000E+00 -0.00000000000E+00 -0.10385489962E+04  0.10385489962E+04  0.00000000000E+00 0. -1.
        -24    2    1    2    0    0 -0.12105958646E+02 -0.23829553100E+02 -0.60720458642E+03  0.61312580235E+03  0.80693481171E+02 0.  0.
         23    2    1    2    0    0  0.30461262277E+01 -0.22741984412E+02 -0.29679037572E+03  0.31270904358E+03  0.95791137776E+02 0.  0.
         11    1    3    3    0    0 -0.15254937903E+02  0.26491896200E+02 -0.14552725962E+03  0.14870345318E+03  0.00000000000E+00 0. -1.
        -12    1    3    3    0    0  0.31489792565E+01 -0.50321449300E+02 -0.46167732680E+03  0.46442234917E+03  0.00000000000E+00 0.  1.
        -11    1    4    4    0    0 -0.34415584682E+02  0.21387017335E+02 -0.11547821067E+03  0.12238077512E+03  0.00000000000E+00 0. -1.
         11    1    4    4    0    0  0.37461710910E+02 -0.44129001747E+02 -0.18131216505E+03  0.19032826846E+03  0.00000000000E+00 0.  1.
          2    1    1    2  501    0  0.90598324185E+01  0.46571537511E+02 -0.11908237707E+03  0.12818580732E+03  0.00000000000E+00 0. -1.
<scales pt_clust_5="13000.00000" pt_clust_6="13000.00000" pt_clust_7="13000.00000" pt_clust_8="13000.00000" pt_clust_9="47.44459"></scales>
<clustering>
<clus scale="   47.445">  1  9  2 -1</clus>
<clus scale="   80.693">  5  6 -1 -1</clus>
<clus scale="   82.037">  2  5  1 -1</clus>
<clus scale="   95.791">  7  8 -1 -1</clus>
<clus scale="   47.445">  1  5  2 -1</clus>
</clustering>
</event>
<event>
 9    1  0.3197504E-005  0.9942243E+02  0.7546771E-02  0.1286800E+00
         21   -1    0    0  501  502  0.00000000000E+00  0.00000000000E+00  0.38502447876E+03  0.38502447876E+03  0.00000000000E+00 0. -1.
         -4   -1    0    0    0  501 -0.00000000000E+00 -0.00000000000E+00 -0.57478089033E+02  0.57478089033E+02  0.00000000000E+00 0.  1.
        -24    2    1    2    0    0 -0.26301832541E+02  0.36158433469E+02  0.53972874038E+02  0.10623690435E+03  0.79837272045E+02 0.  0.
         23    2    1    2    0    0  0.62944491254E+02  0.22413684526E+02  0.22594930077E+03  0.25235235525E+03  0.90356197645E+02 0.  0.
         13    1    3    3    0    0  0.20651472104E+02  0.19135554921E+02 -0.53832175712E+01  0.28664120318E+02  0.00000000000E+00 0. -1.
        -14    1    3    3    0    0 -0.46953304644E+02  0.17022878549E+02  0.59356091609E+02  0.77572784030E+02  0.00000000000E+00 0.  1.
        -13    1    4    4    0    0  0.83784872814E+02  0.20809257945E+02  0.14505537733E+03  0.16880163690E+03  0.00000000000E+00 0.  1.
         13    1    4    4    0    0 -0.20840381560E+02  0.16044265812E+01  0.80893923438E+02  0.83550718354E+02  0.00000000000E+00 0. -1.
         -3    1    1    2    0  502 -0.36642658714E+02 -0.58572117995E+02  0.47624214920E+02  0.83913308186E+02  0.00000000000E+00 0.  1.
<scales pt_clust_5="13000.00000" pt_clust_6="13000.00000" pt_clust_7="13000.00000" pt_clust_8="13000.00000" pt_clust_9="69.08967"></scales>
<clustering>
<clus scale="   69.090">  1  9  2 -1</clus>
<clus scale="   79.837">  5  6 -1 -1</clus>
<clus scale="   89.970">  2  5  1 -1</clus>
<clus scale="   90.356">  7  8 -1 -1</clus>
<clus scale="   69.090">  1  5  2 -1</clus>
</clustering>
</event>
<event>
 9    1  0.3197504E-005  0.9712627E+02  0.7546771E-02  0.1290655E+00
         21   -1    0    0  501  502  0.00000000000E+00  0.00000000000E+00  0.14476602085E+03  0.14476602085E+03  0.00000000000E+00 0. -1.
          1   -1    0    0  502    0 -0.00000000000E+00 -0.00000000000E+00 -0.11653291661E+03  0.11653291661E+03  0.00000000000E+00 0. -1.
         23    2    1    2    0    0  0.14855643681E+02 -0.13268241178E+01  0.37002290946E+01  0.94733895217E+02  0.93479241525E+02 0.  0.
        -24    2    1    2    0    0  0.14399440950E+02  0.55250638526E+02  0.10246854376E+02  0.10357513728E+03  0.85806958232E+02 0.  0.
         11    1    4    4    0    0  0.39104368465E+02  0.79559424637E+01 -0.17336688054E+02  0.43508727931E+02  0.00000000000E+00 0. -1.
        -12    1    4    4    0    0 -0.24704927515E+02  0.47294696062E+02  0.27583542430E+02  0.60066409349E+02  0.00000000000E+00 0.  1.
        -11    1    3    3    0    0  0.14889799649E+02  0.34726157086E+02  0.31512373044E+02  0.49200018033E+02  0.00000000000E+00 0. -1.
         11    1    3    3    0    0 -0.34155967947E-01 -0.36052981204E+02 -0.27812143949E+02  0.45533877184E+02  0.00000000000E+00 0.  1.
          2    1    1    2  501    0 -0.29255084630E+02 -0.53923814408E+02  0.14286020772E+02  0.62989904957E+02  0.00000000000E+00 0. -1.
<scales pt_clust_5="13000.00000" pt_clust_6="13000.00000" pt_clust_7="13000.00000" pt_clust_8="13000.00000" pt_clust_9="61.34849"></scales>
<clustering>
<clus scale="   61.348">  1  9  2 -1</clus>
<clus scale="   85.807">  5  6 -1 -1</clus>
<clus scale="   89.766">  1  5  2 -1</clus>
<clus scale="   93.479">  7  8 -1 -1</clus>
<clus scale="   61.348">  1  5  2 -1</clus>
</clustering>
</event>
<event>
 9    1  0.3197504E-005  0.1117664E+03  0.7546771E-02  0.1261271E+00
          3   -1    0    0  502    0 -0.00000000000E+00  0.00000000000E+00  0.12098004508E+03  0.12098004508E+03  0.00000000000E+00 0. -1.
         21   -1    0    0  501  502  0.00000000000E+00 -0.00000000000E+00 -0.24087852463E+03  0.24087852463E+03  0.00000000000E+00 0.  1.
        -24    2    1    2    0    0  0.43998284239E+02 -0.49080325661E+02  0.67539537774E+02  0.12432218100E+03  0.80930143605E+02 0.  0.
         23    2    1    2    0    0 -0.12221766915E+02  0.62512314321E+02 -0.14021814842E+03  0.17905663672E+03  0.91339963750E+02 0.  0.
         11    1    3    3    0    0  0.31187439560E+02 -0.54803162132E+02  0.82482789843E+02  0.10382414741E+03  0.00000000000E+00 0. -1.
        -12    1    3    3    0    0  0.12810844679E+02  0.57228364716E+01 -0.14943252069E+02  0.20498033590E+02  0.00000000000E+00 0.  1.
        -13    1    4    4    0    0 -0.11553230940E+02  0.21424219170E+02 -0.13552784485E+03  0.13769630003E+03  0.00000000000E+00 0.  1.
         13    1    4    4    0    0 -0.66853597464E+00  0.41088095151E+02 -0.46903035730E+01  0.41360336690E+02  0.00000000000E+00 0. -1.
          4    1    1    2  501    0 -0.31776517325E+02 -0.13431988660E+02 -0.47219868902E+02  0.58479751981E+02  0.00000000000E+00 0. -1.
<scales pt_clust_5="13000.00000" pt_clust_6="13000.00000" pt_clust_7="13000.00000" pt_clust_8="13000.00000" pt_clust_9="34.49877"></scales>
<clustering>
<clus scale="   34.499">  2  9  1 -1</clus>
<clus scale="   80.930">  5  6 -1 -1</clus>
<clus scale="   91.340">  7  8 -1 -1</clus>
<clus scale="  103.433">  1  5  2 -1</clus>
<clus scale="   34.499">  2  5  1 -1</clus>
</clustering>
</event>
<event>
 9    1  0.3197504E-005  0.1090006E+03  0.7546771E-02  0.1266985E+00
          1   -1    0    0  502    0 -0.00000000000E+00  0.00000000000E+00  0.19761542224E+03  0.19761542224E+03  0.00000000000E+00 0. -1.
         21   -1    0    0  501  502  0.00000000000E+00 -0.00000000000E+00 -0.12432647639E+03  0.12432647639E+03  0.00000000000E+00 0.  1.
        -24    2    1    2    0    0  0.41793684071E+01  0.60402470743E+02  0.13718360956E+03  0.17103123334E+03  0.82258218152E+02 0.  0.
         23    2    1    2    0    0  0.19150277074E+02 -0.36011918751E+02 -0.56237139914E+02  0.11630128715E+03  0.93272622363E+02 0.  0.
         13    1    3    3    0    0  0.18128402303E+02  0.60042545514E+02  0.43533536851E+02  0.76347331798E+02  0.00000000000E+00 0. -1.
        -14    1    3    3    0    0 -0.13949033896E+02  0.35992522919E+00  0.93650072708E+02  0.94683901541E+02  0.00000000000E+00 0.  1.
        -11    1    4    4    0    0  0.55399502029E+00  0.27299192138E+02 -0.39856970223E+02  0.48312843812E+02  0.00000000000E+00 0. -1.
         11    1    4    4    0    0  0.18596282054E+02 -0.63311110888E+02 -0.16380169691E+02  0.67988443336E+02  0.00000000000E+00 0.  1.
          2    1    1    2  501    0 -0.23329645481E+02 -0.24390551992E+02 -0.76575237971E+01  0.34609378143E+02  0.00000000000E+00 0. -1.
<scales pt_clust_5="13000.00000" pt_clust_6="13000.00000" pt_clust_7="13000.00000" pt_clust_8="13000.00000" pt_clust_9="33.75161"></scales>
<clustering>
<clus scale="   33.752">  2  9  1 -1</clus>
<clus scale="   82.258">  5  6 -1 -1</clus>
<clus scale="   93.273">  7  8 -1 -1</clus>
<clus scale="   99.738">  1  5  2 -1</clus>
<clus scale="   33.752">  2  5  1 -1</clus>
</clustering>
</event>
<event>
 9    1  0.3197504E-005  0.1260655E+03  0.7546771E-02  0.1237059E+00
          1   -1    0    0  502    0 -0.00000000000E+00  0.00000000000E+00  0.57485559773E+03  0.57485559773E+03  0.00000000000E+00 0. -1.
         21   -1    0    0  501  502  0.00000000000E+00 -0.00000000000E+00 -0.12130102014E+03  0.12130102014E+03  0.00000000000E+00 0. -1.
         23    2    1    2    0    0 -0.19182783222E+01 -0.85542913424E+02  0.38701287422E+03  0.40715024656E+03  0.93118680366E+02 0.  0.
        -24    2    1    2    0    0 -0.31058901814E+02  0.78805079236E+02 -0.78095355275E+02  0.14050461526E+03  0.80422425346E+02 0.  0.
         11    1    4    4    0    0 -0.52058557798E+02  0.76945851530E+02 -0.50381803616E+02  0.10568388545E+03  0.00000000000E+00 0. -1.
        -12    1    4    4    0    0  0.20999655984E+02  0.18592277061E+01 -0.27713551660E+02  0.34820729813E+02  0.00000000000E+00 0.  1.
        -11    1    3    3    0    0  0.18907897904E+02 -0.80493878284E+02  0.37176661295E+03  0.38085061054E+03  0.00000000000E+00 0. -1.
         11    1    3    3    0    0 -0.20826176226E+02 -0.50490351409E+01  0.15246261268E+02  0.26299636018E+02  0.00000000000E+00 0.  1.
          2    1    1    2  501    0  0.32977180136E+02  0.67378341884E+01  0.14463705864E+03  0.14850175606E+03  0.00000000000E+00 0. -1.
<scales pt_clust_5="13000.00000" pt_clust_6="13000.00000" pt_clust_7="13000.00000" pt_clust_8="13000.00000" pt_clust_9="33.65849"></scales>
<clustering>
<clus scale="   33.658">  2  9  1 -1</clus>
<clus scale="   80.422">  5  6 -1 -1</clus>
<clus scale="   93.119">  7  8 -1 -1</clus>
<clus scale="  117.001">  2  5  1 -1</clus>
<clus scale="   33.658">  2  5  1 -1</clus>
</clustering>
</event>
<event>
 9    1  0.3197504E-005  0.9177735E+02  0.7546771E-02  0.1300100E+00
         21   -1    0    0  501  502  0.00000000000E+00  0.00000000000E+00  0.27627173463E+03  0.27627173463E+03  0.00000000000E+00 0.  1.
         -2   -1    0    0    0  501 -0.00000000000E+00 -0.00000000000E+00 -0.87541835487E+02  0.87541835487E+02  0.00000000000E+00 0.  1.
        -24    2    1    2    0    0 -0.24994661614E+02 -0.31144065526E+02 -0.36635987999E+02  0.98061611111E+02  0.81726360683E+02 0.  0.
         23    2    1    2    0    0  0.12593436833E+02  0.50823505130E+02  0.98002741259E+02  0.13628211059E+03  0.78909144261E+02 0.  0.
         13    1    3    3    0    0  0.13155816139E+02  0.21221158460E+02 -0.17553543165E+02  0.30521139269E+02  0.00000000000E+00 0. -1.
        -14    1    3    3    0    0 -0.38150477752E+02 -0.52365223986E+02 -0.19082444833E+02  0.67540471842E+02  0.00000000000E+00 0.  1.
        -13    1    4    4    0    0 -0.95669779511E+01  0.66289557161E+02  0.62018684048E+02  0.91280609259E+02  0.00000000000E+00 0.  1.
         13    1    4    4    0    0  0.22160414784E+02 -0.15466052030E+02  0.35984057210E+02  0.45001501332E+02  0.00000000000E+00 0. -1.
         -1    1    1    2    0  502  0.12401224780E+02 -0.19679439604E+02  0.12736314588E+03  0.12946984841E+03  0.00000000000E+00 0.  1.
<scales pt_clust_5="13000.00000" pt_clust_6="13000.00000" pt_clust_7="13000.00000" pt_clust_8="13000.00000" pt_clust_9="23.26093"></scales>
<clustering>
<clus scale="   23.261">  1  9  2 -1</clus>
<clus scale="   78.909">  7  8 -1 -1</clus>
<clus scale="   81.726">  5  6 -1 -1</clus>
<clus scale="   89.278">  1  7  2 -1</clus>
<clus scale="   23.261">  1  5  2 -1</clus>
</clustering>
</event>
<event>
 9    1  0.3197504E-005  0.9398944E+02  0.7546771E-02  0.1300014E+00
         21   -1    0    0  501  502  0.00000000000E+00  0.00000000000E+00  0.13603977987E+03  0.13603977987E+03  0.00000000000E+00 0. -1.
          3   -1    0    0  502    0 -0.00000000000E+00 -0.00000000000E+00 -0.26397135135E+03  0.26397135135E+03  0.00000000000E+00 0. -1.
        -24    2    1    2    0    0 -0.11545518086E+02  0.92627393700E+01 -0.18421102915E+03  0.20149001418E+03  0.80283405667E+02 0.  0.
         23    2    1    2    0    0  0.42363373773E+02 -0.61343817889E+02  0.31093542382E+01  0.11796530491E+03  0.91369719542E+02 0.  0.
         11    1    3    3    0    0 -0.37353740957E+02  0.24649919650E+02 -0.14700330631E+03  0.15366487097E+03  0.00000000000E+00 0. -1.
        -12    1    3    3    0    0  0.25808222871E+02 -0.15387180280E+02 -0.37207722839E+02  0.47825143216E+02  0.00000000000E+00 0.  1.
        -13    1    4    4    0    0 -0.29412891621E+01 -0.67765635716E+02  0.17404485716E+02  0.70026771230E+02  0.00000000000E+00 0.  1.
         13    1    4    4    0    0  0.45304662935E+02  0.64218178266E+01 -0.14295131478E+02  0.47938533685E+02  0.00000000000E+00 0. -1.
          4    1    1    2  501    0 -0.30817855687E+02  0.52081078519E+02  0.53170103425E+02  0.80555812125E+02  0.00000000000E+00 0. -1.
<scales pt_clust_5="13000.00000" pt_clust_6="13000.00000" pt_clust_7="13000.00000" pt_clust_8="13000.00000" pt_clust_9="60.51594"></scales>
<clustering>
<clus scale="   60.516">  1  9  2 -1</clus>
<clus scale="   80.283">  5  6 -1 -1</clus>
<clus scale="   83.253">  2  5  1 -1</clus>
<clus scale="   91.370">  7  8 -1 -1</clus>
<clus scale="   60.516">  1  5  2 -1</clus>
</clustering>
</event>
<event>
 9    1  0.3197504E-005  0.1012731E+03  0.7546771E-02  0.1281488E+00
         21   -1    0    0  501  502  0.00000000000E+00  0.00000000000E+00  0.66913368453E+02  0.66913368453E+02  0.00000000000E+00 0.  1.
         -2   -1    0    0    0  501 -0.00000000000E+00 -0.00000000000E+00 -0.32805240420E+03  0.32805240420E+03  0.00000000000E+00 0.  1.
         23    2    1    2    0    0 -0.36022984800E+02 -0.45685429094E+02 -0.23540117082E+03  0.25674880319E+03  0.84388523209E+02 0.  0.
        -24    2    1    2    0    0  0.48711675986E+01  0.56440429438E+02 -0.39585821773E+02  0.10246963870E+03  0.75655397835E+02 0.  0.
         13    1    4    4    0    0  0.19189846894E+02  0.29426965396E+02  0.16330047710E+02  0.38741024437E+02  0.00000000000E+00 0. -1.
        -14    1    4    4    0    0 -0.14318679295E+02  0.27013464042E+02 -0.55915869482E+02  0.63728614266E+02  0.00000000000E+00 0.  1.
        -11    1    3    3    0    0 -0.58066177097E+02 -0.16729594720E+02 -0.18473904957E+03  0.19437097699E+03  0.00000000000E+00 0.  1.
         11    1    3    3    0    0  0.22043192297E+02 -0.28955834374E+02 -0.50662121255E+02  0.62377826197E+02  0.00000000000E+00 0. -1.
         -1    1    1    2    0  502  0.31151817202E+02 -0.10755000343E+02  0.13847956851E+02  0.35747330758E+02  0.00000000000E+00 0.  1.
<scales pt_clust_5="13000.00000" pt_clust_6="13000.00000" pt_clust_7="13000.00000" pt_clust_8="13000.00000" pt_clust_9="32.95612"></scales>
<clustering>
<clus scale="   32.956">  1  9  2 -1</clus>
<clus scale="   75.655">  5  6 -1 -1</clus>
<clus scale="   84.389">  7  8 -1 -1</clus>
<clus scale="   94.120">  1  5  2 -1</clus>
<clus scale="   32.956">  1  5  2 -1</clus>
</clustering>
</event>
<event>
 9    1  0.3197504E-005  0.1434944E+03  0.7546771E-02  0.1210963E+00
         21   -1    0    0  501  502  0.00000000000E+00  0.00000000000E+00  0.36785117396E+02  0.36785117396E+02  0.00000000000E+00 0. -1.
          1   -1    0    0  502    0 -0.00000000000E+00 -0.00000000000E+00 -0.98920400733E+03  0.98920400733E+03  0.00000000000E+00 0. -1.
         23    2    1    2    0    0  0.83540426959E+02  0.45769441547E+02 -0.46564224589E+03  0.48418361153E+03  0.92397098475E+02 0.  0.
        -24    2    1    2    0    0 -0.12669537145E+03 -0.33616584558E+02 -0.46870722568E+03  0.49346769107E+03  0.81499121605E+02 0.  0.
         11    1    4    4    0    0 -0.58499521697E+02 -0.27374958049E+01 -0.89610369078E+02  0.10705001713E+03  0.00000000000E+00 0. -1.
        -12    1    4    4    0    0 -0.68195849753E+02 -0.30879088753E+02 -0.37909685660E+03  0.38641767394E+03  0.00000000000E+00 0.  1.
        -11    1    3    3    0    0  0.32313018152E+02 -0.12178809486E+02 -0.46251867243E+02  0.57720791454E+02  0.00000000000E+00 0.  1.
         11    1    3    3    0    0  0.51227408806E+02  0.57948251033E+02 -0.41939037864E+03  0.42646282008E+03  0.00000000000E+00 0. -1.
          2    1    1    2  501    0  0.43154944491E+02 -0.12152856989E+02 -0.18069418363E+02  0.48337822117E+02  0.00000000000E+00 0. -1.
<scales pt_clust_5="13000.00000" pt_clust_6="13000.00000" pt_clust_7="13000.00000" pt_clust_8="13000.00000" pt_clust_9="44.83348"></scales>
<clustering>
<clus scale="   44.833">  1  9  2 -1</clus>
<clus scale="   81.499">  5  6 -1 -1</clus>
<clus scale="   92.397">  7  8 -1 -1</clus>
<clus scale="  136.732">  1  5  2 -1</clus>
<clus scale="   44.833">  1  5  2 -1</clus>
</clustering>
</event>
<event>
 9    1  0.3197504E-005  0.1124272E+03  0.7546771E-02  0.1261484E+00
         21   -1    0    0  501  502  0.00000000000E+00  0.00000000000E+00  0.38082613072E+03  0.38082613072E+03  0.00000000000E+00 0. -1.
          1   -1    0    0  502    0 -0.00000000000E+00 -0.00000000000E+00 -0.93973689336E+02  0.93973689336E+02  0.00000000000E+00 0. -1.
        -24    2    1    2    0    0  0.66966258598E+02 -0.27822390989E+02 -0.34436544343E+02  0.11408905354E+03  0.81067079136E+02 0.  0.
         23    2    1    2    0    0 -0.45293995994E+01 -0.14749942772E+01  0.17799561301E+03  0.20168344556E+03  0.94715800664E+02 0.  0.
         13    1    3    3    0    0  0.70775391756E+02 -0.18166581134E+02 -0.54730826695E+02  0.91294272214E+02  0.00000000000E+00 0. -1.
        -14    1    3    3    0    0 -0.38091331575E+01 -0.96558098544E+01  0.20294282353E+02  0.22794781323E+02  0.00000000000E+00 0.  1.
        -13    1    4    4    0    0 -0.31408875190E+02  0.36059205781E+02  0.77075499530E+02  0.90705106748E+02  0.00000000000E+00 0.  1.
         13    1    4    4    0    0  0.26879475590E+02 -0.37534200058E+02  0.10092011348E+03  0.11097833881E+03  0.00000000000E+00 0. -1.
          2    1    1    2  501    0 -0.62436858999E+02  0.29297385266E+02  0.14329337272E+03  0.15902732096E+03  0.00000000000E+00 0. -1.
<scales pt_clust_5="13000.00000" pt_clust_6="13000.00000" pt_clust_7="13000.00000" pt_clust_8="13000.00000" pt_clust_9="68.96882"></scales>
<clustering>
<clus scale="   68.969">  1  9  2 -1</clus>
<clus scale="   81.067">  5  6 -1 -1</clus>
<clus scale="   94.716">  7  8 -1 -1</clus>
<clus scale="  101.196">  2  5  1 -1</clus>
<clus scale="   68.969">  1  5  2 -1</clus>
</clustering>
</event>
<event>
 9    1  0.3197504E-005  0.9326854E+02  0.7546771E-02  0.1301948E+00
         21   -1    0    0  501  502  0.00000000000E+00  0.00000000000E+00  0.12911300261E+03  0.12911300261E+03  0.00000000000E+00 0.  1.
         -4   -1    0    0    0  501 -0.00000000000E+00 -0.00000000000E+00 -0.22285145570E+03  0.22285145570E+03  0.00000000000E+00 0.  1.
        -24    2    1    2    0    0 -0.63922123934E+01 -0.55572137054E+00 -0.13079973918E+03  0.15387927161E+03  0.80802779998E+02 0.  0.
         23    2    1    2    0    0  0.23397870014E+02  0.46028316032E+02 -0.35021123980E+02  0.11117820714E+03  0.92021999652E+02 0.  0.
         11    1    3    3    0    0  0.85362749960E+01 -0.38822235986E+02 -0.70151071796E+02  0.80630061837E+02  0.00000000000E+00 0. -1.
        -12    1    3    3    0    0 -0.14928487389E+02  0.38266514615E+02 -0.60648667382E+02  0.73249209768E+02  0.00000000000E+00 0.  1.
        -11    1    4    4    0    0 -0.19502463014E+02 -0.18250060664E+02 -0.17515486236E+02  0.31940617338E+02  0.00000000000E+00 0. -1.
         11    1    4    4    0    0  0.42900333028E+02  0.64278376696E+02 -0.17505637744E+02  0.79237589801E+02  0.00000000000E+00 0.  1.
         -3    1    1    2    0  502 -0.17005657620E+02 -0.45472594662E+02  0.72082410071E+02  0.86906979570E+02  0.00000000000E+00 0.  1.
<scales pt_clust_5="13000.00000" pt_clust_6="13000.00000" pt_clust_7="13000.00000" pt_clust_8="13000.00000" pt_clust_9="48.54842"></scales>
<clustering>
<clus scale="   48.548">  1  9  2 -1</clus>
<clus scale="   80.803">  5  6 -1 -1</clus>
<clus scale="   82.220">  2  5  1 -1</clus>
<clus scale="   92.022">  7  8 -1 -1</clus>
<clus scale="   48.548">  1  5  2 -1</clus>
</clustering>
</event>
<event>
 9    1  0.3197504E-005  0.8847190E+02  0.7546771E-02  0.1309681E+00
          3   -1    0    0  502    0 -0.00000000000E+00  0.00000000000E+00  0.34441940649E+02  0.34441940649E+02  0.00000000000E+00 0. -1.
         21   -1    0    0  501  502  0.00000000000E+00 -0.00000000000E+00 -0.89559713450E+03  0.89559713450E+03  0.00000000000E+00 0. -1.
         23    2    1    2    0    0  0.23621573471E+01  0.98681841801E+01 -0.41336565448E+02  0.98013724652E+02  0.88289397613E+02 0.  0.
        -24    2    1    2    0    0  0.30050697904E+02  0.24845700851E+02 -0.46424883042E+03  0.47329769860E+03  0.83446879248E+02 0.  0.
         11    1    4    4    0    0  0.42095878281E+02  0.92050016515E+01 -0.10487916310E+03  0.11338621555E+03  0.00000000000E+00 0. -1.
        -12    1    4    4    0    0 -0.12045180376E+02  0.15640699199E+02 -0.35936966732E+03  0.35991148305E+03  0.00000000000E+00 0.  1.
        -13    1    3    3    0    0  0.33158508298E+02  0.26561235601E+02 -0.46066021344E+02  0.62666292628E+02  0.00000000000E+00 0. -1.
         13    1    3    3    0    0 -0.30796350951E+02 -0.16693051421E+02  0.47294558964E+01  0.35347432025E+02  0.00000000000E+00 0.  1.
          4    1    1    2  501    0 -0.32412855251E+02 -0.34713885031E+02 -0.35556979798E+03  0.35872765190E+03  0.00000000000E+00 0. -1.
<scales pt_clust_5="13000.00000" pt_clust_6="13000.00000" pt_clust_7="13000.00000" pt_clust_8="13000.00000" pt_clust_9="47.49365"></scales>
<clustering>
<clus scale="   47.494">  2  9  1 -1</clus>
<clus scale="   83.447">  5  6 -1 -1</clus>
<clus scale="   83.640">  2  5  1 -1</clus>
<clus scale="   88.289">  7  8 -1 -1</clus>
<clus scale="   47.494">  2  5  1 -1</clus>
</clustering>
</event>
<event>
 9    1  0.3197504E-005  0.9757032E+02  0.7546771E-02  0.1290781E+00
         -2   -1    0    0    0  501 -0.00000000000E+00  0.00000000000E+00  0.70316800174E+02  0.70316800174E+02  0.00000000000E+00 0.  1.
         21   -1    0    0  501  502  0.00000000000E+00 -0.00000000000E+00 -0.21945210373E+03  0.21945210373E+03  0.00000000000E+00 0.  1.
        -24    2    1    2    0    0 -0.38178518934E+02  0.19835241902E+02 -0.33358558586E+02  0.96057489804E+02  0.79140456071E+02 0.  0.
         23    2    1    2    0    0  0.38830956985E+02  0.16821054175E+02 -0.12147529293E+03  0.15660908040E+03  0.89327298102E+02 0.  0.
         13    1    3    3    0    0  0.22502466916E+02  0.43222706559E+01 -0.23197204947E+02  0.32606032544E+02  0.00000000000E+00 0. -1.
        -14    1    3    3    0    0 -0.60680985850E+02  0.15512971247E+02 -0.10161353639E+02  0.63451457260E+02  0.00000000000E+00 0.  1.
        -13    1    4    4    0    0  0.86715121510E+01  0.27027383116E+02 -0.12149791038E+03  0.12476945454E+03  0.00000000000E+00 0.  1.
         13    1    4    4    0    0  0.30159444834E+02 -0.10206328940E+02  0.22617442001E-01  0.31839625857E+02  0.00000000000E+00 0. -1.
         -1    1    1    2    0  502 -0.65243805104E+00 -0.36656296077E+02  0.56985479589E+01  0.37102333705E+02  0.00000000000E+00 0.  1.
<scales pt_clust_5="13000.00000" pt_clust_6="13000.00000" pt_clust_7="13000.00000" pt_clust_8="13000.00000" pt_clust_9="36.66212"></scales>
<clustering>
<clus scale="   36.662">  2  9  1 -1</clus>
<clus scale="   79.140">  5  6 -1 -1</clus>
<clus scale="   88.339">  1  5  2 -1</clus>
<clus scale="   89.327">  7  8 -1 -1</clus>
<clus scale="   36.662">  2  5  1 -1</clus>
</clustering>
</event>
<event>
 9    1  0.3197504E-005  0.1142854E+03  0.7546771E-02  0.1255638E+00
         21   -1    0    0  501  502  0.00000000000E+00  0.00000000000E+00  0.10693954222E+03  0.10693954222E+03  0.00000000000E+00 0.  1.
         -4   -1    0    0    0  501 -0.00000000000E+00 -0.00000000000E+00 -0.18564790039E+03  0.18564790039E+03  0.00000000000E+00 0.  1.
         23    2    1    2    0    0  0.40376018806E+02  0.27778574968E+02 -0.60070558623E+02  0.12095575582E+03  0.92843689772E+02 0.  0.
        -24    2    1    2    0    0 -0.51174560125E+02 -0.49584424630E+02  0.21552099826E+02  0.12464943922E+03  0.99977692120E+02 0.  0.
         13    1    4    4    0    0  0.24229728162E+02 -0.34621176807E+02 -0.66246228337E+01  0.42773721349E+02  0.00000000000E+00 0. -1.
        -14    1    4    4    0    0 -0.75404288287E+02 -0.14963247823E+02  0.28176722660E+02  0.81875717874E+02  0.00000000000E+00 0.  1.
        -11    1    3    3    0    0 -0.17271466745E+02 -0.18272463302E+02 -0.34866408964E+02  0.42986660171E+02  0.00000000000E+00 0. -1.
         11    1    3    3    0    0  0.57647485551E+02  0.46051038270E+02 -0.25204149659E+02  0.77969095648E+02  0.00000000000E+00 0.  1.
         -3    1    1    2    0  502  0.10798541319E+02  0.21805849662E+02 -0.40189899378E+02  0.46982247563E+02  0.00000000000E+00 0.  1.
<scales pt_clust_5="13000.00000" pt_clust_6="13000.00000" pt_clust_7="13000.00000" pt_clust_8="13000.00000" pt_clust_9="24.33319"></scales>
<clustering>
<clus scale="   24.333">  1  9  2 -1</clus>
<clus scale="   92.844">  7  8 -1 -1</clus>
<clus scale="   99.978">  5  6 -1 -1</clus>
<clus scale="  108.100">  2  7  1 -1</clus>
<clus scale="   24.333">  1  5  2 -1</clus>
</clustering>
</event>
<event>
 9    1  0.3197504E-005  0.1911151E+03  0.7546771E-02  0.1177392E+00
          3   -1    0    0  502    0 -0.00000000000E+00  0.00000000000E+00  0.19889907131E+03  0.19889907131E+03  0.00000000000E+00 0. -1.
         21   -1    0    0  501  502  0.00000000000E+00 -0.00000000000E+00 -0.41145724936E+03  0.41145724936E+03  0.00000000000E+00 0. -1.
         23    2    1    2    0    0  0.76712651931E+02 -0.33734292023E+01 -0.19987481447E+03  0.23358828792E+03  0.93366673944E+02 0.  0.
        -24    2    1    2    0    0  0.11140704596E+03  0.68143003277E+02  0.57913784052E+02  0.16565650840E+03  0.83863422347E+02 0.  0.
         11    1    4    4    0    0  0.71619901258E+02 -0.46429017704E+01  0.33386373312E+02  0.79155648668E+02  0.00000000000E+00 0. -1.
        -12    1    4    4    0    0  0.39787144699E+02  0.72785905048E+02  0.24527410740E+02  0.86500859733E+02  0.00000000000E+00 0.  1.
        -13    1    3    3    0    0  0.79766555012E+02  0.31091148447E+02 -0.15304936223E+03  0.17536667326E+03  0.00000000000E+00 0. -1.
         13    1    3    3    0    0 -0.30539030811E+01 -0.34464577649E+02 -0.46825452241E+02  0.58221614664E+02  0.00000000000E+00 0.  1.
          4    1    1    2  501    0 -0.18811969789E+03 -0.64769574075E+02 -0.70597147638E+02  0.21111152435E+03  0.00000000000E+00 0. -1.
<scales pt_clust_5="13000.00000" pt_clust_6="13000.00000" pt_clust_7="13000.00000" pt_clust_8="13000.00000" pt_clust_9="171.73210"></scales>
<clustering>
<clus scale="   83.863">  5  6 -1 -1</clus>
<clus scale="   93.367">  7  8 -1 -1</clus>
<clus scale="  120.887">  1  7  2 -1</clus>
<clus scale="  171.732">  2  9  1 -1</clus>
<clus scale="  171.732">  2  5  1 -1</clus>
</clustering>
</event>
<event>
 9    1  0.3197504E-005  0.2659808E+03  0.7546771E-02  0.1103890E+00
          1   -1    0    0  502    0 -0.00000000000E+00  0.00000000000E+00  0.14112813329E+04  0.14112813329E+04  0.00000000000E+00 0. -1.
         21   -1    0    0  501  502  0.00000000000E+00 -0.00000000000E+00 -0.19582264669E+03  0.19582264669E+03  0.00000000000E+00 0. -1.
         23    2    1    2    0    0  0.94078745149E+02  0.24106022442E+03  0.11283793477E+04  0.11613000531E+04  0.91744313584E+02 0.  0.
        -24    2    1    2    0    0 -0.15401408473E+03 -0.16904308506E+03  0.18788754492E+03  0.30817759258E+03  0.85882455311E+02 0.  0.
         13    1    4    4    0    0 -0.15026216723E+03 -0.17799510311E+03  0.18644033898E+03  0.29836383097E+03  0.00000000000E+00 0. -1.
        -14    1    4    4    0    0 -0.37519175033E+01  0.89520180442E+01  0.14472059409E+01  0.98137616157E+01  0.00000000000E+00 0.  1.
        -11    1    3    3    0    0  0.60931343412E+02  0.93017109666E+02  0.31899175970E+03  0.33781733830E+03  0.00000000000E+00 0. -1.
         11    1    3    3    0    0  0.33147401737E+02  0.14804311475E+03  0.80938758798E+03  0.82348271485E+03  0.00000000000E+00 0.  1.
          2    1    1    2  501    0  0.59935339585E+02 -0.72017139358E+02 -0.10080820641E+03  0.13762633386E+03  0.00000000000E+00 0. -1.
<scales pt_clust_5="13000.00000" pt_clust_6="13000.00000" pt_clust_7="13000.00000" pt_clust_8="13000.00000" pt_clust_9="93.69479"></scales>
<clustering>
<clus scale="   85.882">  5  6 -1 -1</clus>
<clus scale="   91.744">  7  8 -1 -1</clus>
<clus scale="   93.695">  2  9  1 -1</clus>
<clus scale="  264.016">  2  5  1 -1</clus>
<clus scale="   93.695">  2  5  1 -1</clus>
</clustering>
</event>
<event>
 9    1  0.3197504E-005  0.1140519E+03  0.7546771E-02  0.1257036E+00
         21   -1    0    0  501  502  0.00000000000E+00  0.00000000000E+00  0.47389453849E+03  0.47389453849E+03  0.00000000000E+00 0.  1.
         -4   -1    0    0    0  501 -0.00000000000E+00 -0.00000000000E+00 -0.83933097823E+02  0.83933097823E+02  0.00000000000E+00 0.  1.
         23    2    1    2    0    0 -0.72624178269E+02  0.16152263423E+02 -0.21772796727E+02  0.12036478156E+03  0.92078548418E+02 0.  0.
        -24    2    1    2    0    0  0.42330757923E+02  0.94597197960E+01  0.17991872858E+03  0.20227761898E+03  0.81633981171E+02 0.  0.
         11    1    4    4    0    0  0.43840097403E+02  0.24858637593E+02  0.48475888977E+02  0.69927232288E+02  0.00000000000E+00 0. -1.
        -12    1    4    4    0    0 -0.15093394798E+01 -0.15398917797E+02  0.13144283960E+03  0.13235038669E+03  0.00000000000E+00 0.  1.
        -13    1    3    3    0    0  0.20615158251E+02 -0.47209265304E+01 -0.12007717326E+02  0.24319892524E+02  0.00000000000E+00 0. -1.
         13    1    3    3    0    0 -0.93239336520E+02  0.20873189953E+02 -0.97650794011E+01  0.96044889032E+02  0.00000000000E+00 0.  1.
         -3    1    1    2    0  502  0.30293420346E+02 -0.25611983218E+02  0.23181550881E+03  0.23518523577E+03  0.00000000000E+00 0.  1.
<scales pt_clust_5="13000.00000" pt_clust_6="13000.00000" pt_clust_7="13000.00000" pt_clust_8="13000.00000" pt_clust_9="39.66945"></scales>
<clustering>
<clus scale="   39.669">  1  9  2 -1</clus>
<clus scale="   81.634">  5  6 -1 -1</clus>
<clus scale="   92.079">  7  8 -1 -1</clus>
<clus scale="  105.799">  1  5  2 -1</clus>
<clus scale="   39.669">  1  5  2 -1</clus>
</clustering>
</event>
<event>
 9    1  0.3197504E-005  0.9264741E+02  0.7546771E-02  0.1299682E+00
          1   -1    0    0  502    0 -0.00000000000E+00  0.00000000000E+00  0.27710626676E+03  0.27710626676E+03  0.00000000000E+00 0. -1.
         21   -1    0    0  501  502  0.00000000000E+00 -0.00000000000E+00 -0.12205699844E+03  0.12205699844E+03  0.00000000000E+00 0. -1.
         23    2    1    2    0    0 -0.27314034815E+02  0.10705227960E+02  0.18580227170E+03  0.20808231965E+03  0.88966899350E+02 0.  0.
        -24    2    1    2    0    0 -0.56143753338E+01 -0.38445877480E+02  0.46068691413E+02  0.10301621581E+03  0.83548846111E+02 0.  0.
         13    1    4    4    0    0 -0.10544299658E+02 -0.40321574288E+02  0.68385306233E+02  0.80084715876E+02  0.00000000000E+00 0. -1.
        -14    1    4    4    0    0  0.49299243238E+01  0.18756968081E+01 -0.22316614820E+02  0.22931499938E+02  0.00000000000E+00 0.  1.
        -11    1    3    3    0    0 -0.43509433417E+02 -0.11161729464E+02  0.17161218999E+03  0.17739334473E+03  0.00000000000E+00 0.  1.
         11    1    3    3    0    0  0.16195398602E+02  0.21866957423E+02  0.14190081705E+02  0.30688974920E+02  0.00000000000E+00 0. -1.
          2    1    1    2  501    0  0.32928410149E+02  0.27740649521E+02 -0.76821694793E+02  0.88064729726E+02  0.00000000000E+00 0. -1.
<scales pt_clust_5="13000.00000" pt_clust_6="13000.00000" pt_clust_7="13000.00000" pt_clust_8="13000.00000" pt_clust_9="43.05605"></scales>
<clustering>
<clus scale="   43.056">  2  9  1 -1</clus>
<clus scale="   83.549">  5  6 -1 -1</clus>
<clus scale="   87.458">  2  5  1 -1</clus>
<clus scale="   88.967">  7  8 -1 -1</clus>
<clus scale="   43.056">  2  5  1 -1</clus>
</clustering>
</event>
<event>
 9    1  0.3197504E-005  0.2218881E+03  0.7546771E-02  0.1138145E+00
          3   -1    0    0  502    0 -0.00000000000E+00  0.00000000000E+00  0.75237793045E+03  0.75237793045E+03  0.00000000000E+00 0. -1.
         21   -1    0    0  501  502  0.00000000000E+00 -0.00000000000E+00 -0.33585970460E+03  0.33585970460E+03  0.00000000000E+00 0.  1.
         23    2    1    2    0    0  0.20375562499E+02 -0.17062144549E+03 -0.13561889716E+03  0.23616180979E+03  0.88617571212E+02 0.  0.
        -24    2    1    2    0    0 -0.19827329422E+03  0.92569201380E+02 -0.33096174666E+02  0.23544159943E+03  0.80349447534E+02 0.  0.
         11    1    4    4    0    0 -0.44805809097E+02  0.53900301802E+02  0.11466861162E+02  0.71023179090E+02  0.00000000000E+00 0. -1.
        -12    1    4    4    0    0 -0.15346748512E+03  0.38668899578E+02 -0.44563035828E+02  0.16441842033E+03  0.00000000000E+00 0.  1.
        -13    1    3    3    0    0  0.39154385496E+02 -0.25040484762E+02 -0.35451835828E+02  0.58454464708E+02  0.00000000000E+00 0. -1.
         13    1    3    3    0    0 -0.18778822997E+02 -0.14558096073E+03 -0.10016706133E+03  0.17770734508E+03  0.00000000000E+00 0.  1.
          4    1    1    2  501    0  0.17789773172E+03  0.78052244113E+02  0.58523329767E+03  0.61663422583E+03  0.00000000000E+00 0. -1.
<scales pt_clust_5="13000.00000" pt_clust_6="13000.00000" pt_clust_7="13000.00000" pt_clust_8="13000.00000" pt_clust_9="206.82924"></scales>
<clustering>
<clus scale="   80.349">  5  6 -1 -1</clus>
<clus scale="   88.618">  7  8 -1 -1</clus>
<clus scale="  193.339">  1  7  2 -1</clus>
<clus scale="  206.829">  2  9  1 -1</clus>
<clus scale="  206.829">  2  5  1 -1</clus>
</clustering>
</event>
<event>
 9    1  0.3197504E-005  0.9584519E+02  0.7546771E-02  0.1295921E+00
         -2   -1    0    0    0  501 -0.00000000000E+00  0.00000000000E+00  0.48370050876E+03  0.48370050876E+03  0.00000000000E+00 0.  1.
         21   -1    0    0  501  502  0.00000000000E+00 -0.00000000000E+00 -0.56141541225E+02  0.56141541225E+02  0.00000000000E+00 0.  1.
         23    2    1    2    0    0  0.25185264040E+02  0.24951279298E+02  0.35400942186E+03  0.36754867947E+03  0.92263194960E+02 0.  0.
        -24    2    1    2    0    0 -0.57171109264E+01 -0.32116478807E+01  0.10291776585E+03  0.13089152374E+03  0.80607223120E+02 0.  0.
         13    1    4    4    0    0 -0.16666625862E+02 -0.29897212632E+02  0.95002420414E+02  0.10098059034E+03  0.00000000000E+00 0. -1.
        -14    1    4    4    0    0  0.10949514936E+02  0.26685564751E+02  0.79153454400E+01  0.29910933400E+02  0.00000000000E+00 0.  1.
        -11    1    3    3    0    0 -0.28842360272E+02  0.21201620290E+02  0.72249968454E+02  0.80631559520E+02  0.00000000000E+00 0. -1.
         11    1    3    3    0    0  0.54027624312E+02  0.37496590080E+01  0.28175945341E+03  0.28691711995E+03  0.00000000000E+00 0.  1.
         -1    1    1    2    0  502 -0.19468153113E+02 -0.21739631418E+02 -0.29368220185E+02  0.41401846778E+02  0.00000000000E+00 0.  1.
<scales pt_clust_5="13000.00000" pt_clust_6="13000.00000" pt_clust_7="13000.00000" pt_clust_8="13000.00000" pt_clust_9="29.18254"></scales>
<clustering>
<clus scale="   29.183">  2  9  1 -1</clus>
<clus scale="   80.607">  5  6 -1 -1</clus>
<clus scale="   84.684">  2  5  1 -1</clus>
<clus scale="   92.263">  7  8 -1 -1</clus>
<clus scale="   29.183">  2  5  1 -1</clus>
</clustering>
</event>
<event>
 9    1  0.3197504E-005  0.1401486E+03  0.7546771E-02  0.1216252E+00
          1   -1    0    0  502    0 -0.00000000000E+00  0.00000000000E+00  0.34091755404E+03  0.34091755404E+03  0.00000000000E+00 0. -1.
         21   -1    0    0  501  502  0.00000000000E+00 -0.00000000000E+00 -0.12085503029E+03  0.12085503029E+03  0.00000000000E+00 0. -1.
         23    2    1    2    0    0 -0.65405316650E+02 -0.90148977142E+02  0.18516107872E+03  0.23525448192E+03  0.93034147847E+02 0.  0.
        -24    2    1    2    0    0  0.83117446676E+02  0.38277971949E+02 -0.45600471254E+02  0.12912775763E+03  0.78872439631E+02 0.  0.
         13    1    4    4    0    0  0.69564721385E+02 -0.73254220565E+01 -0.12215320499E+02  0.71007931421E+02  0.00000000000E+00 0. -1.
        -14    1    4    4    0    0  0.13552725290E+02  0.45603394006E+02 -0.33385150755E+02  0.58119826209E+02  0.00000000000E+00 0.  1.
        -13    1    3    3    0    0  0.23039044117E+02 -0.85169536451E+01  0.36180265340E+02  0.43730397361E+02  0.00000000000E+00 0.  1.
         13    1    3    3    0    0 -0.88444360767E+02 -0.81632023497E+02  0.14898081338E+03  0.19152408456E+03  0.00000000000E+00 0. -1.
          2    1    1    2  501    0 -0.17712130026E+02  0.51871005193E+02  0.80501916282E+02  0.97390344772E+02  0.00000000000E+00 0. -1.
<scales pt_clust_5="13000.00000" pt_clust_6="13000.00000" pt_clust_7="13000.00000" pt_clust_8="13000.00000" pt_clust_9="54.81171"></scales>
<clustering>
<clus scale="   54.812">  2  9  1 -1</clus>
<clus scale="   78.872">  5  6 -1 -1</clus>
<clus scale="   93.034">  7  8 -1 -1</clus>
<clus scale="  131.176">  2  5  1 -1</clus>
<clus scale="   54.812">  2  5  1 -1</clus>
</clustering>
</event>
<event>
 9    1  0.3197504E-005  0.1328051E+03  0.7546771E-02  0.1227010E+00
          1   -1    0    0  502    0 -0.00000000000E+00  0.00000000000E+00  0.39815540418E+03  0.39815540418E+03  0.00000000000E+00 0. -1.
         21   -1    0    0  501  502  0.00000000000E+00 -0.00000000000E+00 -0.10677448231E+03  0.10677448231E+03  0.00000000000E+00 0.  1.
         23    2    1    2    0    0 -0.10354018093E+03  0.37512645485E+02  0.21709483825E+03  0.26116928970E+03  0.94612163325E+02 0.  0.
        -24    2    1    2    0    0  0.37248499017E+02 -0.30784710509E+01 -0.47745926716E+02  0.10067981190E+03  0.80373026211E+02 0.  0.
         13    1    4    4    0    0  0.14834547426E+02  0.38486906032E+02 -0.19176802250E+02  0.45486871488E+02  0.00000000000E+00 0. -1.
        -14    1    4    4    0    0  0.22413951591E+02 -0.41565377083E+02 -0.28569124467E+02  0.55192940407E+02  0.00000000000E+00 0.  1.
        -13    1    3    3    0    0 -0.81389737179E+02  0.68935516191E+02  0.15565896119E+03  0.18869580522E+03  0.00000000000E+00 0. -1.
         13    1    3    3    0    0 -0.22150443751E+02 -0.31422870706E+02  0.61435877059E+02  0.72473484473E+02  0.00000000000E+00 0.  1.
          2    1    1    2  501    0  0.66291681912E+02 -0.34434174434E+02  0.12203201034E+03  0.14308078490E+03  0.00000000000E+00 0. -1.
<scales pt_clust_5="13000.00000" pt_clust_6="13000.00000" pt_clust_7="13000.00000" pt_clust_8="13000.00000" pt_clust_9="74.70144"></scales>
<clustering>
<clus scale="   74.701">  2  9  1 -1</clus>
<clus scale="   80.373">  5  6 -1 -1</clus>
<clus scale="   94.612">  7  8 -1 -1</clus>
<clus scale="  123.067">  2  5  1 -1</clus>
<clus scale="   74.701">  2  5  1 -1</clus>
</clustering>
</event>
<event>
 9    1  0.3197504E-005  0.1342298E+03  0.7546771E-02  0.1223491E+00
         21   -1    0    0  501  502  0.00000000000E+00  0.00000000000E+00  0.52326002681E+03  0.52326002681E+03  0.00000000000E+00 0.  1.
         -2   -1    0    0    0  501 -0.00000000000E+00 -0.00000000000E+00 -0.95653151053E+02  0.95653151053E+02  0.00000000000E+00 0.  1.
         23    2    1    2    0    0 -0.11157338186E+03 -0.95726559614E+01 -0.98597742519E+01  0.14395181063E+03  0.89914700435E+02 0.  0.
        -24    2    1    2    0    0  0.52575282838E+02  0.49939603473E+02  0.20772598895E+03  0.23435580312E+03  0.80712028900E+02 0.  0.
         13    1    4    4    0    0  0.16280536813E+02 -0.14820334979E+02  0.12109733875E+02  0.25126556914E+02  0.00000000000E+00 0. -1.
        -14    1    4    4    0    0  0.36294746025E+02  0.64759938453E+02  0.19561625508E+03  0.20922924621E+03  0.00000000000E+00 0.  1.
        -13    1    3    3    0    0 -0.67223096394E+02  0.37117105436E+02  0.77817478650E+01  0.77182768832E+02  0.00000000000E+00 0. -1.
         13    1    3    3    0    0 -0.44350285464E+02 -0.46689761398E+02 -0.17641522117E+02  0.66769041799E+02  0.00000000000E+00 0.  1.
         -1    1    1    2    0  502  0.58998099020E+02 -0.40366947512E+02  0.22974066105E+03  0.24060556411E+03  0.00000000000E+00 0.  1.
<scales pt_clust_5="13000.00000" pt_clust_6="13000.00000" pt_clust_7="13000.00000" pt_clust_8="13000.00000" pt_clust_9="71.48613"></scales>
<clustering>
<clus scale="   71.486">  1  9  2 -1</clus>
<clus scale="   80.712">  5  6 -1 -1</clus>
<clus scale="   89.915">  7  8 -1 -1</clus>
<clus scale="  128.247">  1  5  2 -1</clus>
<clus scale="   71.486">  1  5  2 -1</clus>
</clustering>
</event>
<event>
 9    1  0.3197504E-005  0.1347354E+03  0.7546771E-02  0.1224014E+00
         21   -1    0    0  501  502  0.00000000000E+00  0.00000000000E+00  0.41069914290E+02  0.41069914290E+02  0.00000000000E+00 0. -1.
          1   -1    0    0  502    0 -0.00000000000E+00 -0.00000000000E+00 -0.85647241865E+03  0.85647241865E+03  0.00000000000E+00 0. -1.
         23    2    1    2    0    0  0.74201449710E+02 -0.77381693382E+02 -0.48672228713E+03  0.50729924437E+03  0.94658105533E+02 0.  0.
        -24    2    1    2    0    0 -0.94066113783E+02  0.10436883521E+02 -0.27598368302E+03  0.30276087801E+03  0.80868990715E+02 0.  0.
         11    1    4    4    0    0 -0.10556657714E+03  0.16273378901E+02 -0.26536400287E+03  0.28605450370E+03  0.00000000000E+00 0. -1.
        -12    1    4    4    0    0  0.11500463362E+02 -0.58364953806E+01 -0.10619680153E+02  0.16706374305E+02  0.00000000000E+00 0.  1.
        -13    1    3    3    0    0  0.10167670775E+02 -0.33384180920E+02 -0.36791668511E+02  0.50710077268E+02  0.00000000000E+00 0.  1.
         13    1    3    3    0    0  0.64033778934E+02 -0.43997512463E+02 -0.44993061862E+03  0.45658916711E+03  0.00000000000E+00 0. -1.
          2    1    1    2  501    0  0.19864664073E+02  0.66944809862E+02 -0.52696534205E+02  0.87482210554E+02  0.00000000000E+00 0. -1.
<scales pt_clust_5="13000.00000" pt_clust_6="13000.00000" pt_clust_7="13000.00000" pt_clust_8="13000.00000" pt_clust_9="69.82988"></scales>
<clustering>
<clus scale="   69.830">  1  9  2 -1</clus>
<clus scale="   80.869">  5  6 -1 -1</clus>
<clus scale="   94.658">  7  8 -1 -1</clus>
<clus scale="  125.432">  1  5  2 -1</clus>
<clus scale="   69.830">  1  5  2 -1</clus>
</clustering>
</event>
<event>
 9    1  0.3197504E-005  0.9250690E+02  0.7546771E-02  0.1302989E+00
         -4   -1    0    0    0  501 -0.00000000000E+00  0.00000000000E+00  0.74539484405E+03  0.74539484405E+03  0.00000000000E+00 0.  1.
         21   -1    0    0  501  502  0.00000000000E+00 -0.00000000000E+00 -0.36940676642E+02  0.36940676642E+02  0.00000000000E+00 0. -1.
        -24    2    1    2    0    0  0.12040771026E+02 -0.75034132040E+01  0.62696513294E+03  0.63234626127E+03  0.81087821720E+02 0.  0.
         23    2    1    2    0    0 -0.19702362888E+02  0.33330558142E+02  0.63935966368E+02  0.11783569656E+03  0.91095194051E+02 0.  0.
         13    1    3    3    0    0 -0.19745002471E+02 -0.20507358806E+02  0.92563074756E+02  0.96841828236E+02  0.00000000000E+00 0. -1.
        -14    1    3    3    0    0  0.31785773497E+02  0.13003945602E+02  0.53440205819E+03  0.53550443303E+03  0.00000000000E+00 0.  1.
        -11    1    4    4    0    0  0.35378175971E+02  0.24324536031E+02  0.31853888808E+02  0.53459972132E+02  0.00000000000E+00 0.  1.
         11    1    4    4    0    0 -0.55080538858E+02  0.90060221111E+01  0.32082077560E+02  0.64375724429E+02  0.00000000000E+00 0. -1.
         -3    1    1    2    0  502  0.76615918616E+01 -0.25827144938E+02  0.17553068098E+02  0.32153562869E+02  0.00000000000E+00 0.  1.
<scales pt_clust_5="13000.00000" pt_clust_6="13000.00000" pt_clust_7="13000.00000" pt_clust_8="13000.00000" pt_clust_9="26.93959"></scales>
<clustering>
<clus scale="   26.940">  2  9  1 -1</clus>
<clus scale="   81.088">  5  6 -1 -1</clus>
<clus scale="   82.671">  1  5  2 -1</clus>
<clus scale="   91.095">  7  8 -1 -1</clus>
<clus scale="   26.940">  2  5  1 -1</clus>
</clustering>
</event>
<event>
 9    1  0.3197504E-005  0.1063702E+03  0.7546771E-02  0.1270837E+00
         21   -1    0    0  501  502  0.00000000000E+00  0.00000000000E+00  0.18727004935E+03  0.18727004935E+03  0.00000000000E+00 0.  1.
          1   -1    0    0  502    0 -0.00000000000E+00 -0.00000000000E+00 -0.87796858920E+02  0.87796858920E+02  0.00000000000E+00 0. -1.
         23    2    1    2    0    0 -0.30167092600E+02  0.56319149512E+02  0.43317226697E+02  0.11744252037E+03  0.88512504113E+02 0.  0.
        -24    2    1    2    0    0 -0.13200288974E+02 -0.60403867039E+02  0.51977610201E+02  0.11386512213E+03  0.80254092071E+02 0.  0.
         13    1    4    4    0    0 -0.30694693996E+02 -0.52053424301E+02  0.22261928614E+01  0.60470481689E+02  0.00000000000E+00 0. -1.
        -14    1    4    4    0    0  0.17494405022E+02 -0.83504427378E+01  0.49751417340E+02  0.53394640446E+02  0.00000000000E+00 0.  1.
        -13    1    3    3    0    0 -0.63224511194E+01  0.76658065384E+02  0.23777591433E+02  0.80509665450E+02  0.00000000000E+00 0. -1.
         13    1    3    3    0    0 -0.23844641481E+02 -0.20338915872E+02  0.19539635264E+02  0.36932854919E+02  0.00000000000E+00 0.  1.
          2    1    1    2  501    0  0.43367381574E+02  0.40847175274E+01  0.41783535287E+01  0.43759265763E+02  0.00000000000E+00 0. -1.
<scales pt_clust_5="13000.00000" pt_clust_6="13000.00000" pt_clust_7="13000.00000" pt_clust_8="13000.00000" pt_clust_9="43.55935"></scales>
<clustering>
<clus scale="   43.559">  1  9  2 -1</clus>
<clus scale="   80.254">  5  6 -1 -1</clus>
<clus scale="   88.513">  7  8 -1 -1</clus>
<clus scale="   99.604">  1  5  2 -1</clus>
<clus scale="   43.559">  1  5  2 -1</clus>
</clustering>
</event>
<event>
 9    1  0.3197504E-005  0.9321139E+02  0.7546771E-02  0.1301123E+00
         21   -1    0    0  501  502  0.00000000000E+00  0.00000000000E+00  0.22764300256E+03  0.22764300256E+03  0.00000000000E+00 0. -1.
          1   -1    0    0  502    0 -0.00000000000E+00 -0.00000000000E+00 -0.23599302923E+03  0.23599302923E+03  0.00000000000E+00 0. -1.
         23    2    1    2    0    0 -0.12514593099E+02 -0.26109249261E+02 -0.11263481992E+03  0.14681661506E+03  0.89611427068E+02 0.  0.
        -24    2    1    2    0    0  0.41838772107E+02 -0.38951524400E+02  0.18483303995E+03  0.20920514355E+03  0.79597960569E+02 0.  0.
         13    1    4    4    0    0  0.60083002077E+02 -0.46863434439E+02  0.12764927511E+03  0.14866232227E+03  0.00000000000E+00 0. -1.
        -14    1    4    4    0    0 -0.18244229970E+02  0.79119100389E+01  0.57183764844E+02  0.60542821287E+02  0.00000000000E+00 0.  1.
        -13    1    3    3    0    0  0.27019232964E+02 -0.19293794940E+02 -0.71514606439E+01  0.33962226995E+02  0.00000000000E+00 0. -1.
         13    1    3    3    0    0 -0.39533826063E+02 -0.68154543210E+01 -0.10548335927E+03  0.11285438806E+03  0.00000000000E+00 0.  1.
          2    1    1    2  501    0 -0.29324179008E+02  0.65060773662E+02 -0.80548246711E+02  0.10761427318E+03  0.00000000000E+00 0. -1.
<scales pt_clust_5="13000.00000" pt_clust_6="13000.00000" pt_clust_7="13000.00000" pt_clust_8="13000.00000" pt_clust_9="71.36397"></scales>
<clustering>
<clus scale="   71.364">  1  9  2 -1</clus>
<clus scale="   79.598">  5  6 -1 -1</clus>
<clus scale="   83.630">  1  5  2 -1</clus>
<clus scale="   89.611">  7  8 -1 -1</clus>
<clus scale="   71.364">  1  5  2 -1</clus>
</clustering>
</event>
<event>
 9    1  0.3197504E-005  0.1667212E+03  0.7546771E-02  0.1199953E+00
          1   -1    0    0  502    0 -0.00000000000E+00  0.00000000000E+00  0.72984010551E+03  0.72984010551E+03  0.00000000000E+00 0. -1.
         21   -1    0    0  501  502  0.00000000000E+00 -0.00000000000E+00 -0.67843194009E+02  0.67843194009E+02  0.00000000000E+00 0.  1.
         23    2    1    2    0    0  0.18805003063E+02 -0.59112729551E+02  0.27342332956E+03  0.29490175536E+03  0.91426392441E+02 0.  0.
        -24    2    1    2    0    0  0.13332885799E+03  0.58005329333E+02  0.21933628764E+03  0.27521353279E+03  0.80578402504E+02 0.  0.
         11    1    4    4    0    0  0.70707863840E+02  0.39725998349E+02  0.18386742386E+03  0.20096016150E+03  0.00000000000E+00 0. -1.
        -12    1    4    4    0    0  0.62620994150E+02  0.18279330984E+02  0.35468863780E+02  0.74253371287E+02  0.00000000000E+00 0.  1.
        -13    1    3    3    0    0 -0.19856976653E+02  0.14879154789E+02  0.40812799203E+02  0.47763724183E+02  0.00000000000E+00 0.  1.
         13    1    3    3    0    0  0.38661979717E+02 -0.73991884340E+02  0.23261053036E+03  0.24713803118E+03  0.00000000000E+00 0. -1.
          2    1    1    2  501    0 -0.15213386105E+03  0.11074002183E+01  0.16923729429E+03  0.22756801136E+03  0.00000000000E+00 0. -1.
<scales pt_clust_5="13000.00000" pt_clust_6="13000.00000" pt_clust_7="13000.00000" pt_clust_8="13000.00000" pt_clust_9="145.95571"></scales>
<clustering>
<clus scale="   80.578">  5  6 -1 -1</clus>
<clus scale="   91.426">  7  8 -1 -1</clus>
<clus scale="  110.484">  1  7  2 -1</clus>
<clus scale="  145.956">  2  9  1 -1</clus>
<clus scale="  145.956">  2  5  1 -1</clus>
</clustering>
</event>
<event>
 9    1  0.3197504E-005  0.1053643E+03  0.7546771E-02  0.1273746E+00
         -2   -1    0    0    0  501 -0.00000000000E+00  0.00000000000E+00  0.57767852550E+03  0.57767852550E+03  0.00000000000E+00 0.  1.
         21   -1    0    0  501  502  0.00000000000E+00 -0.00000000000E+00 -0.53426424985E+02  0.53426424985E+02  0.00000000000E+00 0. -1.
        -24    2    1    2    0    0  0.26240342319E+02  0.51671143409E+02  0.41544964029E+03  0.42711734436E+03  0.80450976425E+02 0.  0.
         23    2    1    2    0    0 -0.54902244099E+02 -0.12387890273E+02  0.11283719582E+03  0.15519254816E+03  0.90469762963E+02 0.  0.
         13    1    3    3    0    0 -0.15484958729E+02  0.54811959615E+02  0.22156267423E+03  0.22876659170E+03  0.00000000000E+00 0. -1.
        -14    1    3    3    0    0  0.41725301048E+02 -0.31408162062E+01  0.19388696606E+03  0.19835075266E+03  0.00000000000E+00 0.  1.
        -11    1    4    4    0    0 -0.25733185840E+02 -0.15695820864E+01  0.12043837950E+03  0.12316681249E+03  0.00000000000E+00 0.  1.
         11    1    4    4    0    0 -0.29169058259E+02 -0.10818308186E+02 -0.76011836823E+01  0.32025735669E+02  0.00000000000E+00 0. -1.
         -1    1    1    2    0  502  0.28661901780E+02 -0.39283253136E+02 -0.40347355996E+01  0.48795057966E+02  0.00000000000E+00 0.  1.
<scales pt_clust_5="13000.00000" pt_clust_6="13000.00000" pt_clust_7="13000.00000" pt_clust_8="13000.00000" pt_clust_9="48.62796"></scales>
<clustering>
<clus scale="   48.628">  2  9  1 -1</clus>
<clus scale="   80.451">  5  6 -1 -1</clus>
<clus scale="   90.470">  7  8 -1 -1</clus>
<clus scale="   96.898">  1  5  2 -1</clus>
<clus scale="   48.628">  2  5  1 -1</clus>
</clustering>
</event>
<event>
 9    1  0.3197504E-005  0.1084161E+03  0.7546771E-02  0.1269499E+00
          1   -1    0    0  502    0 -0.00000000000E+00  0.00000000000E+00  0.32574515047E+03  0.32574515047E+03  0.00000000000E+00 0. -1.
         21   -1    0    0  501  502  0.00000000000E+00 -0.00000000000E+00 -0.78939713396E+02  0.78939713396E+02  0.00000000000E+00 0. -1.
        -24    2    1    2    0    0 -0.28931805670E+02  0.38815720291E+02  0.55451624110E+02  0.10622488115E+03  0.76584157875E+02 0.  0.
         23    2    1    2    0    0  0.97582026131E+02  0.15913885461E+02  0.79233718421E+02  0.15605528436E+03  0.91103051905E+02 0.  0.
         11    1    3    3    0    0 -0.10551334016E+02  0.56045309713E+02  0.15681425840E+02  0.59146551098E+02  0.00000000000E+00 0. -1.
        -12    1    3    3    0    0 -0.18380471653E+02 -0.17229589422E+02  0.39770198270E+02  0.47078330050E+02  0.00000000000E+00 0.  1.
        -11    1    4    4    0    0  0.76912509493E+02  0.43945288212E+02  0.25780720794E+02  0.92257075811E+02  0.00000000000E+00 0.  1.
         11    1    4    4    0    0  0.20669516637E+02 -0.28031402751E+02  0.53452997628E+02  0.63798208545E+02  0.00000000000E+00 0. -1.
          2    1    1    2  501    0 -0.68650220461E+02 -0.54729605752E+02  0.11212009454E+03  0.14240469836E+03  0.00000000000E+00 0. -1.
<scales pt_clust_5="13000.00000" pt_clust_6="13000.00000" pt_clust_7="13000.00000" pt_clust_8="13000.00000" pt_clust_9="87.79630"></scales>
<clustering>
<clus scale="   76.584">  5  6 -1 -1</clus>
<clus scale="   87.796">  2  9  1 -1</clus>
<clus scale="   91.103">  7  8 -1 -1</clus>
<clus scale="   96.537">  1  5  2 -1</clus>
<clus scale="   87.796">  2  5  1 -1</clus>
</clustering>
</event>
<event>
 9    1  0.3197504E-005  0.9341449E+02  0.7546771E-02  0.1304515E+00
          3   -1    0    0  502    0 -0.00000000000E+00  0.00000000000E+00  0.28651717696E+03  0.28651717696E+03  0.00000000000E+00 0. -1.
         21   -1    0    0  501  502  0.00000000000E+00 -0.00000000000E+00 -0.49252798561E+02  0.49252798561E+02  0.00000000000E+00 0. -1.
        -24    2    1    2    0    0 -0.18569124543E+02  0.12157195910E+02  0.13567570882E+03  0.15685109969E+03  0.75509997422E+02 0.  0.
         23    2    1    2    0    0  0.17908305973E+02  0.96069174132E+01  0.21549729946E+02  0.95971029765E+02  0.91285526829E+02 0.  0.
         13    1    3    3    0    0  0.83586569796E+01  0.31200122502E+02  0.23545918166E+02  0.39971553046E+02  0.00000000000E+00 0. -1.
        -14    1    3    3    0    0 -0.26927781523E+02 -0.19042926592E+02  0.11212979066E+03  0.11687954665E+03  0.00000000000E+00 0.  1.
        -13    1    4    4    0    0  0.52010776851E+01 -0.22872835362E+02  0.47179867446E+02  0.52689256010E+02  0.00000000000E+00 0.  1.
         13    1    4    4    0    0  0.12707228288E+02  0.32479752775E+02 -0.25630137500E+02  0.43281773755E+02  0.00000000000E+00 0. -1.
          4    1    1    2  501    0  0.66081857014E+00 -0.21764113323E+02  0.80038939624E+02  0.82947846061E+02  0.00000000000E+00 0. -1.
<scales pt_clust_5="13000.00000" pt_clust_6="13000.00000" pt_clust_7="13000.00000" pt_clust_8="13000.00000" pt_clust_9="21.77415"></scales>
<clustering>
<clus scale="   21.774">  2  9  1 -1</clus>
<clus scale="   75.510">  5  6 -1 -1</clus>
<clus scale="   78.070">  1  5  2 -1</clus>
<clus scale="   91.286">  7  8 -1 -1</clus>
<clus scale="   21.774">  2  5  1 -1</clus>
</clustering>
</event>
<event>
 9    1  0.3197504E-005  0.9243580E+02  0.7546771E-02  0.1301956E+00
         21   -1    0    0  501  502  0.00000000000E+00  0.00000000000E+00  0.19604185596E+03  0.19604185596E+03  0.00000000000E+00 0. -1.
         -4   -1    0    0    0  501 -0.00000000000E+00 -0.00000000000E+00 -0.16714364951E+03  0.16714364951E+03  0.00000000000E+00 0.  1.
        -24    2    1    2    0    0 -0.38161800059E+01  0.34556959956E+02 -0.10993530112E+03  0.14020742135E+03  0.79772199788E+02 0.  0.
         23    2    1    2    0    0  0.41611865554E+02  0.18903285750E+02  0.46200804320E+02  0.10954383256E+03  0.88184212673E+02 0.  0.
         11    1    3    3    0    0  0.30363691953E+02  0.31263343114E+02 -0.29162228891E+02  0.52438402012E+02  0.00000000000E+00 0. -1.
        -12    1    3    3    0    0 -0.34179871958E+02  0.32936168415E+01 -0.80773072224E+02  0.87769019338E+02  0.00000000000E+00 0.  1.
        -13    1    4    4    0    0 -0.92383975849E+01 -0.28264472365E+02  0.17325037258E+02  0.34414899448E+02  0.00000000000E+00 0.  1.
         13    1    4    4    0    0  0.50850263139E+02  0.47167758115E+02  0.28875767062E+02  0.75128933111E+02  0.00000000000E+00 0. -1.
         -3    1    1    2    0  502 -0.37795685548E+02 -0.53460245706E+02  0.92632703246E+02  0.11343425156E+03  0.00000000000E+00 0.  1.
<scales pt_clust_5="13000.00000" pt_clust_6="13000.00000" pt_clust_7="13000.00000" pt_clust_8="13000.00000" pt_clust_9="65.47146"></scales>
<clustering>
<clus scale="   65.471">  1  9  2 -1</clus>
<clus scale="   79.772">  5  6 -1 -1</clus>
<clus scale="   84.448">  2  5  1 -1</clus>
<clus scale="   88.184">  7  8 -1 -1</clus>
<clus scale="   65.471">  1  5  2 -1</clus>
</clustering>
</event>
<event>
 9    1  0.3197504E-005  0.1715257E+03  0.7546771E-02  0.1195735E+00
         21   -1    0    0  501  502  0.00000000000E+00  0.00000000000E+00  0.66439653873E+03  0.66439653873E+03  0.00000000000E+00 0. -1.
         -4   -1    0    0    0  501 -0.00000000000E+00 -0.00000000000E+00 -0.91174668912E+02  0.91174668912E+02  0.00000000000E+00 0.  1.
        -24    2    1    2    0    0  0.11115041147E+02  0.74083213853E+02  0.22952877912E+02  0.11357175905E+03  0.82218265220E+02 0.  0.
         23    2    1    2    0    0 -0.88210487901E+02  0.84996696061E+02  0.26966087936E+03  0.31035047984E+03  0.92708694082E+02 0.  0.
         13    1    3    3    0    0 -0.16291925448E+02  0.72590573208E+02 -0.47838723681E+01  0.74550007299E+02  0.00000000000E+00 0. -1.
        -14    1    3    3    0    0  0.27406966595E+02  0.14926406454E+01  0.27736750280E+02  0.39021751756E+02  0.00000000000E+00 0.  1.
        -13    1    4    4    0    0  0.84585048864E+01  0.24373164166E+02  0.11796996281E+02  0.28368407739E+02  0.00000000000E+00 0.  1.
         13    1    4    4    0    0 -0.96668992788E+02  0.60623531895E+02  0.25786388308E+03  0.28198207210E+03  0.00000000000E+00 0. -1.
         -3    1    1    2    0  502  0.77095446755E+02 -0.15907990991E+03  0.28060811255E+03  0.33164896875E+03  0.00000000000E+00 0.  1.
<scales pt_clust_5="13000.00000" pt_clust_6="13000.00000" pt_clust_7="13000.00000" pt_clust_8="13000.00000" pt_clust_9="144.31283"></scales>
<clustering>
<clus scale="   82.218">  5  6 -1 -1</clus>
<clus scale="   92.709">  7  8 -1 -1</clus>
<clus scale="  111.228">  2  5  1 -1</clus>
<clus scale="  144.313">  1  9  2 -1</clus>
<clus scale="  144.313">  1  5  2 -1</clus>
</clustering>
</event>
<event>
 9    1  0.3197504E-005  0.3850698E+03  0.7546771E-02  0.1049257E+00
         -2   -1    0    0    0  501 -0.00000000000E+00  0.00000000000E+00  0.17458409566E+03  0.17458409566E+03  0.00000000000E+00 0.  1.
         21   -1    0    0  501  502  0.00000000000E+00 -0.00000000000E+00 -0.13875753201E+04  0.13875753201E+04  0.00000000000E+00 0.  1.
         23    2    1    2    0    0 -0.30217425039E+03 -0.31606842822E+03 -0.28704281387E+03  0.53077212048E+03  0.90094050676E+02 0.  0.
        -24    2    1    2    0    0  0.21614530322E+03  0.18248870570E+03 -0.56623927195E+03  0.63815048822E+03  0.81167805842E+02 0.  0.
         11    1    4    4    0    0  0.15392140781E+03  0.11810415951E+03 -0.45982079025E+03  0.49907469523E+03  0.00000000000E+00 0. -1.
        -12    1    4    4    0    0  0.62223895405E+02  0.64384546190E+02 -0.10641848171E+03  0.13907579299E+03  0.00000000000E+00 0.  1.
        -13    1    3    3    0    0 -0.27977034266E+03 -0.31828794826E+03 -0.26917392944E+03  0.50202914948E+03  0.00000000000E+00 0.  1.
         13    1    3    3    0    0 -0.22403907732E+02  0.22195200442E+01 -0.17868884428E+02  0.28742970994E+02  0.00000000000E+00 0. -1.
         -1    1    1    2    0  502  0.86028947174E+02  0.13357972252E+03 -0.35970913861E+03  0.39323680705E+03  0.00000000000E+00 0.  1.
<scales pt_clust_5="13000.00000" pt_clust_6="13000.00000" pt_clust_7="13000.00000" pt_clust_8="13000.00000" pt_clust_9="158.88525"></scales>
<clustering>
<clus scale="   81.168">  5  6 -1 -1</clus>
<clus scale="   90.094">  7  8 -1 -1</clus>
<clus scale="  158.885">  2  9  1 -1</clus>
<clus scale="  383.080">  2  5  1 -1</clus>
<clus scale="  158.885">  2  5  1 -1</clus>
</clustering>
</event>
<event>
 9    1  0.3197504E-005  0.1328109E+03  0.7546771E-02  0.1225647E+00
         21   -1    0    0  501  502  0.00000000000E+00  0.00000000000E+00  0.17689004035E+03  0.17689004035E+03  0.00000000000E+00 0. -1.
          1   -1    0    0  502    0 -0.00000000000E+00 -0.00000000000E+00 -0.24992563326E+03  0.24992563326E+03  0.00000000000E+00 0. -1.
        -24    2    1    2    0    0 -0.35297719516E+02  0.76136277007E+02 -0.51555856168E+02  0.12796607222E+03  0.81698516838E+02 0.  0.
         23    2    1    2    0    0  0.10262161624E+03 -0.10204956371E+03  0.67916416572E+02  0.18397716028E+03  0.91047494696E+02 0.  0.
         11    1    3    3    0    0 -0.46416028358E+02  0.43870457348E+02  0.26377145349E+01  0.63922001333E+02  0.00000000000E+00 0. -1.
        -12    1    3    3    0    0  0.11118308841E+02  0.32265819659E+02 -0.54193570703E+02  0.64044070883E+02  0.00000000000E+00 0.  1.
        -13    1    4    4    0    0  0.11712046179E+03 -0.82939172703E+02  0.70418711779E+02  0.15985901259E+03  0.00000000000E+00 0. -1.
         13    1    4    4    0    0 -0.14498845544E+02 -0.19110391007E+02 -0.25022952075E+01  0.24118147688E+02  0.00000000000E+00 0.  1.
          2    1    1    2  501    0 -0.67323896728E+02  0.25913286704E+02 -0.89396153320E+02  0.11487244111E+03  0.00000000000E+00 0. -1.
<scales pt_clust_5="13000.00000" pt_clust_6="13000.00000" pt_clust_7="13000.00000" pt_clust_8="13000.00000" pt_clust_9="72.13883"></scales>
<clustering>
<clus scale="   72.139">  1  9  2 -1</clus>
<clus scale="   81.699">  5  6 -1 -1</clus>
<clus scale="   91.047">  7  8 -1 -1</clus>
<clus scale="  126.585">  2  5  1 -1</clus>
<clus scale="   72.139">  1  5  2 -1</clus>
</clustering>
</event>
<event>
 9    1  0.3197504E-005  0.2476181E+03  0.7546771E-02  0.1114819E+00
          1   -1    0    0  502    0 -0.00000000000E+00  0.00000000000E+00  0.26889696038E+03  0.26889696038E+03  0.00000000000E+00 0. -1.
         21   -1    0    0  501  502  0.00000000000E+00 -0.00000000000E+00 -0.21194479922E+03  0.21194479922E+03  0.00000000000E+00 0. -1.
        -24    2    1    2    0    0  0.69299447009E+02  0.72656726245E+02 -0.43340833343E+02  0.13617039485E+03  0.81132825510E+02 0.  0.
         23    2    1    2    0    0  0.34839832816E+02  0.64998347024E+02 -0.36961372996E+02  0.12414320283E+03  0.92772801232E+02 0.  0.
         11    1    3    3    0    0  0.53116020539E+02  0.18853274930E+02 -0.55041605959E+02  0.78780302106E+02  0.00000000000E+00 0. -1.
        -12    1    3    3    0    0  0.16183426471E+02  0.53803451315E+02  0.11700772616E+02  0.57390092747E+02  0.00000000000E+00 0.  1.
        -13    1    4    4    0    0  0.49631921177E+02 -0.18338273029E+01 -0.10543617061E+02  0.50772614499E+02  0.00000000000E+00 0. -1.
         13    1    4    4    0    0 -0.14792088361E+02  0.66832174327E+02 -0.26417755935E+02  0.73370588331E+02  0.00000000000E+00 0.  1.
          2    1    1    2  501    0 -0.10413927982E+03 -0.13765507327E+03  0.13725436751E+03  0.22052816192E+03  0.00000000000E+00 0. -1.
<scales pt_clust_5="13000.00000" pt_clust_6="13000.00000" pt_clust_7="13000.00000" pt_clust_8="13000.00000" pt_clust_9="172.60921"></scales>
<clustering>
<clus scale="   81.133">  5  6 -1 -1</clus>
<clus scale="   92.773">  7  8 -1 -1</clus>
<clus scale="   95.108">  5  7 -1 -1</clus>
<clus scale="  172.609">  2  9  1 -1</clus>
<clus scale="  172.609">  2  5  1 -1</clus>
</clustering>
</event>
<event>
 9    1  0.3197504E-005  0.1075225E+03  0.7546771E-02  0.1273714E+00
          1   -1    0    0  502    0 -0.00000000000E+00  0.00000000000E+00  0.18458433547E+03  0.18458433547E+03  0.00000000000E+00 0. -1.
         21   -1    0    0  501  502  0.00000000000E+00 -0.00000000000E+00 -0.16835214390E+03  0.16835214390E+03  0.00000000000E+00 0. -1.
        -24    2    1    2    0    0  0.56272070957E+02 -0.12530662242E+02  0.10350511074E+03  0.13835192761E+03  0.71444975041E+02 0.  0.
         23    2    1    2    0    0 -0.59037948505E+02 -0.58308908354E+02 -0.41457853426E+02  0.13017533964E+03  0.91331578782E+02 0.  0.
         11    1    3    3    0    0  0.61931147356E+02  0.11068733952E+02  0.92101547205E+02  0.11153779127E+03  0.00000000000E+00 0. -1.
        -12    1    3    3    0    0 -0.56590763996E+01 -0.23599396194E+02  0.11403563537E+02  0.26814136342E+02  0.00000000000E+00 0.  1.
        -13    1    4    4    0    0 -0.39067608528E+02  0.18351500418E+02 -0.67537937833E+01  0.43688320340E+02  0.00000000000E+00 0.  1.
         13    1    4    4    0    0 -0.19970339978E+02 -0.76660408772E+02 -0.34704059642E+02  0.86487019301E+02  0.00000000000E+00 0. -1.
          2    1    1    2  501    0  0.27658775488E+01  0.70839570597E+02 -0.45815065740E+02  0.84409212114E+02  0.00000000000E+00 0. -1.
<scales pt_clust_5="13000.00000" pt_clust_6="13000.00000" pt_clust_7="13000.00000" pt_clust_8="13000.00000" pt_clust_9="70.89355"></scales>
<clustering>
<clus scale="   70.894">  2  9  1 -1</clus>
<clus scale="   71.445">  5  6 -1 -1</clus>
<clus scale="   91.236">  1  5  2 -1</clus>
<clus scale="   91.332">  7  8 -1 -1</clus>
<clus scale="   70.894">  2  5  1 -1</clus>
</clustering>
</event>
<event>
 9    1  0.3197504E-005  0.9056611E+02  0.7546771E-02  0.1301586E+00
          1   -1    0    0  502    0 -0.00000000000E+00  0.00000000000E+00  0.16754515007E+03  0.16754515007E+03  0.00000000000E+00 0. -1.
         21   -1    0    0  501  502  0.00000000000E+00 -0.00000000000E+00 -0.20874987700E+03  0.20874987700E+03  0.00000000000E+00 0.  1.
        -24    2    1    2    0    0  0.34355228534E+02  0.11481374386E+02  0.11493229237E+03  0.14510176426E+03  0.80826892032E+02 0.  0.
         23    2    1    2    0    0 -0.58870297724E+02 -0.23487984479E+02 -0.37110485239E+02  0.10907666642E+03  0.80642009355E+02 0.  0.
         13    1    3    3    0    0  0.60107437627E+02  0.48216695704E+01  0.91895942202E+02  0.10991367862E+03  0.00000000000E+00 0. -1.
        -14    1    3    3    0    0 -0.25752209093E+02  0.66597048156E+01  0.23036350167E+02  0.35188085631E+02  0.00000000000E+00 0.  1.
        -13    1    4    4    0    0 -0.18084985802E+02 -0.25565981167E+02  0.21251198196E+02  0.37845733303E+02  0.00000000000E+00 0. -1.
         13    1    4    4    0    0 -0.40785311922E+02  0.20779966884E+01 -0.58361683435E+02  0.71230933113E+02  0.00000000000E+00 0.  1.
          2    1    1    2  501    0  0.24515069189E+02  0.12006610093E+02 -0.11902653407E+03  0.12211659639E+03  0.00000000000E+00 0. -1.
<scales pt_clust_5="13000.00000" pt_clust_6="13000.00000" pt_clust_7="13000.00000" pt_clust_8="13000.00000" pt_clust_9="27.29739"></scales>
<clustering>
<clus scale="   27.297">  2  9  1 -1</clus>
<clus scale="   80.642">  7  8 -1 -1</clus>
<clus scale="   80.827">  5  6 -1 -1</clus>
<clus scale="   90.401">  2  7  1 -1</clus>
<clus scale="   27.297">  2  5  1 -1</clus>
</clustering>
</event>
<event>
 9    1  0.3197504E-005  0.1027954E+03  0.7546771E-02  0.1284458E+00
         -2   -1    0    0    0  501 -0.00000000000E+00  0.00000000000E+00  0.98572012902E+03  0.98572012902E+03  0.00000000000E+00 0.  1.
         21   -1    0    0  501  502  0.00000000000E+00 -0.00000000000E+00 -0.34368269245E+02  0.34368269245E+02  0.00000000000E+00 0.  1.
        -24    2    1    2    0    0 -0.19348580332E+02 -0.27930031848E+02  0.64816813260E+03  0.65352811917E+03  0.76306095356E+02 0.  0.
         23    2    1    2    0    0 -0.27364838522E+02  0.85252431989E+02  0.21114502111E+03  0.24849620974E+03  0.95662609031E+02 0.  0.
         11    1    3    3    0    0  0.26238151984E+02 -0.20922854065E+02  0.18066732682E+03  0.18375769214E+03  0.00000000000E+00 0. -1.
        -12    1    3    3    0    0 -0.45586732317E+02 -0.70071777834E+01  0.46750080578E+03  0.46977042703E+03  0.00000000000E+00 0.  1.
        -13    1    4    4    0    0 -0.43337946329E+02  0.10494316842E+02  0.12802297661E+03  0.13556618611E+03  0.00000000000E+00 0. -1.
         13    1    4    4    0    0  0.15973107807E+02  0.74758115147E+02  0.83122044507E+02  0.11293002363E+03  0.00000000000E+00 0.  1.
         -1    1    1    2    0  502  0.46713418854E+02 -0.57322400141E+02  0.92038706060E+02  0.11806406935E+03  0.00000000000E+00 0.  1.
<scales pt_clust_5="13000.00000" pt_clust_6="13000.00000" pt_clust_7="13000.00000" pt_clust_8="13000.00000" pt_clust_9="73.94593"></scales>
<clustering>
<clus scale="   73.946">  2  9  1 -1</clus>
<clus scale="   76.306">  5  6 -1 -1</clus>
<clus scale="   85.077">  1  5  2 -1</clus>
<clus scale="   95.663">  7  8 -1 -1</clus>
<clus scale="   73.946">  2  5  1 -1</clus>
</clustering>
</event>
<event>
 9    1  0.3197504E-005  0.1948780E+03  0.7546771E-02  0.1191252E+00
         21   -1    0    0  501  502  0.00000000000E+00  0.00000000000E+00  0.32771095806E+03  0.32771095806E+03  0.00000000000E+00 0. -1.
          1   -1    0    0  502    0 -0.00000000000E+00 -0.00000000000E+00 -0.25130064692E+03  0.25130064692E+03  0.00000000000E+00 0. -1.
        -24    2    1    2    0    0  0.42918327170E+01 -0.24981319461E+02 -0.13087515994E+03  0.15534559886E+03  0.79758770344E+02 0.  0.
         23    2    1    2    0    0 -0.13916900600E+03  0.11933414109E+03  0.10677682463E+03  0.23080259633E+03  0.90883985012E+02 0.  0.
         13    1    3    3    0    0  0.21054861693E+01 -0.49891353531E+02 -0.11589712100E+03  0.12619715878E+03  0.00000000000E+00 0. -1.
        -14    1    3    3    0    0  0.21863465477E+01  0.24910034071E+02 -0.14978038944E+02  0.29148440082E+02  0.00000000000E+00 0.  1.
        -11    1    4    4    0    0 -0.33661913373E+02  0.81423700320E+02  0.70896555998E+02  0.11308963276E+03  0.00000000000E+00 0.  1.
         11    1    4    4    0    0 -0.10550709263E+03  0.37910440772E+02  0.35880268633E+02  0.11771296357E+03  0.00000000000E+00 0. -1.
          2    1    1    2  501    0  0.13487717328E+03 -0.94352821632E+02  0.10050864646E+03  0.19286340979E+03  0.00000000000E+00 0. -1.
<scales pt_clust_5="13000.00000" pt_clust_6="13000.00000" pt_clust_7="13000.00000" pt_clust_8="13000.00000" pt_clust_9="172.38780"></scales>
<clustering>
<clus scale="   79.759">  5  6 -1 -1</clus>
<clus scale="   83.690">  2  5  1 -1</clus>
<clus scale="   90.884">  7  8 -1 -1</clus>
<clus scale="  172.388">  1  9  2 -1</clus>
<clus scale="  172.388">  1  5  2 -1</clus>
</clustering>
</event>
<event>
 9    1  0.3197504E-005  0.9691686E+02  0.7546771E-02  0.1295280E+00
         21   -1    0    0  501  502  0.00000000000E+00  0.00000000000E+00  0.37327487226E+03  0.37327487226E+03  0.00000000000E+00 0.  1.
         -2   -1    0    0    0  501 -0.00000000000E+00 -0.00000000000E+00 -0.59746078389E+02  0.59746078389E+02  0.00000000000E+00 0.  1.
         23    2    1    2    0    0  0.98356914468E+01 -0.27967425372E+02  0.11287804052E+03  0.15140861207E+03  0.96458271125E+02 0.  0.
        -24    2    1    2    0    0  0.34961141162E+02 -0.41771654394E+02  0.16467871274E+03  0.19125591565E+03  0.80576636448E+02 0.  0.
         13    1    4    4    0    0  0.30313149012E+02  0.32202697248E+01  0.13290365856E+02  0.33254938952E+02  0.00000000000E+00 0. -1.
        -14    1    4    4    0    0  0.46479921497E+01 -0.44991924119E+02  0.15138834688E+03  0.15800097670E+03  0.00000000000E+00 0.  1.
        -11    1    3    3    0    0 -0.41934966823E+02 -0.20853334316E+01  0.58371821873E+02  0.71903822199E+02  0.00000000000E+00 0.  1.
         11    1    3    3    0    0  0.51770658270E+02 -0.25882091940E+02  0.54506218652E+02  0.79504789873E+02  0.00000000000E+00 0. -1.
         -1    1    1    2    0  502 -0.44796832608E+02  0.69739079766E+02  0.35972040611E+02  0.90356422927E+02  0.00000000000E+00 0.  1.
<scales pt_clust_5="13000.00000" pt_clust_6="13000.00000" pt_clust_7="13000.00000" pt_clust_8="13000.00000" pt_clust_9="82.88729"></scales>
<clustering>
<clus scale="   80.577">  5  6 -1 -1</clus>
<clus scale="   82.887">  1  9  2 -1</clus>
<clus scale="   82.887">  1  5  2 -1</clus>
<clus scale="   96.458">  7  8 -1 -1</clus>
<clus scale="   82.887">  1  5  2 -1</clus>
</clustering>
</event>
<event>
 9    1  0.3197504E-005  0.1482266E+03  0.7546771E-02  0.1204268E+00
          1   -1    0    0  502    0 -0.00000000000E+00  0.00000000000E+00  0.10931087843E+04  0.10931087843E+04  0.00000000000E+00 0. -1.
         21   -1    0    0  501  502  0.00000000000E+00 -0.00000000000E+00 -0.87303194305E+02  0.87303194305E+02  0.00000000000E+00 0. -1.
         23    2    1    2    0    0  0.98689249435E+02  0.79203769507E+02  0.77639605533E+03  0.79174236857E+03  0.89734822706E+02 0.  0.
        -24    2    1    2    0    0 -0.11711828188E+03  0.69254284430E+00  0.26374545570E+03  0.29977638512E+03  0.81160606872E+02 0.  0.
         11    1    4    4    0    0 -0.12303118549E+03 -0.14238904469E+02  0.21125176236E+03  0.24488104480E+03  0.00000000000E+00 0. -1.
        -12    1    4    4    0    0  0.59129036122E+01  0.14931447314E+02  0.52493693341E+02  0.54895340318E+02  0.00000000000E+00 0.  1.
        -11    1    3    3    0    0 -0.16972959600E+02  0.14910451819E+02  0.99510696917E+02  0.10204303863E+03  0.00000000000E+00 0.  1.
         11    1    3    3    0    0  0.11566220904E+03  0.64293317688E+02  0.67688535841E+03  0.68969932995E+03  0.00000000000E+00 0. -1.
          2    1    1    2  501    0  0.18429032447E+02 -0.79896312351E+02 -0.34335921022E+02  0.88893224920E+02  0.00000000000E+00 0. -1.
<scales pt_clust_5="13000.00000" pt_clust_6="13000.00000" pt_clust_7="13000.00000" pt_clust_8="13000.00000" pt_clust_9="81.99421"></scales>
<clustering>
<clus scale="   81.161">  5  6 -1 -1</clus>
<clus scale="   81.994">  2  9  1 -1</clus>
<clus scale="   89.735">  7  8 -1 -1</clus>
<clus scale="  143.199">  2  5  1 -1</clus>
<clus scale="   81.994">  2  5  1 -1</clus>
</clustering>
</event>
<event>
 9    1  0.3197504E-005  0.9162014E+02  0.7546771E-02  0.1305194E+00
         21   -1    0    0  501  502  0.00000000000E+00  0.00000000000E+00  0.16580652169E+03  0.16580652169E+03  0.00000000000E+00 0. -1.
          1   -1    0    0  502    0 -0.00000000000E+00 -0.00000000000E+00 -0.33616980968E+03  0.33616980968E+03  0.00000000000E+00 0. -1.
        -24    2    1    2    0    0  0.90078413150E+01  0.96963134719E+01 -0.30866630602E+03  0.31933881870E+03  0.80791292553E+02 0.  0.
         23    2    1    2    0    0 -0.23730850224E+01  0.91828897210E+01  0.81347277085E+02  0.12226864047E+03  0.90787025271E+02 0.  0.
         11    1    3    3    0    0 -0.39614693590E+01  0.42467344706E+02 -0.21655127925E+03  0.22071163347E+03  0.00000000000E+00 0. -1.
        -12    1    3    3    0    0  0.12969310674E+02 -0.32771031234E+02 -0.92115026774E+02  0.98627185223E+02  0.00000000000E+00 0.  1.
        -13    1    4    4    0    0 -0.42498073912E+01  0.36112246745E+02 -0.20779983658E+00  0.36362046265E+02  0.00000000000E+00 0. -1.
         13    1    4    4    0    0  0.18767223689E+01 -0.26929357024E+02  0.81555076921E+02  0.85906594207E+02  0.00000000000E+00 0.  1.
          2    1    1    2  501    0 -0.66347562926E+01 -0.18879203193E+02  0.56955740942E+02  0.60368872199E+02  0.00000000000E+00 0. -1.
<scales pt_clust_5="13000.00000" pt_clust_6="13000.00000" pt_clust_7="13000.00000" pt_clust_8="13000.00000" pt_clust_9="20.01110"></scales>
<clustering>
<clus scale="   20.011">  1  9  2 -1</clus>
<clus scale="   80.791">  5  6 -1 -1</clus>
<clus scale="   81.726">  2  5  1 -1</clus>
<clus scale="   90.787">  7  8 -1 -1</clus>
<clus scale="   20.011">  1  5  2 -1</clus>
</clustering>
</event>
<event>
 9    1  0.3197504E-005  0.1872374E+03  0.7546771E-02  0.1162593E+00
          1   -1    0    0  502    0 -0.00000000000E+00  0.00000000000E+00  0.54698599946E+03  0.54698599946E+03  0.00000000000E+00 0. -1.
         21   -1    0    0  501  502  0.00000000000E+00 -0.00000000000E+00 -0.10352827708E+03  0.10352827708E+03  0.00000000000E+00 0.  1.
        -24    2    1    2    0    0 -0.15089192460E+03 -0.29062413042E+02  0.27893250843E+03  0.32760832729E+03  0.76882215691E+02 0.  0.
         23    2    1    2    0    0  0.19257460803E+03  0.10896301454E+02  0.82322768794E+02  0.22896609775E+03  0.91895193645E+02 0.  0.
         13    1    3    3    0    0 -0.15441171251E+03 -0.15315099496E+02  0.26805855837E+03  0.30973039882E+03  0.00000000000E+00 0. -1.
        -14    1    3    3    0    0  0.35197879131E+01 -0.13747313546E+02  0.10873950057E+02  0.17877928474E+02  0.00000000000E+00 0.  1.
        -13    1    4    4    0    0  0.13449585488E+03  0.26212294601E+02  0.13608092173E+02  0.13770039776E+03  0.00000000000E+00 0.  1.
         13    1    4    4    0    0  0.58078753145E+02 -0.15315993147E+02  0.68714676621E+02  0.91265699998E+02  0.00000000000E+00 0. -1.
          2    1    1    2  501    0 -0.41682683430E+02  0.18166111587E+02  0.82202445167E+02  0.93939851498E+02  0.00000000000E+00 0. -1.
<scales pt_clust_5="13000.00000" pt_clust_6="13000.00000" pt_clust_7="13000.00000" pt_clust_8="13000.00000" pt_clust_9="45.46928"></scales>
<clustering>
<clus scale="   45.469">  2  9  1 -1</clus>
<clus scale="   76.882">  5  6 -1 -1</clus>
<clus scale="   91.895">  7  8 -1 -1</clus>
<clus scale="  180.344">  1  5  2 -1</clus>
<clus scale="   45.469">  2  5  1 -1</clus>
</clustering>
</event>
<event>
 9    1  0.3197504E-005  0.1542720E+03  0.7546771E-02  0.1198157E+00
         21   -1    0    0  501  502  0.00000000000E+00  0.00000000000E+00  0.23926694510E+03  0.23926694510E+03  0.00000000000E+00 0. -1.
          1   -1    0    0  502    0 -0.00000000000E+00 -0.00000000000E+00 -0.18071880169E+03  0.18071880169E+03  0.00000000000E+00 0. -1.
         23    2    1    2    0    0  0.11457258859E+03 -0.20724485325E+02 -0.25493301133E+02  0.15265770312E+03  0.95383874795E+02 0.  0.
        -24    2    1    2    0    0 -0.13321660055E+03 -0.63022436453E+02  0.63597229067E+02  0.17912876909E+03  0.79523695905E+02 0.  0.
         13    1    4    4    0    0 -0.32348337815E+02 -0.40320160996E+02  0.54846603233E+02  0.75367633825E+02  0.00000000000E+00 0. -1.
        -14    1    4    4    0    0 -0.10086826274E+03 -0.22702275457E+02  0.87506258339E+01  0.10376113526E+03  0.00000000000E+00 0.  1.
        -11    1    3    3    0    0  0.96744547893E+02 -0.71606908282E+01 -0.58115343381E+02  0.11308481851E+03  0.00000000000E+00 0. -1.
         11    1    3    3    0    0  0.17828040700E+02 -0.13563794497E+02  0.32622042249E+02  0.39572884616E+02  0.00000000000E+00 0.  1.
          2    1    1    2  501    0  0.18644011958E+02  0.83746921778E+02  0.20444215477E+02  0.88199274576E+02  0.00000000000E+00 0. -1.
<scales pt_clust_5="13000.00000" pt_clust_6="13000.00000" pt_clust_7="13000.00000" pt_clust_8="13000.00000" pt_clust_9="85.79712"></scales>
<clustering>
<clus scale="   79.524">  5  6 -1 -1</clus>
<clus scale="   85.797">  1  9  2 -1</clus>
<clus scale="   95.384">  7  8 -1 -1</clus>
<clus scale="  145.003">  1  5  2 -1</clus>
<clus scale="   85.797">  1  5  2 -1</clus>
</clustering>
</event>
<event>
 9    1  0.3197504E-005  0.1001973E+03  0.7546771E-02  0.1281527E+00
         -4   -1    0    0    0  501 -0.00000000000E+00  0.00000000000E+00  0.23933676794E+03  0.23933676794E+03  0.00000000000E+00 0.  1.
         21   -1    0    0  501  502  0.00000000000E+00 -0.00000000000E+00 -0.10017960960E+03  0.10017960960E+03  0.00000000000E+00 0.  1.
         23    2    1    2    0    0 -0.18702641182E+02 -0.45190797475E+02  0.14720305287E+03  0.17672972047E+03  0.84691548335E+02 0.  0.
        -24    2    1    2    0    0  0.66447932963E+02  0.46862020860E+02 -0.42514150923E+01  0.11486167456E+03  0.81016991781E+02 0.  0.
         13    1    4    4    0    0  0.19543799958E+02  0.34088447930E+02 -0.38801143434E+02  0.55222378895E+02  0.00000000000E+00 0. -1.
        -14    1    4    4    0    0  0.46904133005E+02  0.12773572930E+02  0.34549728342E+02  0.59639295660E+02  0.00000000000E+00 0.  1.
        -11    1    3    3    0    0 -0.51008919592E+02 -0.14116717963E+02  0.76947528282E+02  0.93392257241E+02  0.00000000000E+00 0.  1.
         11    1    3    3    0    0  0.32306278409E+02 -0.31074079512E+02  0.70255524585E+02  0.83337463226E+02  0.00000000000E+00 0. -1.
         -3    1    1    2    0  502 -0.47745291780E+02 -0.16712233843E+01 -0.37944794395E+01  0.47924982514E+02  0.00000000000E+00 0.  1.
<scales pt_clust_5="13000.00000" pt_clust_6="13000.00000" pt_clust_7="13000.00000" pt_clust_8="13000.00000" pt_clust_9="47.77453"></scales>
<clustering>
<clus scale="   47.775">  2  9  1 -1</clus>
<clus scale="   81.017">  5  6 -1 -1</clus>
<clus scale="   84.692">  7  8 -1 -1</clus>
<clus scale="   97.111">  2  5  1 -1</clus>
<clus scale="   47.775">  2  5  1 -1</clus>
</clustering>
</event>
<event>
 9    1  0.3197504E-005  0.9393024E+02  0.7546771E-02  0.1300601E+00
         21   -1    0    0  501  502  0.00000000000E+00  0.00000000000E+00  0.95204088283E+02  0.95204088283E+02  0.00000000000E+00 0. -1.
         -4   -1    0    0    0  501 -0.00000000000E+00 -0.00000000000E+00 -0.16536070834E+03  0.16536070834E+03  0.00000000000E+00 0.  1.
         23    2    1    2    0    0  0.19939623619E+01  0.25172194480E+02 -0.11605040146E+03  0.14995655578E+03  0.91551393671E+02 0.  0.
        -24    2    1    2    0    0  0.48964556585E+01 -0.60274762489E+01  0.34419096376E+02  0.87248735430E+02  0.79795751082E+02 0.  0.
         13    1    4    4    0    0  0.49743162018E+01  0.26790045821E+02 -0.12510603546E+02  0.29982754674E+02  0.00000000000E+00 0. -1.
        -14    1    4    4    0    0 -0.77860543292E-01 -0.32817522070E+02  0.46929699922E+02  0.57265980755E+02  0.00000000000E+00 0.  1.
        -13    1    3    3    0    0 -0.27836657926E+02 -0.19548352916E+02 -0.18869254538E+02  0.38898154108E+02  0.00000000000E+00 0.  1.
         13    1    3    3    0    0  0.29830620288E+02  0.44720547395E+02 -0.97181146918E+02  0.11105840167E+03  0.00000000000E+00 0. -1.
         -3    1    1    2    0  502 -0.68904180203E+01 -0.19144718231E+02  0.11474685023E+02  0.23359505410E+02  0.00000000000E+00 0.  1.
<scales pt_clust_5="13000.00000" pt_clust_6="13000.00000" pt_clust_7="13000.00000" pt_clust_8="13000.00000" pt_clust_9="20.34694"></scales>
<clustering>
<clus scale="   20.347">  1  9  2 -1</clus>
<clus scale="   79.796">  5  6 -1 -1</clus>
<clus scale="   82.514">  1  5  2 -1</clus>
<clus scale="   91.551">  7  8 -1 -1</clus>
<clus scale="   20.347">  1  5  2 -1</clus>
</clustering>
</event>
<event>
 9    1  0.3197504E-005  0.1116512E+03  0.7546771E-02  0.1263959E+00
          1   -1    0    0  502    0 -0.00000000000E+00  0.00000000000E+00  0.13119989919E+04  0.13119989919E+04  0.00000000000E+00 0. -1.
         21   -1    0    0  501  502  0.00000000000E+00 -0.00000000000E+00 -0.21557981409E+02  0.21557981409E+02  0.00000000000E+00 0. -1.
        -24    2    1    2    0    0  0.45543132299E+02  0.44059107206E+02  0.50562249826E+03  0.51582368038E+03  0.80028599066E+02 0.  0.
         23    2    1    2    0    0 -0.74266188642E+02  0.40329803800E+02  0.32222966015E+03  0.34663357064E+03  0.95817109984E+02 0.  0.
         11    1    3    3    0    0  0.66780900122E+02  0.45434051983E+02  0.39546459206E+03  0.40362877161E+03  0.00000000000E+00 0. -1.
        -12    1    3    3    0    0 -0.21237767823E+02 -0.13749447773E+01  0.11015790619E+03  0.11219490876E+03  0.00000000000E+00 0.  1.
        -13    1    4    4    0    0 -0.63729132098E+02  0.78259270471E+01  0.29776540354E+03  0.30460939408E+03  0.00000000000E+00 0.  1.
         13    1    4    4    0    0 -0.10537056545E+02  0.32503876753E+02  0.24464256602E+02  0.42024176562E+02  0.00000000000E+00 0. -1.
          2    1    1    2  501    0  0.28723056344E+02 -0.84388911006E+02  0.46258885209E+03  0.47109972230E+03  0.00000000000E+00 0. -1.
<scales pt_clust_5="13000.00000" pt_clust_6="13000.00000" pt_clust_7="13000.00000" pt_clust_8="13000.00000" pt_clust_9="89.14320"></scales>
<clustering>
<clus scale="   80.029">  5  6 -1 -1</clus>
<clus scale="   89.143">  2  9  1 -1</clus>
<clus scale="   95.817">  7  8 -1 -1</clus>
<clus scale="   98.436">  1  5  2 -1</clus>
<clus scale="   89.143">  2  5  1 -1</clus>
</clustering>
</event>
<event>
 9    1  0.3197504E-005  0.1006656E+03  0.7546771E-02  0.1289377E+00
         -4   -1    0    0    0  501 -0.00000000000E+00  0.00000000000E+00  0.44153959440E+03  0.44153959440E+03  0.00000000000E+00 0.  1.
         21   -1    0    0  501  502  0.00000000000E+00 -0.00000000000E+00 -0.26578809933E+02  0.26578809933E+02  0.00000000000E+00 0. -1.
        -24    2    1    2    0    0  0.16808850582E+02 -0.34592431847E+02  0.22852023654E+03  0.24213481566E+03  0.70203964599E+02 0.  0.
         23    2    1    2    0    0 -0.34987136839E+02  0.43694670397E+02  0.16469675570E+03  0.19621626871E+03  0.90788098348E+02 0.  0.
         13    1    3    3    0    0 -0.40875022269E+01 -0.44155973002E+02  0.20302287835E+03  0.20780940007E+03  0.00000000000E+00 0. -1.
        -14    1    3    3    0    0  0.20896352809E+02  0.95635411552E+01  0.25497358194E+02  0.34325415584E+02  0.00000000000E+00 0.  1.
        -13    1    4    4    0    0 -0.24465711533E+02  0.72187557341E+02  0.12077334311E+03  0.14281391697E+03  0.00000000000E+00 0.  1.
         13    1    4    4    0    0 -0.10521425307E+02 -0.28492886944E+02  0.43923412591E+02  0.53402351732E+02  0.00000000000E+00 0. -1.
         -3    1    1    2    0  502  0.18178286257E+02 -0.91022385502E+01  0.21743792226E+02  0.29767319971E+02  0.00000000000E+00 0.  1.
<scales pt_clust_5="13000.00000" pt_clust_6="13000.00000" pt_clust_7="13000.00000" pt_clust_8="13000.00000" pt_clust_9="20.32980"></scales>
<clustering>
<clus scale="   20.330">  2  9  1 -1</clus>
<clus scale="   70.204">  5  6 -1 -1</clus>
<clus scale="   82.581">  1  5  2 -1</clus>
<clus scale="   90.788">  7  8 -1 -1</clus>
<clus scale="   20.330">  2  5  1 -1</clus>
</clustering>
</event>
<event>
 9    1  0.3197504E-005  0.9319267E+02  0.7546771E-02  0.1302281E+00
          1   -1    0    0  502    0 -0.00000000000E+00  0.00000000000E+00  0.27424793255E+02  0.27424793255E+02  0.00000000000E+00 0. -1.
         21   -1    0    0  501  502  0.00000000000E+00 -0.00000000000E+00 -0.58055967675E+03  0.58055967675E+03  0.00000000000E+00 0.  1.
         23    2    1    2    0    0 -0.57590085185E+01  0.23475203924E+02 -0.20229897104E+03  0.22348491961E+03  0.91849791683E+02 0.  0.
        -24    2    1    2    0    0 -0.34176654636E+02  0.26808571989E+02 -0.17720082687E+03  0.19937132927E+03  0.80386880991E+02 0.  0.
         13    1    4    4    0    0  0.17271815857E+02 -0.15338008299E+02 -0.64478544565E+02  0.68491260981E+02  0.00000000000E+00 0. -1.
        -14    1    4    4    0    0 -0.51448470493E+02  0.42146580288E+02 -0.11272228230E+03  0.13088006828E+03  0.00000000000E+00 0.  1.
        -13    1    3    3    0    0 -0.22148468009E+02 -0.11117997336E+02 -0.88968223548E+01  0.26330931391E+02  0.00000000000E+00 0. -1.
         13    1    3    3    0    0  0.16389459491E+02  0.34593201260E+02 -0.19340214868E+03  0.19715398822E+03  0.00000000000E+00 0.  1.
          2    1    1    2  501    0  0.39935663155E+02 -0.50283775913E+02 -0.17363508559E+03  0.18512822113E+03  0.00000000000E+00 0. -1.
<scales pt_clust_5="13000.00000" pt_clust_6="13000.00000" pt_clust_7="13000.00000" pt_clust_8="13000.00000" pt_clust_9="64.21305"></scales>
<clustering>
<clus scale="   64.213">  2  9  1 -1</clus>
<clus scale="   80.387">  5  6 -1 -1</clus>
<clus scale="   81.918">  2  5  1 -1</clus>
<clus scale="   91.850">  7  8 -1 -1</clus>
<clus scale="   64.213">  2  5  1 -1</clus>
</clustering>
</event>
<event>
 9    1  0.3197504E-005  0.9250363E+02  0.7546771E-02  0.1303790E+00
         21   -1    0    0  501  502  0.00000000000E+00  0.00000000000E+00  0.62514663122E+02  0.62514663122E+02  0.00000000000E+00 0.  1.
         -4   -1    0    0    0  501 -0.00000000000E+00 -0.00000000000E+00 -0.20459623974E+03  0.20459623974E+03  0.00000000000E+00 0.  1.
         23    2    1    2    0    0 -0.41348263239E+01 -0.66324843894E+01 -0.47504901452E+02  0.10411798802E+03  0.92318758276E+02 0.  0.
        -24    2    1    2    0    0 -0.16875415061E+02 -0.96186626941E+01 -0.23021640048E+02  0.86666948910E+02  0.81264173025E+02 0.  0.
         11    1    4    4    0    0  0.24744042086E+02  0.16357968145E+02  0.51305831187E+01  0.30102717879E+02  0.00000000000E+00 0. -1.
        -12    1    4    4    0    0 -0.41619457146E+02 -0.25976630839E+02 -0.28152223166E+02  0.56564231031E+02  0.00000000000E+00 0.  1.
        -13    1    3    3    0    0 -0.46036713083E+02  0.10762995338E+02 -0.23934227563E+02  0.52991209357E+02  0.00000000000E+00 0. -1.
         13    1    3    3    0    0  0.41901886759E+02 -0.17395479727E+02 -0.23570673889E+02  0.51126778663E+02  0.00000000000E+00 0.  1.
         -3    1    1    2    0  502  0.21010241384E+02  0.16251147083E+02 -0.71555035120E+02  0.76325965933E+02  0.00000000000E+00 0.  1.
<scales pt_clust_5="13000.00000" pt_clust_6="13000.00000" pt_clust_7="13000.00000" pt_clust_8="13000.00000" pt_clust_9="26.56183"></scales>
<clustering>
<clus scale="   26.562">  1  9  2 -1</clus>
<clus scale="   81.264">  5  6 -1 -1</clus>
<clus scale="   81.474">  1  5  2 -1</clus>
<clus scale="   92.319">  7  8 -1 -1</clus>
<clus scale="   26.562">  1  5  2 -1</clus>
</clustering>
</event>
<event>
 9    1  0.3197504E-005  0.1266943E+03  0.7546771E-02  0.1250162E+00
         -4   -1    0    0    0  501 -0.00000000000E+00  0.00000000000E+00  0.63493356399E+03  0.63493356399E+03  0.00000000000E+00 0.  1.
         21   -1    0    0  501  502  0.00000000000E+00 -0.00000000000E+00 -0.54815608367E+02  0.54815608367E+02  0.00000000000E+00 0. -1.
        -24    2    1    2    0    0  0.78265020985E+01 -0.37220079079E+02  0.28591436454E+03  0.29929000561E+03  0.79880505669E+02 0.  0.
         23    2    1    2    0    0 -0.90955451121E+02  0.64148796609E+01  0.63418039406E+02  0.14323183545E+03  0.90440401343E+02 0.  0.
         13    1    3    3    0    0 -0.17704050660E+02 -0.54217584538E+02  0.20395497035E+03  0.21177962559E+03  0.00000000000E+00 0. -1.
        -14    1    3    3    0    0  0.25530552758E+02  0.16997505459E+02  0.81959394190E+02  0.87510380024E+02  0.00000000000E+00 0.  1.
        -13    1    4    4    0    0 -0.78010385483E+02  0.30217599311E+02  0.76302796645E+02  0.11322914964E+03  0.00000000000E+00 0.  1.
         13    1    4    4    0    0 -0.12945065638E+02 -0.23802719650E+02 -0.12884757239E+02  0.30002685816E+02  0.00000000000E+00 0. -1.
         -3    1    1    2    0  502  0.83128949022E+02  0.30805199418E+02  0.23078555168E+03  0.24722733130E+03  0.00000000000E+00 0.  1.
<scales pt_clust_5="13000.00000" pt_clust_6="13000.00000" pt_clust_7="13000.00000" pt_clust_8="13000.00000" pt_clust_9="88.72422"></scales>
<clustering>
<clus scale="   79.881">  5  6 -1 -1</clus>
<clus scale="   88.473">  1  5  2 -1</clus>
<clus scale="   88.724">  2  9  1 -1</clus>
<clus scale="   90.440">  7  8 -1 -1</clus>
<clus scale="   88.724">  2  5  1 -1</clus>
</clustering>
</event>
<event>
 9    1  0.3197504E-005  0.1311694E+03  0.7546771E-02  0.1245646E+00
         21   -1    0    0  501  502  0.00000000000E+00  0.00000000000E+00  0.30728166793E+03  0.30728166793E+03  0.00000000000E+00 0. -1.
          3   -1    0    0  502    0 -0.00000000000E+00 -0.00000000000E+00 -0.88100957951E+02  0.88100957951E+02  0.00000000000E+00 0. -1.
        -24    2    1    2    0    0 -0.35944462425E+01 -0.38880956685E+02  0.91847314826E+02  0.12670201837E+03  0.78056539654E+02 0.  0.
         23    2    1    2    0    0 -0.89065355722E+02  0.46941068823E+02  0.42406105780E+02  0.14273042375E+03  0.91856379880E+02 0.  0.
         13    1    3    3    0    0 -0.36885131338E+02 -0.33427128539E+02  0.72094597295E+02  0.87610026797E+02  0.00000000000E+00 0. -1.
        -14    1    3    3    0    0  0.33290685096E+02 -0.54538281455E+01  0.19752717531E+02  0.39091991577E+02  0.00000000000E+00 0.  1.
        -11    1    4    4    0    0  0.53529998140E+01 -0.19569628970E+02  0.10835508451E+02  0.23000722346E+02  0.00000000000E+00 0. -1.
         11    1    4    4    0    0 -0.94418355536E+02  0.66510697792E+02  0.31570597328E+02  0.11972970141E+03  0.00000000000E+00 0.  1.
          4    1    1    2  501    0  0.92659801965E+02 -0.80601121382E+01  0.84927289372E+02  0.12595018376E+03  0.00000000000E+00 0. -1.
<scales pt_clust_5="13000.00000" pt_clust_6="13000.00000" pt_clust_7="13000.00000" pt_clust_8="13000.00000" pt_clust_9="93.63657"></scales>
<clustering>
<clus scale="   78.057">  5  6 -1 -1</clus>
<clus scale="   87.278">  2  5  1 -1</clus>
<clus scale="   91.856">  7  8 -1 -1</clus>
<clus scale="   93.637">  1  9  2 -1</clus>
<clus scale="   93.637">  1  5  2 -1</clus>
</clustering>
</event>
<event>
 9    1  0.3197504E-005  0.1458650E+03  0.7546771E-02  0.1208139E+00
         21   -1    0    0  501  502  0.00000000000E+00  0.00000000000E+00  0.46099122850E+02  0.46099122850E+02  0.00000000000E+00 0. -1.
          3   -1    0    0  502    0 -0.00000000000E+00 -0.00000000000E+00 -0.77249550894E+03  0.77249550894E+03  0.00000000000E+00 0. -1.
        -24    2    1    2    0    0  0.17476360078E+02 -0.83981790950E+02 -0.15150033416E+03  0.19074992829E+03  0.77941128563E+02 0.  0.
         23    2    1    2    0    0 -0.29029754456E+02  0.14466194513E+03 -0.30294995798E+03  0.34897154228E+03  0.90733980772E+02 0.  0.
         13    1    3    3    0    0 -0.34777209713E+01 -0.92018006466E+02 -0.13243701523E+03  0.16130397100E+03  0.00000000000E+00 0. -1.
        -14    1    3    3    0    0  0.20954081050E+02  0.80362155158E+01 -0.19063318925E+02  0.29445957293E+02  0.00000000000E+00 0.  1.
        -13    1    4    4    0    0 -0.48721287917E+02  0.55582790741E+02 -0.84665694318E+02  0.11238990309E+03  0.00000000000E+00 0.  1.
         13    1    4    4    0    0  0.19691533461E+02  0.89079154386E+02 -0.21828426366E+03  0.23658163918E+03  0.00000000000E+00 0. -1.
          4    1    1    2  501    0  0.11553394378E+02 -0.60680154177E+02 -0.27194609396E+03  0.27887316122E+03  0.00000000000E+00 0. -1.
<scales pt_clust_5="13000.00000" pt_clust_6="13000.00000" pt_clust_7="13000.00000" pt_clust_8="13000.00000" pt_clust_9="61.77027"></scales>
<clustering>
<clus scale="   61.770">  1  9  2 -1</clus>
<clus scale="   77.941">  5  6 -1 -1</clus>
<clus scale="   90.734">  7  8 -1 -1</clus>
<clus scale="  138.271">  2  5  1 -1</clus>
<clus scale="   61.770">  1  5  2 -1</clus>
</clustering>
</event>
<event>
 9    1  0.3197504E-005  0.1518117E+03  0.7546771E-02  0.1201432E+00
         21   -1    0    0  501  502  0.00000000000E+00  0.00000000000E+00  0.23371717419E+03  0.23371717419E+03  0.00000000000E+00 0. -1.
         -2   -1    0    0    0  501 -0.00000000000E+00 -0.00000000000E+00 -0.41992005623E+03  0.41992005623E+03  0.00000000000E+00 0.  1.
         23    2    1    2    0    0  0.11208898496E+03 -0.42783608601E+02 -0.28813345780E+03  0.32656028278E+03  0.96053896690E+02 0.  0.
        -24    2    1    2    0    0 -0.48890623608E+02  0.12660670285E+03  0.14482467093E+03  0.21367391678E+03  0.79137899387E+02 0.  0.
         11    1    4    4    0    0 -0.52431124471E+02  0.11960841900E+03  0.15379235104E+03  0.20176046180E+03  0.00000000000E+00 0. -1.
        -12    1    4    4    0    0  0.35405008634E+01  0.69982838499E+01 -0.89676801022E+01  0.11913454983E+02  0.00000000000E+00 0.  1.
        -13    1    3    3    0    0  0.67279993464E+02 -0.73023929360E+02 -0.17601802196E+03  0.20209264172E+03  0.00000000000E+00 0.  1.
         13    1    3    3    0    0  0.44808991500E+02  0.30240320760E+02 -0.11211543584E+03  0.12446764106E+03  0.00000000000E+00 0. -1.
         -1    1    1    2    0  502 -0.63198361357E+02 -0.83823094251E+02 -0.42894095173E+02  0.11340303086E+03  0.00000000000E+00 0.  1.
<scales pt_clust_5="13000.00000" pt_clust_6="13000.00000" pt_clust_7="13000.00000" pt_clust_8="13000.00000" pt_clust_9="104.97788"></scales>
<clustering>
<clus scale="   79.138">  5  6 -1 -1</clus>
<clus scale="   96.054">  7  8 -1 -1</clus>
<clus scale="  104.978">  1  9  2 -1</clus>
<clus scale="  141.715">  1  5  2 -1</clus>
<clus scale="  104.978">  1  5  2 -1</clus>
</clustering>
</event>
<event>
 9    1  0.3197504E-005  0.1301215E+03  0.7546771E-02  0.1246855E+00
          1   -1    0    0  502    0 -0.00000000000E+00  0.00000000000E+00  0.54476824838E+03  0.54476824838E+03  0.00000000000E+00 0. -1.
         21   -1    0    0  501  502  0.00000000000E+00 -0.00000000000E+00 -0.50939247192E+02  0.50939247192E+02  0.00000000000E+00 0. -1.
        -24    2    1    2    0    0 -0.36303252685E+02  0.20658263227E+01  0.21041499462E+03  0.22779001695E+03  0.79319783594E+02 0.  0.
         23    2    1    2    0    0 -0.52264232012E+02  0.49491560167E+02  0.21637352012E+03  0.24545609585E+03  0.90830778402E+02 0.  0.
         13    1    3    3    0    0 -0.60226601591E+02  0.11838930680E+02  0.15100123189E+03  0.16299931243E+03  0.00000000000E+00 0. -1.
        -14    1    3    3    0    0  0.23923348906E+02 -0.97731043576E+01  0.59413762726E+02  0.64790704526E+02  0.00000000000E+00 0.  1.
        -11    1    4    4    0    0 -0.13164748604E+02 -0.17858665578E+02  0.11759922724E+03  0.11967380996E+03  0.00000000000E+00 0.  1.
         11    1    4    4    0    0 -0.39099483408E+02  0.67350225744E+02  0.98774292876E+02  0.12578228589E+03  0.00000000000E+00 0. -1.
          2    1    1    2  501    0  0.88567484696E+02 -0.51557386489E+02  0.67040486459E+02  0.12246138278E+03  0.00000000000E+00 0. -1.
<scales pt_clust_5="13000.00000" pt_clust_6="13000.00000" pt_clust_7="13000.00000" pt_clust_8="13000.00000" pt_clust_9="93.17384"></scales>
<clustering>
<clus scale="   79.320">  5  6 -1 -1</clus>
<clus scale="   87.257">  1  5  2 -1</clus>
<clus scale="   90.831">  7  8 -1 -1</clus>
<clus scale="   93.174">  2  9  1 -1</clus>
<clus scale="   93.174">  2  5  1 -1</clus>
</clustering>
</event>
<event>
 9    1  0.3197504E-005  0.9307237E+02  0.7546771E-02  0.1304064E+00
          1   -1    0    0  502    0 -0.00000000000E+00  0.00000000000E+00  0.57810636732E+02  0.57810636732E+02  0.00000000000E+00 0. -1.
         21   -1    0    0  501  502  0.00000000000E+00 -0.00000000000E+00 -0.31012384960E+03  0.31012384960E+03  0.00000000000E+00 0. -1.
        -24    2    1    2    0    0 -0.93354644423E+01 -0.49074767782E+00 -0.17535994276E+02  0.81897790736E+02  0.79450269368E+02 0.  0.
         23    2    1    2    0    0 -0.34407455982E+02  0.51280229048E+01 -0.87440065578E+02  0.13227329271E+03  0.92953156213E+02 0.  0.
         11    1    3    3    0    0 -0.32600529037E+02 -0.27757077649E+02 -0.20873029610E+01  0.42867314900E+02  0.00000000000E+00 0. -1.
        -12    1    3    3    0    0  0.23265064595E+02  0.27266329971E+02 -0.15448691315E+02  0.39030475836E+02  0.00000000000E+00 0.  1.
        -13    1    4    4    0    0  0.26643899504E+02 -0.18470837516E+01 -0.16660281897E+01  0.26759759884E+02  0.00000000000E+00 0.  1.
         13    1    4    4    0    0 -0.61051355485E+02  0.69751066565E+01 -0.85774037388E+02  0.10551353283E+03  0.00000000000E+00 0. -1.
          2    1    1    2  501    0  0.43742920424E+02 -0.46372752270E+01 -0.14733715302E+03  0.15376340289E+03  0.00000000000E+00 0. -1.
<scales pt_clust_5="13000.00000" pt_clust_6="13000.00000" pt_clust_7="13000.00000" pt_clust_8="13000.00000" pt_clust_9="43.98804"></scales>
<clustering>
<clus scale="   43.988">  2  9  1 -1</clus>
<clus scale="   79.450">  5  6 -1 -1</clus>
<clus scale="   79.590">  1  5  2 -1</clus>
<clus scale="   92.953">  7  8 -1 -1</clus>
<clus scale="   43.988">  2  5  1 -1</clus>
</clustering>
</event>
<event>
 9    1  0.3197504E-005  0.1058321E+03  0.7546771E-02  0.1272559E+00
          3   -1    0    0  502    0 -0.00000000000E+00  0.00000000000E+00  0.37042817339E+03  0.37042817339E+03  0.00000000000E+00 0. -1.
         21   -1    0    0  501  502  0.00000000000E+00 -0.00000000000E+00 -0.40573821033E+02  0.40573821033E+02  0.00000000000E+00 0. -1.
        -24    2    1    2    0    0 -0.49219096729E+02 -0.29440420393E+02  0.12865394804E+03  0.16232375257E+03  0.80671584003E+02 0.  0.
         23    2    1    2    0    0  0.55861261114E+02  0.45676079348E+01  0.10597203092E+03  0.15003130452E+03  0.90210739166E+02 0.  0.
         13    1    3    3    0    0 -0.58655247214E+02 -0.47812282919E+02  0.11464351678E+03  0.13736662026E+03  0.00000000000E+00 0. -1.
        -14    1    3    3    0    0  0.94361504841E+01  0.18371862526E+02  0.14010431261E+02  0.24957132302E+02  0.00000000000E+00 0.  1.
        -11    1    4    4    0    0  0.49969155451E+02 -0.26048773566E+02  0.22061846823E+02  0.60515949848E+02  0.00000000000E+00 0. -1.
         11    1    4    4    0    0  0.58921056627E+01  0.30616381501E+02  0.83910184100E+02  0.89515354667E+02  0.00000000000E+00 0.  1.
          4    1    1    2  501    0 -0.66421643844E+01  0.24872812458E+02  0.95228373391E+02  0.98646937337E+02  0.00000000000E+00 0. -1.
<scales pt_clust_5="13000.00000" pt_clust_6="13000.00000" pt_clust_7="13000.00000" pt_clust_8="13000.00000" pt_clust_9="25.74443"></scales>
<clustering>
<clus scale="   25.744">  2  9  1 -1</clus>
<clus scale="   80.672">  5  6 -1 -1</clus>
<clus scale="   90.211">  7  8 -1 -1</clus>
<clus scale="   97.828">  1  5  2 -1</clus>
<clus scale="   25.744">  2  5  1 -1</clus>
</clustering>
</event>
<event>
 9    1  0.3197504E-005  0.1136091E+03  0.7546771E-02  0.1258725E+00
         21   -1    0    0  501  502  0.00000000000E+00  0.00000000000E+00  0.35471340025E+03  0.35471340025E+03  0.00000000000E+00 0. -1.
         -4   -1    0    0    0  501 -0.00000000000E+00 -0.00000000000E+00 -0.48617349210E+02  0.48617349210E+02  0.00000000000E+00 0.  1.
        -24    2    1    2    0    0 -0.21260821440E+02  0.60216709096E+02  0.71664954112E+02  0.12401911319E+03  0.78528976849E+02 0.  0.
         23    2    1    2    0    0  0.44810750949E+02 -0.64013206640E+02  0.22184844253E+03  0.25234247305E+03  0.91401850222E+02 0.  0.
         13    1    3    3    0    0  0.28164044232E+02  0.37205157792E+02  0.34670875714E+02  0.58133525410E+02  0.00000000000E+00 0. -1.
        -14    1    3    3    0    0 -0.49424865672E+02  0.23011551304E+02  0.36994078398E+02  0.65885587776E+02  0.00000000000E+00 0.  1.
        -11    1    4    4    0    0  0.18689753311E+02 -0.14562466508E+02  0.14467252798E+00  0.23693738409E+02  0.00000000000E+00 0.  1.
         11    1    4    4    0    0  0.26120997637E+02 -0.49450740132E+02  0.22170377000E+03  0.22864873464E+03  0.00000000000E+00 0. -1.
         -3    1    1    2    0  502 -0.23549929509E+02  0.37964975438E+01  0.12582654392E+02  0.26969163225E+02  0.00000000000E+00 0.  1.
<scales pt_clust_5="13000.00000" pt_clust_6="13000.00000" pt_clust_7="13000.00000" pt_clust_8="13000.00000" pt_clust_9="23.85400"></scales>
<clustering>
<clus scale="   23.854">  1  9  2 -1</clus>
<clus scale="   78.529">  5  6 -1 -1</clus>
<clus scale="   91.402">  7  8 -1 -1</clus>
<clus scale="  103.535">  2  5  1 -1</clus>
<clus scale="   23.854">  1  5  2 -1</clus>
</clustering>
</event>
<event>
 9    1  0.3197504E-005  0.9659802E+02  0.7546771E-02  0.1293562E+00
         21   -1    0    0  501  502  0.00000000000E+00  0.00000000000E+00  0.37397504166E+02  0.37397504166E+02  0.00000000000E+00 0.  1.
         -2   -1    0    0    0  501 -0.00000000000E+00 -0.00000000000E+00 -0.99722474353E+03  0.99722474353E+03  0.00000000000E+00 0.  1.
        -24    2    1    2    0    0 -0.28554311976E+02  0.29114499575E+02 -0.72233047423E+03  0.72794426502E+03  0.80489354342E+02 0.  0.
         23    2    1    2    0    0  0.42650489911E+01  0.54823836504E+02 -0.12722272789E+03  0.16597980979E+03  0.91322675590E+02 0.  0.
         13    1    3    3    0    0  0.23037571713E+02  0.20993248296E+01 -0.89553725194E+02  0.92493278519E+02  0.00000000000E+00 0. -1.
        -14    1    3    3    0    0 -0.51591883689E+02  0.27015174746E+02 -0.63277674903E+03  0.63545098650E+03  0.00000000000E+00 0.  1.
        -13    1    4    4    0    0  0.13545963267E+02 -0.19380176867E+02 -0.63399228952E+02  0.67664958493E+02  0.00000000000E+00 0. -1.
         13    1    4    4    0    0 -0.92809142762E+01  0.74204013371E+02 -0.63823498934E+02  0.98314851301E+02  0.00000000000E+00 0.  1.
         -1    1    1    2    0  502  0.24289262985E+02 -0.83938336079E+02 -0.11027403725E+03  0.14069817288E+03  0.00000000000E+00 0.  1.
<scales pt_clust_5="13000.00000" pt_clust_6="13000.00000" pt_clust_7="13000.00000" pt_clust_8="13000.00000" pt_clust_9="87.38199"></scales>
<clustering>
<clus scale="   80.489">  5  6 -1 -1</clus>
<clus scale="   87.382">  1  9  2 -1</clus>
<clus scale="   86.428">  2  5  1 -1</clus>
<clus scale="   91.323">  7  8 -1 -1</clus>
<clus scale="   87.382">  1  5  2 -1</clus>
</clustering>
</event>
<event>
 9    1  0.3197504E-005  0.1111476E+03  0.7546771E-02  0.1262104E+00
         -2   -1    0    0    0  501 -0.00000000000E+00  0.00000000000E+00  0.26533044203E+03  0.26533044203E+03  0.00000000000E+00 0.  1.
         21   -1    0    0  501  502  0.00000000000E+00 -0.00000000000E+00 -0.27793172022E+03  0.27793172022E+03  0.00000000000E+00 0.  1.
        -24    2    1    2    0    0  0.62050482137E+02  0.52929937896E+00  0.20818025801E+03  0.23166083283E+03  0.80480924145E+02 0.  0.
         23    2    1    2    0    0 -0.11766678924E+03 -0.31420082931E+02 -0.18308875553E+03  0.23765432246E+03  0.90140943408E+02 0.  0.
         11    1    3    3    0    0  0.33854895169E+02 -0.24604611666E+02  0.17928260048E+03  0.18410266614E+03  0.00000000000E+00 0. -1.
        -12    1    3    3    0    0  0.28195586968E+02  0.25133911045E+02  0.28897657529E+02  0.47558166697E+02  0.00000000000E+00 0.  1.
        -13    1    4    4    0    0 -0.20064327126E+01 -0.30328215502E+02 -0.68010470318E+02  0.74493291648E+02  0.00000000000E+00 0. -1.
         13    1    4    4    0    0 -0.11566035653E+03 -0.10918674288E+01 -0.11507828521E+03  0.16316103081E+03  0.00000000000E+00 0.  1.
         -1    1    1    2    0  502  0.55616307103E+02  0.30890783552E+02 -0.37692780668E+02  0.73947006962E+02  0.00000000000E+00 0.  1.
<scales pt_clust_5="13000.00000" pt_clust_6="13000.00000" pt_clust_7="13000.00000" pt_clust_8="13000.00000" pt_clust_9="63.61929"></scales>
<clustering>
<clus scale="   63.619">  2  9  1 -1</clus>
<clus scale="   80.481">  5  6 -1 -1</clus>
<clus scale="   90.141">  7  8 -1 -1</clus>
<clus scale="  103.468">  1  5  2 -1</clus>
<clus scale="   63.619">  2  5  1 -1</clus>
</clustering>
</event>
<event>
 9    1  0.3197504E-005  0.9989988E+02  0.7546771E-02  0.1284776E+00
         21   -1    0    0  501  502  0.00000000000E+00  0.00000000000E+00  0.27921533521E+03  0.27921533521E+03  0.00000000000E+00 0. -1.
         -4   -1    0    0    0  501 -0.00000000000E+00 -0.00000000000E+00 -0.42947105360E+02  0.42947105360E+02  0.00000000000E+00 0.  1.
         23    2    1    2    0    0  0.37098886211E+02 -0.26702027112E+02  0.82414704255E+02  0.13048707179E+03  0.90251685952E+02 0.  0.
        -24    2    1    2    0    0 -0.18170444109E+02  0.38169660030E+02  0.11814807523E+03  0.14966737298E+03  0.81573689806E+02 0.  0.
         13    1    4    4    0    0  0.25664030951E+02  0.38477235791E+02  0.45900221436E+02  0.65161111767E+02  0.00000000000E+00 0. -1.
        -14    1    4    4    0    0 -0.43834475060E+02 -0.30757576141E+00  0.72247853793E+02  0.84506261214E+02  0.00000000000E+00 0.  1.
        -11    1    3    3    0    0  0.38932295929E+02  0.12294417618E+02  0.17418163352E+01  0.40864535908E+02  0.00000000000E+00 0.  1.
         11    1    3    3    0    0 -0.18334097179E+01 -0.38996444730E+02  0.80672887920E+02  0.89622535883E+02  0.00000000000E+00 0. -1.
         -3    1    1    2    0  502 -0.18928442102E+02 -0.11467632917E+02  0.35705450364E+02  0.42007995797E+02  0.00000000000E+00 0.  1.
<scales pt_clust_5="13000.00000" pt_clust_6="13000.00000" pt_clust_7="13000.00000" pt_clust_8="13000.00000" pt_clust_9="22.13126"></scales>
<clustering>
<clus scale="   22.131">  1  9  2 -1</clus>
<clus scale="   81.574">  5  6 -1 -1</clus>
<clus scale="   90.252">  7  8 -1 -1</clus>
<clus scale="   92.135">  1  5  2 -1</clus>
<clus scale="   22.131">  1  5  2 -1</clus>
</clustering>
</event>
<event>
 9    1  0.3197504E-005  0.1886863E+03  0.7546771E-02  0.1160974E+00
         21   -1    0    0  501  502  0.00000000000E+00  0.00000000000E+00  0.11157634297E+03  0.11157634297E+03  0.00000000000E+00 0.  1.
         -2   -1    0    0    0  501 -0.00000000000E+00 -0.00000000000E+00 -0.61143054319E+03  0.61143054319E+03  0.00000000000E+00 0.  1.
        -24    2    1    2    0    0  0.29104404832E+02 -0.19918328219E+03 -0.39411299072E+03  0.44969559279E+03  0.79875092713E+02 0.  0.
         23    2    1    2    0    0  0.26541454615E+02  0.10350937784E+03 -0.53908656072E+02  0.15109602738E+03  0.92223783150E+02 0.  0.
         11    1    3    3    0    0 -0.23245959410E+02 -0.37907267991E+02 -0.11259425945E+03  0.12105702316E+03  0.00000000000E+00 0. -1.
        -12    1    3    3    0    0  0.52350364242E+02 -0.16127601420E+03 -0.28151873127E+03  0.32863856962E+03  0.00000000000E+00 0.  1.
        -13    1    4    4    0    0  0.54640994948E+02  0.90039450697E+02 -0.24252203816E+02  0.10807826054E+03  0.00000000000E+00 0.  1.
         13    1    4    4    0    0 -0.28099540334E+02  0.13469927141E+02 -0.29656452256E+02  0.43017766848E+02  0.00000000000E+00 0. -1.
         -1    1    1    2    0  502 -0.55645859447E+02  0.95673904349E+02 -0.51832553434E+02  0.12221526600E+03  0.00000000000E+00 0.  1.
<scales pt_clust_5="13000.00000" pt_clust_6="13000.00000" pt_clust_7="13000.00000" pt_clust_8="13000.00000" pt_clust_9="110.67953"></scales>
<clustering>
<clus scale="   79.875">  5  6 -1 -1</clus>
<clus scale="   92.224">  7  8 -1 -1</clus>
<clus scale="  110.680">  1  9  2 -1</clus>
<clus scale="  182.968">  2  5  1 -1</clus>
<clus scale="  110.680">  1  5  2 -1</clus>
</clustering>
</event>
<event>
 9    1  0.3197504E-005  0.1206712E+03  0.7546771E-02  0.1253142E+00
         21   -1    0    0  501  502  0.00000000000E+00  0.00000000000E+00  0.48219639681E+03  0.48219639681E+03  0.00000000000E+00 0.  1.
          1   -1    0    0  502    0 -0.00000000000E+00 -0.00000000000E+00 -0.18566558342E+03  0.18566558342E+03  0.00000000000E+00 0. -1.
        -24    2    1    2    0    0  0.29048259922E+02 -0.44724900712E+02 -0.95073661254E+02  0.13546107051E+03  0.80415063335E+02 0.  0.
         23    2    1    2    0    0 -0.10838651488E+02 -0.73293693947E+02  0.39584544136E+03  0.41291047361E+03  0.91170191601E+02 0.  0.
         13    1    3    3    0    0 -0.22972858600E+02 -0.37391719820E+02 -0.45875413945E+02  0.63485798002E+02  0.00000000000E+00 0. -1.
        -14    1    3    3    0    0  0.52021118522E+02 -0.73331808922E+01 -0.49198247310E+02  0.71975272508E+02  0.00000000000E+00 0.  1.
        -11    1    4    4    0    0  0.64716751834E+01 -0.91793572051E+02  0.31791473469E+03  0.33096483346E+03  0.00000000000E+00 0.  1.
         11    1    4    4    0    0 -0.17310326672E+02  0.18499878104E+02  0.77930706663E+02  0.81945640155E+02  0.00000000000E+00 0. -1.
          2    1    1    2  501    0 -0.18209608434E+02  0.11801859466E+03 -0.42409667138E+01  0.11949043612E+03  0.00000000000E+00 0. -1.
<scales pt_clust_5="13000.00000" pt_clust_6="13000.00000" pt_clust_7="13000.00000" pt_clust_8="13000.00000" pt_clust_9="79.05398"></scales>
<clustering>
<clus scale="   80.415">  5  6 -1 -1</clus>
<clus scale="   91.170">  7  8 -1 -1</clus>
<clus scale="   96.492">  2  5  1 -1</clus>
<clus scale="   79.054">  1  9  2 -1</clus>
<clus scale="   79.054">  1  5  2 -1</clus>
</clustering>
</event>
<event>
 9    1  0.3197504E-005  0.9237743E+02  0.7546771E-02  0.1303648E+00
         21   -1    0    0  501  502  0.00000000000E+00  0.00000000000E+00  0.40152889958E+03  0.40152889958E+03  0.00000000000E+00 0.  1.
         -2   -1    0    0    0  501 -0.00000000000E+00 -0.00000000000E+00 -0.33555714650E+02  0.33555714650E+02  0.00000000000E+00 0.  1.
        -24    2    1    2    0    0  0.40403095823E+01  0.16252588176E+02  0.86557221107E+02  0.11986260563E+03  0.81206040288E+02 0.  0.
         23    2    1    2    0    0  0.29290838715E+02  0.50047301059E+01  0.23657367282E+03  0.25544182718E+03  0.91653826150E+02 0.  0.
         11    1    3    3    0    0  0.12881626322E+02 -0.30975014472E+02  0.46317606571E+02  0.57190108382E+02  0.00000000000E+00 0. -1.
        -12    1    3    3    0    0 -0.88413167400E+01  0.47227602649E+02  0.40239614536E+02  0.62672497251E+02  0.00000000000E+00 0.  1.
        -11    1    4    4    0    0 -0.22066965309E+02  0.25865021796E+02  0.14019719352E+03  0.14426088652E+03  0.00000000000E+00 0.  1.
         11    1    4    4    0    0  0.51357804024E+02 -0.20860291690E+02  0.96376479300E+02  0.11118094066E+03  0.00000000000E+00 0. -1.
         -1    1    1    2    0  502 -0.33331148297E+02 -0.21257318282E+02  0.44842291006E+02  0.59780181415E+02  0.00000000000E+00 0.  1.
<scales pt_clust_5="13000.00000" pt_clust_6="13000.00000" pt_clust_7="13000.00000" pt_clust_8="13000.00000" pt_clust_9="39.53278"></scales>
<clustering>
<clus scale="   39.533">  1  9  2 -1</clus>
<clus scale="   81.206">  5  6 -1 -1</clus>
<clus scale="   82.022">  2  5  1 -1</clus>
<clus scale="   91.654">  7  8 -1 -1</clus>
<clus scale="   39.533">  1  5  2 -1</clus>
</clustering>
</event>
<event>
 9    1  0.3197504E-005  0.9377189E+02  0.7546771E-02  0.1300998E+00
          1   -1    0    0  502    0 -0.00000000000E+00  0.00000000000E+00  0.21086801580E+03  0.21086801580E+03  0.00000000000E+00 0. -1.
         21   -1    0    0  501  502  0.00000000000E+00 -0.00000000000E+00 -0.76396579499E+02  0.76396579499E+02  0.00000000000E+00 0. -1.
         23    2    1    2    0    0  0.85268636276E+01  0.43069768736E+02  0.12615439859E+03  0.15995513517E+03  0.87994321421E+02 0.  0.
        -24    2    1    2    0    0 -0.25005474508E+02 -0.36206320140E+01  0.21385575721E+02  0.82604139522E+02  0.75681690558E+02 0.  0.
         13    1    4    4    0    0 -0.14801629530E+02  0.29468375733E+02 -0.11426634586E+02  0.34900449610E+02  0.00000000000E+00 0. -1.
        -14    1    4    4    0    0 -0.10203844979E+02 -0.33089007747E+02  0.32812210307E+02  0.47703689912E+02  0.00000000000E+00 0.  1.
        -13    1    3    3    0    0  0.34204079419E+02 -0.12458079896E+02  0.37703371033E+02  0.52408653779E+02  0.00000000000E+00 0.  1.
         13    1    3    3    0    0 -0.25677215792E+02  0.55527848631E+02  0.88451027554E+02  0.10754648139E+03  0.00000000000E+00 0. -1.
          2    1    1    2  501    0  0.16478610881E+02 -0.39449136722E+02 -0.13068538008E+02  0.44705320604E+02  0.00000000000E+00 0. -1.
<scales pt_clust_5="13000.00000" pt_clust_6="13000.00000" pt_clust_7="13000.00000" pt_clust_8="13000.00000" pt_clust_9="42.75253"></scales>
<clustering>
<clus scale="   42.753">  2  9  1 -1</clus>
<clus scale="   75.682">  5  6 -1 -1</clus>
<clus scale="   82.328">  2  5  1 -1</clus>
<clus scale="   87.994">  7  8 -1 -1</clus>
<clus scale="   42.753">  2  5  1 -1</clus>
</clustering>
</event>
<event>
 9    1  0.3197504E-005  0.1983193E+03  0.7546771E-02  0.1152940E+00
         21   -1    0    0  501  502  0.00000000000E+00  0.00000000000E+00  0.70164513542E+02  0.70164513542E+02  0.00000000000E+00 0. -1.
          1   -1    0    0  502    0 -0.00000000000E+00 -0.00000000000E+00 -0.10382186438E+04  0.10382186438E+04  0.00000000000E+00 0. -1.
        -24    2    1    2    0    0 -0.14510246241E+03 -0.93095315794E+02 -0.58093846344E+03  0.61178303007E+03  0.84068514599E+02 0.  0.
         23    2    1    2    0    0  0.16036044734E+03  0.52257043033E+02 -0.12983767619E+03  0.23565466346E+03  0.10113865055E+03 0.  0.
         11    1    3    3    0    0 -0.14677055040E+03 -0.65427493741E+02 -0.52956636576E+03  0.55341023404E+03  0.00000000000E+00 0. -1.
        -12    1    3    3    0    0  0.16680879912E+01 -0.27667822053E+02 -0.51372097686E+02  0.58372796021E+02  0.00000000000E+00 0.  1.
        -11    1    4    4    0    0  0.13460577246E+03  0.69018100955E+01 -0.57645993125E+02  0.14659266519E+03  0.00000000000E+00 0. -1.
         11    1    4    4    0    0  0.25754674876E+02  0.45355232937E+02 -0.72191683065E+02  0.89061998273E+02  0.00000000000E+00 0.  1.
          2    1    1    2  501    0 -0.15257984927E+02  0.40838272761E+02 -0.25727799061E+03  0.26094546380E+03  0.00000000000E+00 0. -1.
<scales pt_clust_5="13000.00000" pt_clust_6="13000.00000" pt_clust_7="13000.00000" pt_clust_8="13000.00000" pt_clust_9="43.59556"></scales>
<clustering>
<clus scale="   43.596">  1  9  2 -1</clus>
<clus scale="   84.069">  5  6 -1 -1</clus>
<clus scale="  101.139">  7  8 -1 -1</clus>
<clus scale="  190.182">  2  5  1 -1</clus>
<clus scale="   43.596">  1  5  2 -1</clus>
</clustering>
</event>
<event>
 9    1  0.3197504E-005  0.1197640E+03  0.7546771E-02  0.1253922E+00
         -2   -1    0    0    0  501 -0.00000000000E+00  0.00000000000E+00  0.45156221380E+03  0.45156221380E+03  0.00000000000E+00 0.  1.
         21   -1    0    0  501  502  0.00000000000E+00 -0.00000000000E+00 -0.59809383574E+02  0.59809383574E+02  0.00000000000E+00 0. -1.
        -24    2    1    2    0    0 -0.46596110920E+02 -0.32131406998E+02  0.40258459003E+02  0.10519161949E+03  0.78999420384E+02 0.  0.
         23    2    1    2    0    0 -0.45144267004E+02 -0.14118943557E+01  0.21278495173E+03  0.23652811947E+03  0.92887659721E+02 0.  0.
         13    1    3    3    0    0 -0.68174039546E+02 -0.15961592879E+02  0.32060165579E+02  0.77008612065E+02  0.00000000000E+00 0. -1.
        -14    1    3    3    0    0  0.21577928626E+02 -0.16169814119E+02  0.81982934240E+01  0.28183007425E+02  0.00000000000E+00 0.  1.
        -13    1    4    4    0    0 -0.68662536417E+02  0.13311261085E+02  0.18255720101E+03  0.19549645833E+03  0.00000000000E+00 0.  1.
         13    1    4    4    0    0  0.23518269414E+02 -0.14723155440E+02  0.30227750719E+02  0.41031661140E+02  0.00000000000E+00 0. -1.
         -1    1    1    2    0  502  0.91740377924E+02  0.33543301353E+02  0.13870941949E+03  0.16965185841E+03  0.00000000000E+00 0.  1.
<scales pt_clust_5="13000.00000" pt_clust_6="13000.00000" pt_clust_7="13000.00000" pt_clust_8="13000.00000" pt_clust_9="75.59958"></scales>
<clustering>
<clus scale="   78.999">  5  6 -1 -1</clus>
<clus scale="   92.888">  7  8 -1 -1</clus>
<clus scale="   97.183">  1  5  2 -1</clus>
<clus scale="   75.600">  2  9  1 -1</clus>
<clus scale="   75.600">  2  5  1 -1</clus>
</clustering>
</event>
<event>
 9    1  0.3197504E-005  0.9522433E+02  0.7546771E-02  0.1296173E+00
         21   -1    0    0  501  502  0.00000000000E+00  0.00000000000E+00  0.21970949441E+03  0.21970949441E+03  0.00000000000E+00 0. -1.
         -2   -1    0    0    0  501 -0.00000000000E+00 -0.00000000000E+00 -0.72037298257E+02  0.72037298257E+02  0.00000000000E+00 0.  1.
        -24    2    1    2    0    0 -0.15530162673E+02 -0.22340044511E+02  0.33606856481E+02  0.95330694637E+02  0.84960326011E+02 0.  0.
         23    2    1    2    0    0  0.93794471206E+01 -0.33418653993E+02  0.53516976495E+02  0.11387539266E+03  0.94333227530E+02 0.  0.
         13    1    3    3    0    0 -0.18480778396E+02  0.20182251232E+02  0.43668732483E+02  0.51534654667E+02  0.00000000000E+00 0. -1.
        -14    1    3    3    0    0  0.29506157222E+01 -0.42522295743E+02 -0.10061876002E+02  0.43796039970E+02  0.00000000000E+00 0.  1.
        -11    1    4    4    0    0 -0.19015199610E+02  0.18665981136E+02 -0.85837901263E+01  0.27994251569E+02  0.00000000000E+00 0.  1.
         11    1    4    4    0    0  0.28394646730E+02 -0.52084635128E+02  0.62100766621E+02  0.85881141086E+02  0.00000000000E+00 0. -1.
         -1    1    1    2    0  502  0.61507155529E+01  0.55758698503E+02  0.60548363182E+02  0.82540705380E+02  0.00000000000E+00 0.  1.
<scales pt_clust_5="13000.00000" pt_clust_6="13000.00000" pt_clust_7="13000.00000" pt_clust_8="13000.00000" pt_clust_9="56.09691"></scales>
<clustering>
<clus scale="   56.097">  1  9  2 -1</clus>
<clus scale="   84.960">  5  6 -1 -1</clus>
<clus scale="   85.949">  2  5  1 -1</clus>
<clus scale="   94.333">  7  8 -1 -1</clus>
<clus scale="   56.097">  1  5  2 -1</clus>
</clustering>
</event>
<event>
 9    1  0.3197504E-005  0.1328101E+03  0.7546771E-02  0.1240454E+00
         21   -1    0    0  501  502  0.00000000000E+00  0.00000000000E+00  0.87708793541E+02  0.87708793541E+02  0.00000000000E+00 0. -1.
         -2   -1    0    0    0  501 -0.00000000000E+00 -0.00000000000E+00 -0.30165792339E+03  0.30165792339E+03  0.00000000000E+00 0.  1.
        -24    2    1    2    0    0 -0.58001772557E+02  0.14780771035E+02 -0.49950903595E+02  0.10590456965E+03  0.71679901576E+02 0.  0.
         23    2    1    2    0    0 -0.43140684952E+01 -0.85794020177E+02 -0.12373348341E+03  0.18076163552E+03  0.99927818327E+02 0.  0.
         11    1    3    3    0    0 -0.48510146845E+02 -0.23516646784E+02 -0.27793060587E+02  0.60652462767E+02  0.00000000000E+00 0. -1.
        -12    1    3    3    0    0 -0.94916257116E+01  0.38297417819E+02 -0.22157843007E+02  0.45252106879E+02  0.00000000000E+00 0.  1.
        -11    1    4    4    0    0  0.33587961189E+01 -0.53887360553E+02 -0.13011563172E+01  0.54007611932E+02  0.00000000000E+00 0. -1.
         11    1    4    4    0    0 -0.76728646141E+01 -0.31906659623E+02 -0.12243232709E+03  0.12675402359E+03  0.00000000000E+00 0.  1.
         -1    1    1    2    0  502  0.62315841052E+02  0.71013249142E+02 -0.40264742845E+02  0.10270051176E+03  0.00000000000E+00 0.  1.
<scales pt_clust_5="13000.00000" pt_clust_6="13000.00000" pt_clust_7="13000.00000" pt_clust_8="13000.00000" pt_clust_9="87.48114"></scales>
<clustering>
<clus scale="   71.680">  5  6 -1 -1</clus>
<clus scale="   93.385">  2  5  1 -1</clus>
<clus scale="   87.481">  1  9  2 -1</clus>
<clus scale="   99.928">  7  8 -1 -1</clus>
<clus scale="   87.481">  1  5  2 -1</clus>
</clustering>
</event>
<event>
 9    1  0.3197504E-005  0.1113561E+03  0.7546771E-02  0.1264049E+00
         21   -1    0    0  501  502  0.00000000000E+00  0.00000000000E+00  0.12386370585E+03  0.12386370585E+03  0.00000000000E+00 0.  1.
          3   -1    0    0  502    0 -0.00000000000E+00 -0.00000000000E+00 -0.19591495620E+03  0.19591495620E+03  0.00000000000E+00 0. -1.
        -24    2    1    2    0    0 -0.68248494620E+02 -0.62139159345E+01 -0.11389767597E+03  0.15503745358E+03  0.79796376185E+02 0.  0.
         23    2    1    2    0    0  0.17716542143E+02  0.59209318450E+01  0.56918341992E+02  0.11200861207E+03  0.94643004087E+02 0.  0.
         13    1    3    3    0    0 -0.57851389236E+02 -0.39402431461E+02 -0.82391883256E+02  0.10810993140E+03  0.00000000000E+00 0. -1.
        -14    1    3    3    0    0 -0.10397105384E+02  0.33188515526E+02 -0.31505792719E+02  0.46927522181E+02  0.00000000000E+00 0.  1.
        -13    1    4    4    0    0  0.52434380052E+02 -0.10120030695E+02  0.49975351243E+02  0.73139011236E+02  0.00000000000E+00 0.  1.
         13    1    4    4    0    0 -0.34717837909E+02  0.16040962540E+02  0.69429907487E+01  0.38869600831E+02  0.00000000000E+00 0. -1.
          4    1    1    2  501    0  0.50531952477E+02  0.29298408946E+00 -0.15071916369E+02  0.52732596407E+02  0.00000000000E+00 0. -1.
<scales pt_clust_5="13000.00000" pt_clust_6="13000.00000" pt_clust_7="13000.00000" pt_clust_8="13000.00000" pt_clust_9="50.53283"></scales>
<clustering>
<clus scale="   50.533">  1  9  2 -1</clus>
<clus scale="   79.796">  5  6 -1 -1</clus>
<clus scale="   94.643">  7  8 -1 -1</clus>
<clus scale="   99.047">  2  5  1 -1</clus>
<clus scale="   50.533">  1  5  2 -1</clus>
</clustering>
</event>
<event>
 9    1  0.3197504E-005  0.1244840E+03  0.7546771E-02  0.1238423E+00
         -2   -1    0    0    0  501 -0.00000000000E+00  0.00000000000E+00  0.35649317604E+03  0.35649317604E+03  0.00000000000E+00 0.  1.
         21   -1    0    0  501  502  0.00000000000E+00 -0.00000000000E+00 -0.11893272311E+03  0.11893272311E+03  0.00000000000E+00 0.  1.
         23    2    1    2    0    0 -0.11227904505E+03 -0.20431356058E+02  0.22594403644E+03  0.26876940822E+03  0.90345242950E+02 0.  0.
        -24    2    1    2    0    0  0.28510588558E+02  0.52213235391E+02  0.45788257728E+02  0.11076615309E+03  0.81446304489E+02 0.  0.
         13    1    4    4    0    0  0.28128393707E+02  0.21911771275E+00  0.51272887278E+02  0.58482164076E+02  0.00000000000E+00 0. -1.
        -14    1    4    4    0    0  0.38219485067E+00  0.51994117679E+02 -0.54846295506E+01  0.52283989016E+02  0.00000000000E+00 0.  1.
        -11    1    3    3    0    0 -0.86498481081E+02 -0.31296588818E+02  0.22227033492E+03  0.24055262520E+03  0.00000000000E+00 0.  1.
         11    1    3    3    0    0 -0.25780563969E+02  0.10865232760E+02  0.36737015181E+01  0.28216783025E+02  0.00000000000E+00 0. -1.
         -1    1    1    2    0  502  0.83768456491E+02 -0.31781879333E+02 -0.34171841235E+02  0.95890337836E+02  0.00000000000E+00 0.  1.
<scales pt_clust_5="13000.00000" pt_clust_6="13000.00000" pt_clust_7="13000.00000" pt_clust_8="13000.00000" pt_clust_9="89.59488"></scales>
<clustering>
<clus scale="   81.446">  5  6 -1 -1</clus>
<clus scale="   89.595">  2  9  1 -1</clus>
<clus scale="   90.345">  7  8 -1 -1</clus>
<clus scale="  118.184">  2  5  1 -1</clus>
<clus scale="   89.595">  2  5  1 -1</clus>
</clustering>
</event>
<event>
 9    1  0.3197504E-005  0.1124445E+03  0.7546771E-02  0.1256862E+00
         -2   -1    0    0    0  501 -0.00000000000E+00  0.00000000000E+00  0.37879161691E+03  0.37879161691E+03  0.00000000000E+00 0.  1.
         21   -1    0    0  501  502  0.00000000000E+00 -0.00000000000E+00 -0.11322361500E+03  0.11322361500E+03  0.00000000000E+00 0.  1.
        -24    2    1    2    0    0 -0.74735300757E+02  0.25029080821E+01  0.30064425418E+03  0.31997906047E+03  0.80049995870E+02 0.  0.
         23    2    1    2    0    0  0.89881552699E+02  0.33877511849E+02 -0.13825898738E+02  0.12726428933E+03  0.82332645642E+02 0.  0.
         11    1    3    3    0    0 -0.77086344525E+02 -0.15422901081E+02  0.28631006888E+03  0.29690676303E+03  0.00000000000E+00 0. -1.
        -12    1    3    3    0    0  0.23510437671E+01  0.17925809163E+02  0.14334185299E+02  0.23072297439E+02  0.00000000000E+00 0.  1.
        -13    1    4    4    0    0  0.55627585479E+02 -0.17167639686E+02 -0.27350331950E+02  0.64321044584E+02  0.00000000000E+00 0. -1.
         13    1    4    4    0    0  0.34253967220E+02  0.51045151535E+02  0.13524433212E+02  0.62943244747E+02  0.00000000000E+00 0.  1.
         -1    1    1    2    0  502 -0.15146251942E+02 -0.36380419931E+02 -0.21250353530E+02  0.44771882107E+02  0.00000000000E+00 0.  1.
<scales pt_clust_5="13000.00000" pt_clust_6="13000.00000" pt_clust_7="13000.00000" pt_clust_8="13000.00000" pt_clust_9="39.40741"></scales>
<clustering>
<clus scale="   39.407">  2  9  1 -1</clus>
<clus scale="   80.050">  5  6 -1 -1</clus>
<clus scale="   82.333">  7  8 -1 -1</clus>
<clus scale="  110.784">  1  5  2 -1</clus>
<clus scale="   39.407">  2  5  1 -1</clus>
</clustering>
</event>
<event>
 9    1  0.3197504E-005  0.9432178E+02  0.7546771E-02  0.1297799E+00
         21   -1    0    0  501  502  0.00000000000E+00  0.00000000000E+00  0.13749313857E+03  0.13749313857E+03  0.00000000000E+00 0.  1.
          1   -1    0    0  502    0 -0.00000000000E+00 -0.00000000000E+00 -0.17941163606E+03  0.17941163606E+03  0.00000000000E+00 0. -1.
        -24    2    1    2    0    0 -0.21685079090E+02  0.10678571733E+02 -0.12911835509E+03  0.15447854099E+03  0.81288347595E+02 0.  0.
         23    2    1    2    0    0  0.36827648021E+02 -0.33782688792E+02  0.46258395049E+02  0.11303695370E+03  0.90221771583E+02 0.  0.
         11    1    3    3    0    0 -0.94390700898E+01  0.40604884855E+02 -0.10823633665E+03  0.11598688413E+03  0.00000000000E+00 0. -1.
        -12    1    3    3    0    0 -0.12246009000E+02 -0.29926313122E+02 -0.20882018437E+02  0.38491656856E+02  0.00000000000E+00 0.  1.
        -13    1    4    4    0    0 -0.28281513169E+02 -0.22310698222E+02  0.89230167888E+01  0.37111069385E+02  0.00000000000E+00 0. -1.
         13    1    4    4    0    0  0.65109161190E+02 -0.11471990570E+02  0.37335378260E+02  0.75925884311E+02  0.00000000000E+00 0.  1.
          2    1    1    2  501    0 -0.15142568931E+02  0.23104117059E+02  0.40941462543E+02  0.49389279950E+02  0.00000000000E+00 0. -1.
<scales pt_clust_5="13000.00000" pt_clust_6="13000.00000" pt_clust_7="13000.00000" pt_clust_8="13000.00000" pt_clust_9="27.62422"></scales>
<clustering>
<clus scale="   27.624">  1  9  2 -1</clus>
<clus scale="   81.288">  5  6 -1 -1</clus>
<clus scale="   85.816">  2  5  1 -1</clus>
<clus scale="   90.222">  7  8 -1 -1</clus>
<clus scale="   27.624">  1  5  2 -1</clus>
</clustering>
</event>
<event>
 9    1  0.3197504E-005  0.1125115E+03  0.7546771E-02  0.1262218E+00
         21   -1    0    0  501  502  0.00000000000E+00  0.00000000000E+00  0.80411856729E+02  0.80411856729E+02  0.00000000000E+00 0. -1.
         -4   -1    0    0    0  501 -0.00000000000E+00 -0.00000000000E+00 -0.24337468708E+03  0.24337468708E+03  0.00000000000E+00 0.  1.
        -24    2    1    2    0    0  0.51450509393E+02  0.49272464839E+02 -0.14409647102E+03  0.17879994910E+03  0.78298774763E+02 0.  0.
         23    2    1    2    0    0 -0.33909226508E+02 -0.12486329738E+02 -0.22305751323E+01  0.10096767086E+03  0.94253652561E+02 0.  0.
         11    1    3    3    0    0  0.26574749745E+02  0.69075759577E+02 -0.98260920039E+02  0.12301579692E+03  0.00000000000E+00 0. -1.
        -12    1    3    3    0    0  0.24875759648E+02 -0.19803294738E+02 -0.45835550976E+02  0.55784152174E+02  0.00000000000E+00 0.  1.
        -11    1    4    4    0    0 -0.52682392065E+01 -0.35792271707E+02 -0.35921394760E+02  0.50982228863E+02  0.00000000000E+00 0.  1.
         11    1    4    4    0    0 -0.28640987301E+02  0.23305941969E+02  0.33690819628E+02  0.49985441999E+02  0.00000000000E+00 0. -1.
         -3    1    1    2    0  502 -0.17541282885E+02 -0.36786135100E+02 -0.16635784202E+02  0.44018923850E+02  0.00000000000E+00 0.  1.
<scales pt_clust_5="13000.00000" pt_clust_6="13000.00000" pt_clust_7="13000.00000" pt_clust_8="13000.00000" pt_clust_9="40.75434"></scales>
<clustering>
<clus scale="   40.754">  1  9  2 -1</clus>
<clus scale="   78.299">  5  6 -1 -1</clus>
<clus scale="   94.254">  7  8 -1 -1</clus>
<clus scale="   99.528">  2  5  1 -1</clus>
<clus scale="   40.754">  1  5  2 -1</clus>
</clustering>
</event>
<event>
 9    1  0.3197504E-005  0.1476486E+03  0.7546771E-02  0.1211219E+00
         21   -1    0    0  501  502  0.00000000000E+00  0.00000000000E+00  0.14802464983E+03  0.14802464983E+03  0.00000000000E+00 0.  1.
         -2   -1    0    0    0  501 -0.00000000000E+00 -0.00000000000E+00 -0.59359983513E+03  0.59359983513E+03  0.00000000000E+00 0.  1.
         23    2    1    2    0    0  0.72652249540E+02  0.85171996215E+02 -0.50627271396E+03  0.53073033926E+03  0.11326965086E+03 0.  0.
        -24    2    1    2    0    0 -0.19031232617E+02 -0.43441885783E+02 -0.28875526523E+02  0.98466623328E+02  0.81317246770E+02 0.  0.
         11    1    4    4    0    0 -0.34200522692E+02  0.53797618191E+01 -0.32138316298E+02  0.47238638466E+02  0.00000000000E+00 0. -1.
        -12    1    4    4    0    0  0.15169290074E+02 -0.48821647602E+02  0.32627897752E+01  0.51227984862E+02  0.00000000000E+00 0.  1.
        -11    1    3    3    0    0  0.25090217493E+02  0.98115163911E+02 -0.24951416520E+03  0.26928316516E+03  0.00000000000E+00 0.  1.
         11    1    3    3    0    0  0.47562032047E+02 -0.12943167696E+02 -0.25675854876E+03  0.26144717410E+03  0.00000000000E+00 0. -1.
         -1    1    1    2    0  502 -0.53621016923E+02 -0.41730110432E+02  0.89573055183E+02  0.11242752237E+03  0.00000000000E+00 0.  1.
<scales pt_clust_5="13000.00000" pt_clust_6="13000.00000" pt_clust_7="13000.00000" pt_clust_8="13000.00000" pt_clust_9="67.94568"></scales>
<clustering>
<clus scale="   67.946">  1  9  2 -1</clus>
<clus scale="   81.317">  5  6 -1 -1</clus>
<clus scale="  113.270">  7  8 -1 -1</clus>
<clus scale="  124.830">  1  5  2 -1</clus>
<clus scale="   67.946">  1  5  2 -1</clus>
</clustering>
</event>
<event>
 9    1  0.3197504E-005  0.9146705E+02  0.7546771E-02  0.1306449E+00
         21   -1    0    0  501  502  0.00000000000E+00  0.00000000000E+00  0.60662376353E+02  0.60662376353E+02  0.00000000000E+00 0. -1.
          1   -1    0    0  502    0 -0.00000000000E+00 -0.00000000000E+00 -0.17749536836E+03  0.17749536836E+03  0.00000000000E+00 0. -1.
        -24    2    1    2    0    0  0.22562790271E+02  0.47253277166E+01 -0.72119597617E+02  0.10967083964E+03  0.79341341550E+02 0.  0.
         23    2    1    2    0    0  0.61414145204E+01  0.20603928971E+01 -0.31717759339E+02  0.96255493270E+02  0.90648450267E+02 0.  0.
         13    1    3    3    0    0  0.82547111569E+01  0.21734071694E+02 -0.82084011352E+02  0.85312924275E+02  0.00000000000E+00 0. -1.
        -14    1    3    3    0    0  0.14308079114E+02 -0.17008743978E+02  0.99644137345E+01  0.24357915360E+02  0.00000000000E+00 0.  1.
        -13    1    4    4    0    0 -0.12270530967E+02 -0.40715682427E+02 -0.24648758078E+02  0.49151744633E+02  0.00000000000E+00 0.  1.
         13    1    4    4    0    0  0.18411945487E+02  0.42776075324E+02 -0.70690012609E+01  0.47103748636E+02  0.00000000000E+00 0. -1.
          2    1    1    2  501    0 -0.28704204791E+02 -0.67857206136E+01 -0.12995635055E+02  0.32231411813E+02  0.00000000000E+00 0. -1.
<scales pt_clust_5="13000.00000" pt_clust_6="13000.00000" pt_clust_7="13000.00000" pt_clust_8="13000.00000" pt_clust_9="29.49538"></scales>
<clustering>
<clus scale="   29.495">  1  9  2 -1</clus>
<clus scale="   79.341">  5  6 -1 -1</clus>
<clus scale="   80.275">  2  5  1 -1</clus>
<clus scale="   90.648">  7  8 -1 -1</clus>
<clus scale="   29.495">  1  5  2 -1</clus>
</clustering>
</event>
<event>
 9    1  0.3197504E-005  0.9859666E+02  0.7546771E-02  0.1290104E+00
         21   -1    0    0  501  502  0.00000000000E+00  0.00000000000E+00  0.75677822105E+02  0.75677822105E+02  0.00000000000E+00 0.  1.
         -2   -1    0    0    0  501 -0.00000000000E+00 -0.00000000000E+00 -0.51467195537E+03  0.51467195537E+03  0.00000000000E+00 0.  1.
        -24    2    1    2    0    0  0.61998264938E+01 -0.46828648655E+02 -0.28929776257E+03  0.30343437590E+03  0.78408321416E+02 0.  0.
         23    2    1    2    0    0 -0.61640076319E+02 -0.12195921525E+02 -0.17041625663E+03  0.20332811272E+03  0.91391363859E+02 0.  0.
         11    1    3    3    0    0 -0.35112410310E+02 -0.24030407261E+02 -0.16740408710E+03  0.17272657644E+03  0.00000000000E+00 0. -1.
        -12    1    3    3    0    0  0.41312236804E+02 -0.22798241394E+02 -0.12189367546E+03  0.13070779946E+03  0.00000000000E+00 0.  1.
        -11    1    4    4    0    0  0.69115616395E+01 -0.23918002053E+02 -0.72066137325E+01  0.25918637850E+02  0.00000000000E+00 0. -1.
         11    1    4    4    0    0 -0.68551637959E+02  0.11722080528E+02 -0.16320964290E+03  0.17740947487E+03  0.00000000000E+00 0.  1.
         -1    1    1    2    0  502  0.55440249826E+02  0.59024570180E+02  0.20719885931E+02  0.83587288858E+02  0.00000000000E+00 0.  1.
<scales pt_clust_5="13000.00000" pt_clust_6="13000.00000" pt_clust_7="13000.00000" pt_clust_8="13000.00000" pt_clust_9="80.97852"></scales>
<clustering>
<clus scale="   78.408">  5  6 -1 -1</clus>
<clus scale="   80.979">  1  9  2 -1</clus>
<clus scale="   86.699">  2  5  1 -1</clus>
<clus scale="   91.391">  7  8 -1 -1</clus>
<clus scale="   80.979">  1  5  2 -1</clus>
</clustering>
</event>
<event>
 9    1  0.3197504E-005  0.1900640E+03  0.7546771E-02  0.1159961E+00
         21   -1    0    0  501  502  0.00000000000E+00  0.00000000000E+00  0.62202350563E+03  0.62202350563E+03  0.00000000000E+00 0.  1.
         -4   -1    0    0    0  501 -0.00000000000E+00 -0.00000000000E+00 -0.72349363945E+02  0.72349363945E+02  0.00000000000E+00 0.  1.
        -24    2    1    2    0    0  0.13927730984E+03  0.63506201525E+02  0.23862150703E+03  0.29495882699E+03  0.81420386484E+02 0.  0.
         23    2    1    2    0    0 -0.17575063680E+03 -0.32620862928E+02  0.25140337479E+03  0.32297948285E+03  0.95706229931E+02 0.  0.
         11    1    3    3    0    0  0.10363193558E+03  0.27540633378E+02  0.97132888340E+02  0.14468193583E+03  0.00000000000E+00 0. -1.
        -12    1    3    3    0    0  0.35645374260E+02  0.35965568148E+02  0.14148861869E+03  0.15027689116E+03  0.00000000000E+00 0.  1.
        -11    1    4    4    0    0 -0.14931281212E+03 -0.39928032012E+02  0.25191014723E+03  0.29554574245E+03  0.00000000000E+00 0.  1.
         11    1    4    4    0    0 -0.26437824678E+02  0.73071690845E+01 -0.50677243500E+00  0.27433740394E+02  0.00000000000E+00 0. -1.
         -3    1    1    2    0  502  0.36473326965E+02 -0.30885338598E+02  0.59649259859E+02  0.76434559735E+02  0.00000000000E+00 0.  1.
<scales pt_clust_5="13000.00000" pt_clust_6="13000.00000" pt_clust_7="13000.00000" pt_clust_8="13000.00000" pt_clust_9="47.79341"></scales>
<clustering>
<clus scale="   47.793">  1  9  2 -1</clus>
<clus scale="   81.420">  5  6 -1 -1</clus>
<clus scale="   95.706">  7  8 -1 -1</clus>
<clus scale="  183.286">  2  5  1 -1</clus>
<clus scale="   47.793">  1  5  2 -1</clus>
</clustering>
</event>
<event>
 9    1  0.3197504E-005  0.1140475E+03  0.7546771E-02  0.1257253E+00
          1   -1    0    0  502    0 -0.00000000000E+00  0.00000000000E+00  0.61235981983E+03  0.61235981983E+03  0.00000000000E+00 0. -1.
         21   -1    0    0  501  502  0.00000000000E+00 -0.00000000000E+00 -0.73278206612E+02  0.73278206612E+02  0.00000000000E+00 0.  1.
        -24    2    1    2    0    0 -0.61732829835E+02 -0.12853257229E+02  0.27328920720E+03  0.29150615367E+03  0.79452491168E+02 0.  0.
         23    2    1    2    0    0  0.11212162696E+03  0.22127379129E+01  0.23109732245E+02  0.14604492899E+03  0.90658182858E+02 0.  0.
         13    1    3    3    0    0 -0.80781946045E+02 -0.61647895576E+01  0.22621749636E+03  0.24028750092E+03  0.00000000000E+00 0. -1.
        -14    1    3    3    0    0  0.19049116210E+02 -0.66884676714E+01  0.47071710837E+02  0.51218652748E+02  0.00000000000E+00 0.  1.
        -11    1    4    4    0    0  0.80068726959E+02 -0.24336305868E+02 -0.20084382794E+02  0.86061833890E+02  0.00000000000E+00 0.  1.
         11    1    4    4    0    0  0.32052899996E+02  0.26549043781E+02  0.43194115039E+02  0.59983095101E+02  0.00000000000E+00 0. -1.
          2    1    1    2  501    0 -0.50388797120E+02  0.10640519316E+02  0.24268267378E+03  0.24808694379E+03  0.00000000000E+00 0. -1.
<scales pt_clust_5="13000.00000" pt_clust_6="13000.00000" pt_clust_7="13000.00000" pt_clust_8="13000.00000" pt_clust_9="51.50004"></scales>
<clustering>
<clus scale="   51.500">  2  9  1 -1</clus>
<clus scale="   79.452">  5  6 -1 -1</clus>
<clus scale="   90.658">  7  8 -1 -1</clus>
<clus scale="  105.360">  1  5  2 -1</clus>
<clus scale="   51.500">  2  5  1 -1</clus>
</clustering>
</event>
<event>
 9    1  0.3197504E-005  0.1135435E+03  0.7546771E-02  0.1257852E+00
          3   -1    0    0  502    0 -0.00000000000E+00  0.00000000000E+00  0.13510497832E+03  0.13510497832E+03  0.00000000000E+00 0. -1.
         21   -1    0    0  501  502  0.00000000000E+00 -0.00000000000E+00 -0.19848186181E+03  0.19848186181E+03  0.00000000000E+00 0. -1.
         23    2    1    2    0    0  0.58941137377E+02  0.83381841198E+01  0.96329236342E+01  0.10984937208E+03  0.91817799689E+02 0.  0.
        -24    2    1    2    0    0 -0.68242146405E+02  0.52403431366E+02  0.11560478639E+02  0.11919950435E+03  0.81680885197E+02 0.  0.
         13    1    4    4    0    0 -0.51599780183E+02  0.30001835491E+02  0.45650180123E+02  0.75143771485E+02  0.00000000000E+00 0. -1.
        -14    1    4    4    0    0 -0.16642366222E+02  0.22401595874E+02 -0.34089701484E+02  0.44055732867E+02  0.00000000000E+00 0.  1.
        -11    1    3    3    0    0 -0.19056201129E+01  0.30258969304E+02 -0.22380882018E+02  0.37684751442E+02  0.00000000000E+00 0. -1.
         11    1    3    3    0    0  0.60846757490E+02 -0.21920785184E+02  0.32013805652E+02  0.72164620642E+02  0.00000000000E+00 0.  1.
          4    1    1    2  501    0  0.93010090278E+01 -0.60741615486E+02 -0.84570285762E+02  0.10453796370E+03  0.00000000000E+00 0. -1.
<scales pt_clust_5="13000.00000" pt_clust_6="13000.00000" pt_clust_7="13000.00000" pt_clust_8="13000.00000" pt_clust_9="61.44959"></scales>
<clustering>
<clus scale="   61.450">  2  9  1 -1</clus>
<clus scale="   81.681">  5  6 -1 -1</clus>
<clus scale="   91.818">  7  8 -1 -1</clus>
<clus scale="  105.515">  2  5  1 -1</clus>
<clus scale="   61.450">  2  5  1 -1</clus>
</clustering>
</event>
<event>
 9    1  0.3197504E-005  0.1109157E+03  0.7546771E-02  0.1263147E+00
         21   -1    0    0  501  502  0.00000000000E+00  0.00000000000E+00  0.41552092081E+02  0.41552092081E+02  0.00000000000E+00 0.  1.
         -2   -1    0    0    0  501 -0.00000000000E+00 -0.00000000000E+00 -0.60157216947E+03  0.60157216947E+03  0.00000000000E+00 0.  1.
        -24    2    1    2    0    0  0.58285184284E+02  0.45652799903E+02 -0.44721062689E+03  0.46017979476E+03  0.79289077792E+02 0.  0.
         23    2    1    2    0    0 -0.34329929485E+02 -0.71247847093E+01 -0.89257276869E+02  0.13182727721E+03  0.90455861769E+02 0.  0.
         13    1    3    3    0    0  0.38510979646E+02 -0.17114314623E+02 -0.19723286980E+03  0.20168490338E+03  0.00000000000E+00 0. -1.
        -14    1    3    3    0    0  0.19774204638E+02  0.62767114526E+02 -0.24997775708E+03  0.25849489138E+03  0.00000000000E+00 0.  1.
        -13    1    4    4    0    0 -0.58141125719E+02  0.10661520321E+02 -0.31759553434E+02  0.67102367691E+02  0.00000000000E+00 0. -1.
         13    1    4    4    0    0  0.23811196234E+02 -0.17786305030E+02 -0.57497723435E+02  0.64724909524E+02  0.00000000000E+00 0.  1.
         -1    1    1    2    0  502 -0.23955254799E+02 -0.38528015194E+02 -0.23552173630E+02  0.51117189574E+02  0.00000000000E+00 0.  1.
<scales pt_clust_5="13000.00000" pt_clust_6="13000.00000" pt_clust_7="13000.00000" pt_clust_8="13000.00000" pt_clust_9="45.36807"></scales>
<clustering>
<clus scale="   45.368">  1  9  2 -1</clus>
<clus scale="   79.289">  5  6 -1 -1</clus>
<clus scale="   90.456">  7  8 -1 -1</clus>
<clus scale="  102.014">  2  5  1 -1</clus>
<clus scale="   45.368">  1  5  2 -1</clus>
</clustering>
</event>
<event>
 9    1  0.3197504E-005  0.9622437E+02  0.7546771E-02  0.1296670E+00
          1   -1    0    0  502    0 -0.00000000000E+00  0.00000000000E+00  0.46301732399E+03  0.46301732399E+03  0.00000000000E+00 0. -1.
         21   -1    0    0  501  502  0.00000000000E+00 -0.00000000000E+00 -0.50338434438E+02  0.50338434438E+02  0.00000000000E+00 0. -1.
        -24    2    1    2    0    0  0.17088014509E+02  0.14570977737E+02  0.77366392323E+02  0.11440359391E+03  0.81229982191E+02 0.  0.
         23    2    1    2    0    0  0.22015907151E+02 -0.14190948717E+02  0.49306942457E+02  0.11028550819E+03  0.95108546146E+02 0.  0.
         13    1    3    3    0    0 -0.31562224205E+01  0.36944721010E+02  0.75570610793E+02  0.84177142777E+02  0.00000000000E+00 0. -1.
        -14    1    3    3    0    0  0.20244236930E+02 -0.22373743273E+02  0.17957815301E+01  0.30226451135E+02  0.00000000000E+00 0.  1.
        -11    1    4    4    0    0  0.45011972204E+02 -0.24254985771E+02 -0.40781191984E+01  0.51293401453E+02  0.00000000000E+00 0. -1.
         11    1    4    4    0    0 -0.22996065053E+02  0.10064037054E+02  0.53385061655E+02  0.58992106740E+02  0.00000000000E+00 0.  1.
          2    1    1    2  501    0 -0.39103921660E+02 -0.38002902002E+00  0.28600555477E+03  0.28866665632E+03  0.00000000000E+00 0. -1.
<scales pt_clust_5="13000.00000" pt_clust_6="13000.00000" pt_clust_7="13000.00000" pt_clust_8="13000.00000" pt_clust_9="39.10579"></scales>
<clustering>
<clus scale="   39.106">  2  9  1 -1</clus>
<clus scale="   81.230">  5  6 -1 -1</clus>
<clus scale="   82.534">  1  5  2 -1</clus>
<clus scale="   95.109">  7  8 -1 -1</clus>
<clus scale="   39.106">  2  5  1 -1</clus>
</clustering>
</event>
<event>
 9    1  0.3197504E-005  0.4181636E+03  0.7546771E-02  0.1092889E+00
         21   -1    0    0  501  502  0.00000000000E+00  0.00000000000E+00  0.91096030362E+03  0.91096030362E+03  0.00000000000E+00 0. -1.
          1   -1    0    0  502    0 -0.00000000000E+00 -0.00000000000E+00 -0.36528645573E+03  0.36528645573E+03  0.00000000000E+00 0. -1.
        -24    2    1    2    0    0  0.12403604384E+02 -0.33232231239E+02 -0.89684579294E+02  0.12738602324E+03  0.83220457568E+02 0.  0.
         23    2    1    2    0    0  0.11507432641E+03 -0.37983042358E+03  0.58436467107E+03  0.71357721609E+03  0.10098080632E+03 0.  0.
         13    1    3    3    0    0  0.32942020983E+02  0.14195983081E+02 -0.53033562058E+02  0.64025474513E+02  0.00000000000E+00 0. -1.
        -14    1    3    3    0    0 -0.20538416599E+02 -0.47428214320E+02 -0.36651017236E+02  0.63360548722E+02  0.00000000000E+00 0.  1.
        -11    1    4    4    0    0  0.61427663504E+02 -0.88229859042E+02  0.10735725058E+03  0.15193237023E+03  0.00000000000E+00 0.  1.
         11    1    4    4    0    0  0.53646662910E+02 -0.29160056454E+03  0.47700742049E+03  0.56164484586E+03  0.00000000000E+00 0. -1.
          2    1    1    2  501    0 -0.12747793080E+03  0.41306265482E+03  0.50993756110E+02  0.43528352003E+03  0.00000000000E+00 0. -1.
<scales pt_clust_5="13000.00000" pt_clust_6="13000.00000" pt_clust_7="13000.00000" pt_clust_8="13000.00000" pt_clust_9="405.78795"></scales>
<clustering>
<clus scale="   83.220">  5  6 -1 -1</clus>
<clus scale="   90.465">  2  5  1 -1</clus>
<clus scale="  100.981">  7  8 -1 -1</clus>
<clus scale="  405.788">  1  9  2 -1</clus>
<clus scale="  405.788">  1  5  2 -1</clus>
</clustering>
</event>
<event>
 9    1  0.3197504E-005  0.1996608E+03  0.7546771E-02  0.1151322E+00
          1   -1    0    0  502    0 -0.00000000000E+00  0.00000000000E+00  0.71154251585E+03  0.71154251585E+03  0.00000000000E+00 0. -1.
         21   -1    0    0  501  502  0.00000000000E+00 -0.00000000000E+00 -0.36471567705E+03  0.36471567705E+03  0.00000000000E+00 0.  1.
         23    2    1    2    0    0 -0.14864290752E+03  0.93775858882E+02  0.62656503263E+03  0.65722547629E+03  0.92048687719E+02 0.  0.
        -24    2    1    2    0    0  0.18169345127E+03 -0.72036191177E+02 -0.96456025216E+02  0.23152990348E+03  0.78106391106E+02 0.  0.
         11    1    4    4    0    0  0.51741052472E+02  0.14765586357E+02 -0.18573578018E+02  0.56922199991E+02  0.00000000000E+00 0. -1.
        -12    1    4    4    0    0  0.12995239880E+03 -0.86801777535E+02 -0.77882447199E+02  0.17460770349E+03  0.00000000000E+00 0.  1.
        -13    1    3    3    0    0 -0.71604589473E+02 -0.18214995914E+01  0.17075146353E+03  0.18516640460E+03  0.00000000000E+00 0.  1.
         13    1    3    3    0    0 -0.77038318044E+02  0.95597358474E+02  0.45581356910E+03  0.47205907169E+03  0.00000000000E+00 0. -1.
          2    1    1    2  501    0 -0.33050543757E+02 -0.21739667705E+02 -0.18328216861E+03  0.18750281312E+03  0.00000000000E+00 0. -1.
<scales pt_clust_5="13000.00000" pt_clust_6="13000.00000" pt_clust_7="13000.00000" pt_clust_8="13000.00000" pt_clust_9="39.55947"></scales>
<clustering>
<clus scale="   39.559">  2  9  1 -1</clus>
<clus scale="   78.106">  5  6 -1 -1</clus>
<clus scale="   92.049">  7  8 -1 -1</clus>
<clus scale="  193.629">  2  5  1 -1</clus>
<clus scale="   39.559">  2  5  1 -1</clus>
</clustering>
</event>
<event>
 9    1  0.3197504E-005  0.1298218E+03  0.7546771E-02  0.1229656E+00
          3   -1    0    0  502    0 -0.00000000000E+00  0.00000000000E+00  0.40110287363E+03  0.40110287363E+03  0.00000000000E+00 0. -1.
         21   -1    0    0  501  502  0.00000000000E+00 -0.00000000000E+00 -0.61531730911E+02  0.61531730911E+02  0.00000000000E+00 0. -1.
         23    2    1    2    0    0  0.81107815488E+02  0.32646149342E+02  0.21910002013E+03  0.25188991492E+03  0.88314560635E+02 0.  0.
        -24    2    1    2    0    0 -0.94730160374E+02 -0.56701940942E+02  0.12175243913E+03  0.18306995092E+03  0.80635210080E+02 0.  0.
         11    1    4    4    0    0 -0.74090597214E+01 -0.20776941636E+02 -0.72360419550E+01  0.23214990262E+02  0.00000000000E+00 0. -1.
        -12    1    4    4    0    0 -0.87321100653E+02 -0.35924999306E+02  0.12898848108E+03  0.15985496066E+03  0.00000000000E+00 0.  1.
        -11    1    3    3    0    0  0.37487174241E+02 -0.76723355012E+01  0.17165396059E+03  0.17586709514E+03  0.00000000000E+00 0. -1.
         11    1    3    3    0    0  0.43620641247E+02  0.40318484843E+02  0.47446059533E+02  0.76022819785E+02  0.00000000000E+00 0.  1.
          4    1    1    2  501    0  0.13622344886E+02  0.24055791600E+02 -0.12813165418E+01  0.27674738694E+02  0.00000000000E+00 0. -1.
<scales pt_clust_5="13000.00000" pt_clust_6="13000.00000" pt_clust_7="13000.00000" pt_clust_8="13000.00000" pt_clust_9="27.64506"></scales>
<clustering>
<clus scale="   27.645">  2  9  1 -1</clus>
<clus scale="   80.635">  5  6 -1 -1</clus>
<clus scale="   88.315">  7  8 -1 -1</clus>
<clus scale="  124.725">  2  5  1 -1</clus>
<clus scale="   27.645">  2  5  1 -1</clus>
</clustering>
</event>
<event>
 9    1  0.3197504E-005  0.1734915E+03  0.7546771E-02  0.1175959E+00
         -2   -1    0    0    0  501 -0.00000000000E+00  0.00000000000E+00  0.15449887435E+03  0.15449887435E+03  0.00000000000E+00 0.  1.
         21   -1    0    0  501  502  0.00000000000E+00 -0.00000000000E+00 -0.32415314696E+03  0.32415314696E+03  0.00000000000E+00 0. -1.
         23    2    1    2    0    0 -0.11242998457E+03 -0.11314826267E+03 -0.21461821111E+02  0.18481915189E+03  0.90854159874E+02 0.  0.
        -24    2    1    2    0    0  0.11254965032E+03  0.61373889921E+02 -0.17911875932E+03  0.23352502159E+03  0.77564344999E+02 0.  0.
         11    1    4    4    0    0  0.67817217991E+02  0.41307084630E+02 -0.16401151225E+03  0.18222301295E+03  0.00000000000E+00 0. -1.
        -12    1    4    4    0    0  0.44732432331E+02  0.20066805291E+02 -0.15107247076E+02  0.51302008645E+02  0.00000000000E+00 0.  1.
        -11    1    3    3    0    0 -0.68035209466E+02 -0.32854321410E+02 -0.47750722714E+02  0.89377445041E+02  0.00000000000E+00 0.  1.
         11    1    3    3    0    0 -0.44394775100E+02 -0.80293941262E+02  0.26288901603E+02  0.95441706853E+02  0.00000000000E+00 0. -1.
         -1    1    1    2    0  502 -0.11966575519E+00  0.51774372751E+02  0.30926307823E+02  0.60307847824E+02  0.00000000000E+00 0.  1.
<scales pt_clust_5="13000.00000" pt_clust_6="13000.00000" pt_clust_7="13000.00000" pt_clust_8="13000.00000" pt_clust_9="51.77454"></scales>
<clustering>
<clus scale="   51.775">  2  9  1 -1</clus>
<clus scale="   77.564">  5  6 -1 -1</clus>
<clus scale="   90.854">  7  8 -1 -1</clus>
<clus scale="  166.916">  2  5  1 -1</clus>
<clus scale="   51.775">  2  5  1 -1</clus>
</clustering>
</event>
<event>
 9    1  0.3197504E-005  0.1193269E+03  0.7546771E-02  0.1247233E+00
          1   -1    0    0  502    0 -0.00000000000E+00  0.00000000000E+00  0.66525009820E+03  0.66525009820E+03  0.00000000000E+00 0. -1.
         21   -1    0    0  501  502  0.00000000000E+00 -0.00000000000E+00 -0.76301747452E+02  0.76301747452E+02  0.00000000000E+00 0.  1.
        -24    2    1    2    0    0  0.83166695306E+02  0.17252307988E+02  0.18632842419E+03  0.22029688139E+03  0.81228646115E+02 0.  0.
         23    2    1    2    0    0 -0.40334319225E+02 -0.51101302236E+02 -0.32800116550E+01  0.11170017343E+03  0.90708157684E+02 0.  0.
         11    1    3    3    0    0  0.73568244483E+02 -0.22163105046E+02  0.11705464382E+03  0.14001885395E+03  0.00000000000E+00 0. -1.
        -12    1    3    3    0    0  0.95984508232E+01  0.39415413033E+02  0.69273780375E+02  0.80278027443E+02  0.00000000000E+00 0.  1.
        -13    1    4    4    0    0  0.28857079548E+01 -0.46448232013E+02  0.31358785382E+02  0.56117189774E+02  0.00000000000E+00 0.  1.
         13    1    4    4    0    0 -0.43220027180E+02 -0.46530702225E+01 -0.34638797037E+02  0.55582983656E+02  0.00000000000E+00 0. -1.
          2    1    1    2  501    0 -0.42832376081E+02  0.33848994248E+02  0.40589993821E+03  0.40955479083E+03  0.00000000000E+00 0. -1.
<scales pt_clust_5="13000.00000" pt_clust_6="13000.00000" pt_clust_7="13000.00000" pt_clust_8="13000.00000" pt_clust_9="54.59276"></scales>
<clustering>
<clus scale="   54.593">  2  9  1 -1</clus>
<clus scale="   81.229">  5  6 -1 -1</clus>
<clus scale="   90.708">  7  8 -1 -1</clus>
<clus scale="  112.290">  1  5  2 -1</clus>
<clus scale="   54.593">  2  5  1 -1</clus>
</clustering>
</event>
<event>
 9    1  0.3197504E-005  0.1004325E+03  0.7546771E-02  0.1284534E+00
         21   -1    0    0  501  502  0.00000000000E+00  0.00000000000E+00  0.89858546158E+02  0.89858546158E+02  0.00000000000E+00 0.  1.
         -2   -1    0    0    0  501 -0.00000000000E+00 -0.00000000000E+00 -0.20914248610E+03  0.20914248610E+03  0.00000000000E+00 0.  1.
        -24    2    1    2    0    0 -0.52978242292E+02  0.24660358325E+02 -0.11006874485E+03  0.14703709454E+03  0.78038139061E+02 0.  0.
         23    2    1    2    0    0  0.21646489233E+02  0.18366122013E+02  0.13368059149E+02  0.94145600388E+02  0.88762628020E+02 0.  0.
         13    1    3    3    0    0  0.15328904832E+02  0.23388442107E+02 -0.22028407012E+02  0.35598388490E+02  0.00000000000E+00 0. -1.
        -14    1    3    3    0    0 -0.68307147124E+02  0.12719162176E+01 -0.88040337835E+02  0.11143870605E+03  0.00000000000E+00 0.  1.
        -11    1    4    4    0    0  0.10940655247E+02  0.51702001543E+02 -0.75141377570E+01  0.53378433538E+02  0.00000000000E+00 0.  1.
         11    1    4    4    0    0  0.10705833986E+02 -0.33335879530E+02  0.20882196906E+02  0.40767166850E+02  0.00000000000E+00 0. -1.
         -1    1    1    2    0  502  0.31331753059E+02 -0.43026480338E+02 -0.22583254245E+02  0.57818337336E+02  0.00000000000E+00 0.  1.
<scales pt_clust_5="13000.00000" pt_clust_6="13000.00000" pt_clust_7="13000.00000" pt_clust_8="13000.00000" pt_clust_9="53.22553"></scales>
<clustering>
<clus scale="   53.226">  1  9  2 -1</clus>
<clus scale="   78.038">  5  6 -1 -1</clus>
<clus scale="   88.763">  7  8 -1 -1</clus>
<clus scale="   91.092">  2  5  1 -1</clus>
<clus scale="   53.226">  1  5  2 -1</clus>
</clustering>
</event>
<event>
 9    1  0.3197504E-005  0.4558629E+03  0.7546771E-02  0.1026136E+00
          1   -1    0    0  502    0 -0.00000000000E+00  0.00000000000E+00  0.15667235408E+04  0.15667235408E+04  0.00000000000E+00 0. -1.
         21   -1    0    0  501  502  0.00000000000E+00 -0.00000000000E+00 -0.23495391446E+03  0.23495391446E+03  0.00000000000E+00 0. -1.
         23    2    1    2    0    0  0.40404225073E+03 -0.20966540650E+03  0.12041751996E+04  0.12906379578E+04  0.92188413726E+02 0.  0.
        -24    2    1    2    0    0 -0.36441820567E+03  0.20296046946E+03  0.16518597410E+03  0.45601090883E+03  0.81645343654E+02 0.  0.
         13    1    4    4    0    0 -0.34734092192E+03  0.20477026382E+03  0.14269435669E+03  0.42771282002E+03  0.00000000000E+00 0. -1.
        -14    1    4    4    0    0 -0.17077283750E+02 -0.18097943523E+01  0.22491617415E+02  0.28298088801E+02  0.00000000000E+00 0.  1.
        -13    1    3    3    0    0  0.33990292378E+03 -0.15410709339E+03  0.88718402198E+03  0.96248557532E+03  0.00000000000E+00 0. -1.
         13    1    3    3    0    0  0.64139326948E+02 -0.55558313112E+02  0.31699117766E+03  0.32815238249E+03  0.00000000000E+00 0.  1.
          2    1    1    2  501    0 -0.39624045063E+02  0.67049370381E+01 -0.37591547417E+02  0.55028588615E+02  0.00000000000E+00 0. -1.
<scales pt_clust_5="13000.00000" pt_clust_6="13000.00000" pt_clust_7="13000.00000" pt_clust_8="13000.00000" pt_clust_9="40.18733"></scales>
<clustering>
<clus scale="   40.187">  2  9  1 -1</clus>
<clus scale="   81.645">  5  6 -1 -1</clus>
<clus scale="   92.188">  7  8 -1 -1</clus>
<clus scale="  453.848">  2  5  1 -1</clus>
<clus scale="   40.187">  2  5  1 -1</clus>
</clustering>
</event>
<event>
 9    1  0.3197504E-005  0.9306537E+02  0.7546771E-02  0.1303208E+00
         21   -1    0    0  501  502  0.00000000000E+00  0.00000000000E+00  0.34576799126E+02  0.34576799126E+02  0.00000000000E+00 0.  1.
          1   -1    0    0  502    0 -0.00000000000E+00 -0.00000000000E+00 -0.38506809261E+03  0.38506809261E+03  0.00000000000E+00 0. -1.
        -24    2    1    2    0    0 -0.18555578124E+02  0.14617576730E+02 -0.25875117472E+03  0.27141969726E+03  0.78476102184E+02 0.  0.
         23    2    1    2    0    0 -0.18919808918E+01 -0.72944410186E+01 -0.58242125224E+02  0.10830218660E+03  0.90996868137E+02 0.  0.
         11    1    3    3    0    0 -0.30108303927E+02  0.40302485368E+02 -0.20053673185E+03  0.20675052869E+03  0.00000000000E+00 0. -1.
        -12    1    3    3    0    0  0.11552725803E+02 -0.25684908638E+02 -0.58214442867E+02  0.64669168570E+02  0.00000000000E+00 0.  1.
        -13    1    4    4    0    0 -0.23256029435E+02  0.15724321395E+02  0.12630132859E+02  0.30783395596E+02  0.00000000000E+00 0.  1.
         13    1    4    4    0    0  0.21364048543E+02 -0.23018762413E+02 -0.70872258083E+02  0.77518791006E+02  0.00000000000E+00 0. -1.
          2    1    1    2  501    0  0.20447559016E+02 -0.73231357115E+01 -0.33497993538E+02  0.39923007870E+02  0.00000000000E+00 0. -1.
<scales pt_clust_5="13000.00000" pt_clust_6="13000.00000" pt_clust_7="13000.00000" pt_clust_8="13000.00000" pt_clust_9="21.71938"></scales>
<clustering>
<clus scale="   21.719">  1  9  2 -1</clus>
<clus scale="   78.476">  5  6 -1 -1</clus>
<clus scale="   80.866">  2  5  1 -1</clus>
<clus scale="   90.997">  7  8 -1 -1</clus>
<clus scale="   21.719">  1  5  2 -1</clus>
</clustering>
</event>
<event>
 9    1  0.3197504E-005  0.1460679E+03  0.7546771E-02  0.1232573E+00
         21   -1    0    0  501  502  0.00000000000E+00  0.00000000000E+00  0.95772072183E+02  0.95772072183E+02  0.00000000000E+00 0.  1.
         -2   -1    0    0    0  501 -0.00000000000E+00 -0.00000000000E+00 -0.72022014032E+03  0.72022014032E+03  0.00000000000E+00 0.  1.
        -24    2    1    2    0    0  0.86611358123E+00 -0.23131193437E+02 -0.55260296630E+02  0.99260285937E+02  0.79139760665E+02 0.  0.
         23    2    1    2    0    0 -0.49378669256E+02  0.12586495230E+03 -0.58032690994E+03  0.60257513232E+03  0.89650591182E+02 0.  0.
         13    1    3    3    0    0  0.39242717202E+02 -0.17262788136E+02 -0.22255625225E+02  0.48304322392E+02  0.00000000000E+00 0. -1.
        -14    1    3    3    0    0 -0.38376603621E+02 -0.58684053012E+01 -0.33004671405E+02  0.50955963545E+02  0.00000000000E+00 0.  1.
        -11    1    4    4    0    0 -0.31979182483E+01  0.24888662738E+02 -0.22179212368E+02  0.33490142957E+02  0.00000000000E+00 0. -1.
         11    1    4    4    0    0 -0.46180751008E+02  0.10097628956E+03 -0.55814769757E+03  0.56908498936E+03  0.00000000000E+00 0.  1.
         -1    1    1    2    0  502  0.48512555675E+02 -0.10273375886E+03  0.11139138429E+02  0.11415679425E+03  0.00000000000E+00 0.  1.
<scales pt_clust_5="13000.00000" pt_clust_6="13000.00000" pt_clust_7="13000.00000" pt_clust_8="13000.00000" pt_clust_9="115.31961"></scales>
<clustering>
<clus scale="   79.140">  5  6 -1 -1</clus>
<clus scale="   82.456">  2  5  1 -1</clus>
<clus scale="   89.651">  7  8 -1 -1</clus>
<clus scale="  115.320">  1  9  2 -1</clus>
<clus scale="  115.320">  1  5  2 -1</clus>
</clustering>
</event>
<event>
 9    1  0.4607560E-005  0.2558171E+03  0.7546771E-02  0.1146425E+00
          1   -1    0    0  502    0 -0.00000000000E+00  0.00000000000E+00  0.64799588408E+03  0.64799588408E+03  0.00000000000E+00 0. -1.
         21   -1    0    0  501  502  0.00000000000E+00 -0.00000000000E+00 -0.72258027933E+03  0.72258027933E+03  0.00000000000E+00 0. -1.
        -24    2    1    2    0    0  0.26042538552E+02 -0.61676211028E+02 -0.22006338267E+03  0.24314806992E+03  0.78809407382E+02 0.  0.
         23    2    1    2    0    0 -0.59403534326E+02  0.29504030875E+03  0.56473703153E+03  0.64644049937E+03  0.91541470213E+02 0.  0.
         11    1    3    3    0    0  0.52037132809E+02 -0.32835466233E+02 -0.10488345936E+03  0.12160004556E+03  0.00000000000E+00 0. -1.
        -12    1    3    3    0    0 -0.25994594257E+02 -0.28840744796E+02 -0.11517992331E+03  0.12154802436E+03  0.00000000000E+00 0.  1.
        -13    1    4    4    0    0 -0.49173748946E+02  0.25013298021E+03  0.39145504337E+03  0.46714196595E+03  0.00000000000E+00 0.  1.
         13    1    4    4    0    0 -0.10229785380E+02  0.44907328539E+02  0.17328198816E+03  0.17929853341E+03  0.00000000000E+00 0. -1.
          2    1    1    2  501    0  0.33360995774E+02 -0.23336409772E+03 -0.41925804411E+03  0.48098759412E+03  0.00000000000E+00 0. -1.
<scales pt_clust_5="13000.00000" pt_clust_6="13000.00000" pt_clust_7="13000.00000" pt_clust_8="13000.00000" pt_clust_9="238.87767"></scales>
<clustering>
<clus scale="   78.809">  5  6 -1 -1</clus>
<clus scale="   91.541">  7  8 -1 -1</clus>
<clus scale="  103.407">  1  5  2 -1</clus>
<clus scale="  238.878">  2  9  1 -1</clus>
<clus scale="  238.878">  2  5  1 -1</clus>
</clustering>
</event>
<event>
 9    1  0.3197504E-005  0.1027284E+03  0.7546771E-02  0.1279334E+00
         21   -1    0    0  501  502  0.00000000000E+00  0.00000000000E+00  0.58129323832E+03  0.58129323832E+03  0.00000000000E+00 0.  1.
         -4   -1    0    0    0  501 -0.00000000000E+00 -0.00000000000E+00 -0.57868069068E+03  0.57868069068E+03  0.00000000000E+00 0.  1.
        -24    2    1    2    0    0  0.40619454278E+02 -0.27129217876E+02 -0.56322309937E+03  0.57103555825E+03  0.80469960849E+02 0.  0.
         23    2    1    2    0    0 -0.40470482615E+02 -0.14882810702E+02  0.23593272126E+03  0.25637112468E+03  0.90567911501E+02 0.  0.
         11    1    3    3    0    0  0.14788494354E+02  0.28264118450E+02 -0.15357174261E+03  0.15684973728E+03  0.00000000000E+00 0. -1.
        -12    1    3    3    0    0  0.25830959924E+02 -0.55393336326E+02 -0.40965135676E+03  0.41418582098E+03  0.00000000000E+00 0.  1.
        -13    1    4    4    0    0 -0.50074675810E+02  0.27004485836E+02  0.12234908474E+03  0.13492966297E+03  0.00000000000E+00 0. -1.
         13    1    4    4    0    0  0.96041931945E+01 -0.41887296538E+02  0.11358363652E+03  0.12144146171E+03  0.00000000000E+00 0.  1.
         -3    1    1    2    0  502 -0.14897166279E+00  0.42012028578E+02  0.32990292575E+03  0.33256724606E+03  0.00000000000E+00 0.  1.
<scales pt_clust_5="13000.00000" pt_clust_6="13000.00000" pt_clust_7="13000.00000" pt_clust_8="13000.00000" pt_clust_9="42.01229"></scales>
<clustering>
<clus scale="   42.012">  1  9  2 -1</clus>
<clus scale="   80.470">  5  6 -1 -1</clus>
<clus scale="   90.568">  7  8 -1 -1</clus>
<clus scale="   93.947">  2  5  1 -1</clus>
<clus scale="   42.012">  1  5  2 -1</clus>
</clustering>
</event>
<event>
 9    1  0.3197504E-005  0.1093314E+03  0.7546771E-02  0.1266094E+00
         -2   -1    0    0    0  501 -0.00000000000E+00  0.00000000000E+00  0.35652330444E+03  0.35652330444E+03  0.00000000000E+00 0.  1.
         21   -1    0    0  501  502  0.00000000000E+00 -0.00000000000E+00 -0.16603253434E+03  0.16603253434E+03  0.00000000000E+00 0. -1.
        -24    2    1    2    0    0  0.43161390090E+02  0.42563905095E+02  0.28818298062E+03  0.30496250409E+03  0.79234506206E+02 0.  0.
         23    2    1    2    0    0 -0.75493469308E+02 -0.24145295059E+02 -0.77441655378E+01  0.12025239089E+03  0.90102198827E+02 0.  0.
         13    1    3    3    0    0  0.25395697586E+02 -0.78836853829E+01  0.25334777561E+02  0.36727985313E+02  0.00000000000E+00 0. -1.
        -14    1    3    3    0    0  0.17765692504E+02  0.50447590478E+02  0.26284820306E+03  0.26823451878E+03  0.00000000000E+00 0.  1.
        -11    1    4    4    0    0  0.70067872113E+01  0.19628881848E+02  0.13024393325E+02  0.24576877164E+02  0.00000000000E+00 0.  1.
         11    1    4    4    0    0 -0.82500256519E+02 -0.43774176907E+02 -0.20768558863E+02  0.95675513727E+02  0.00000000000E+00 0. -1.
         -1    1    1    2    0  502  0.32332079219E+02 -0.18418610037E+02 -0.89948044984E+02  0.97340943794E+02  0.00000000000E+00 0.  1.
<scales pt_clust_5="13000.00000" pt_clust_6="13000.00000" pt_clust_7="13000.00000" pt_clust_8="13000.00000" pt_clust_9="37.21033"></scales>
<clustering>
<clus scale="   37.210">  2  9  1 -1</clus>
<clus scale="   79.235">  5  6 -1 -1</clus>
<clus scale="   90.102">  7  8 -1 -1</clus>
<clus scale="  100.564">  1  5  2 -1</clus>
<clus scale="   37.210">  2  5  1 -1</clus>
</clustering>
</event>
<event>
 9    1  0.3197504E-005  0.1092038E+03  0.7546771E-02  0.1269235E+00
          1   -1    0    0  502    0 -0.00000000000E+00  0.00000000000E+00  0.45091655141E+03  0.45091655141E+03  0.00000000000E+00 0. -1.
         21   -1    0    0  501  502  0.00000000000E+00 -0.00000000000E+00 -0.38275115237E+02  0.38275115237E+02  0.00000000000E+00 0.  1.
         23    2    1    2    0    0  0.90958798963E+01  0.81297288907E+02  0.25392804755E+03  0.28110925220E+03  0.88605722865E+02 0.  0.
        -24    2    1    2    0    0 -0.24443001791E+02 -0.43389378597E+02  0.13686082901E+03  0.16171347898E+03  0.70287013430E+02 0.  0.
         13    1    4    4    0    0 -0.11197385649E+02 -0.39285782919E+02  0.14135288137E+03  0.14713732109E+03  0.00000000000E+00 0. -1.
        -14    1    4    4    0    0 -0.13245616142E+02 -0.41035956780E+01 -0.44920523670E+01  0.14576157893E+02  0.00000000000E+00 0.  1.
        -11    1    3    3    0    0 -0.25979822951E+02  0.48464744552E+02  0.20612792544E+03  0.21333659862E+03  0.00000000000E+00 0.  1.
         11    1    3    3    0    0  0.35075702848E+02  0.32832544355E+02  0.47800122106E+02  0.67772653574E+02  0.00000000000E+00 0. -1.
          2    1    1    2  501    0  0.15347121894E+02 -0.37907910310E+02  0.21852559619E+02  0.46368935468E+02  0.00000000000E+00 0. -1.
<scales pt_clust_5="13000.00000" pt_clust_6="13000.00000" pt_clust_7="13000.00000" pt_clust_8="13000.00000" pt_clust_9="40.89675"></scales>
<clustering>
<clus scale="   40.897">  2  9  1 -1</clus>
<clus scale="   70.287">  5  6 -1 -1</clus>
<clus scale="   88.606">  7  8 -1 -1</clus>
<clus scale="   94.946">  2  5  1 -1</clus>
<clus scale="   40.897">  2  5  1 -1</clus>
</clustering>
</event>
<event>
 9    1  0.3197504E-005  0.1118130E+03  0.7546771E-02  0.1259149E+00
         21   -1    0    0  501  502  0.00000000000E+00  0.00000000000E+00  0.14750080299E+03  0.14750080299E+03  0.00000000000E+00 0.  1.
         -2   -1    0    0    0  501 -0.00000000000E+00 -0.00000000000E+00 -0.17419624484E+03  0.17419624484E+03  0.00000000000E+00 0.  1.
         23    2    1    2    0    0  0.94625986000E+02  0.28541844363E+02 -0.80774387448E+02  0.15399041998E+03  0.86138456410E+02 0.  0.
        -24    2    1    2    0    0 -0.22223287193E+02 -0.16723843593E+02  0.29201061922E+02  0.90242281000E+02  0.80730451656E+02 0.  0.
         11    1    4    4    0    0 -0.33686970164E+02 -0.28745872659E+02 -0.11946752282E+02  0.45867875946E+02  0.00000000000E+00 0. -1.
        -12    1    4    4    0    0  0.11463682971E+02  0.12022029066E+02  0.41147814204E+02  0.44374405054E+02  0.00000000000E+00 0.  1.
        -13    1    3    3    0    0  0.27958624086E+02 -0.30977959240E+02 -0.26348557756E+02  0.49351444916E+02  0.00000000000E+00 0. -1.
         13    1    3    3    0    0  0.66667361914E+02  0.59519803602E+02 -0.54425829692E+02  0.10463897507E+03  0.00000000000E+00 0.  1.
         -1    1    1    2    0  502 -0.72402698807E+02 -0.11818000770E+02  0.24877883671E+02  0.77464346848E+02  0.00000000000E+00 0.  1.
<scales pt_clust_5="13000.00000" pt_clust_6="13000.00000" pt_clust_7="13000.00000" pt_clust_8="13000.00000" pt_clust_9="73.36086"></scales>
<clustering>
<clus scale="   73.361">  1  9  2 -1</clus>
<clus scale="   80.730">  5  6 -1 -1</clus>
<clus scale="   86.138">  7  8 -1 -1</clus>
<clus scale="  107.702">  1  5  2 -1</clus>
<clus scale="   73.361">  1  5  2 -1</clus>
</clustering>
</event>
<event>
 9    1  0.3197504E-005  0.9332960E+02  0.7546771E-02  0.1302160E+00
          1   -1    0    0  502    0 -0.00000000000E+00  0.00000000000E+00  0.32934009473E+03  0.32934009473E+03  0.00000000000E+00 0. -1.
         21   -1    0    0  501  502  0.00000000000E+00 -0.00000000000E+00 -0.41813670853E+02  0.41813670853E+02  0.00000000000E+00 0.  1.
        -24    2    1    2    0    0 -0.69726295430E+01 -0.66310902333E+01  0.15843285684E+03  0.17814129038E+03  0.80874967018E+02 0.  0.
         23    2    1    2    0    0 -0.24299119909E+02  0.18035828957E+02  0.12646561405E+03  0.15962240908E+03  0.92574421889E+02 0.  0.
         13    1    3    3    0    0  0.30362390083E+02 -0.24147225512E+02  0.60373933725E+02  0.71763327019E+02  0.00000000000E+00 0. -1.
        -14    1    3    3    0    0 -0.37335019626E+02  0.17516135279E+02  0.98058923116E+02  0.10637796336E+03  0.00000000000E+00 0.  1.
        -11    1    4    4    0    0 -0.36599548981E+02  0.50039940345E+02  0.69487450917E+02  0.93123726570E+02  0.00000000000E+00 0.  1.
         11    1    4    4    0    0  0.12300429072E+02 -0.32004111388E+02  0.56978163133E+02  0.66498682506E+02  0.00000000000E+00 0. -1.
          2    1    1    2  501    0  0.31271749452E+02 -0.11404738724E+02  0.26279529869E+01  0.33390066128E+02  0.00000000000E+00 0. -1.
<scales pt_clust_5="13000.00000" pt_clust_6="13000.00000" pt_clust_7="13000.00000" pt_clust_8="13000.00000" pt_clust_9="33.28649"></scales>
<clustering>
<clus scale="   33.286">  2  9  1 -1</clus>
<clus scale="   80.875">  5  6 -1 -1</clus>
<clus scale="   81.738">  1  5  2 -1</clus>
<clus scale="   92.574">  7  8 -1 -1</clus>
<clus scale="   33.286">  2  5  1 -1</clus>
</clustering>
</event>
<event>
 9    1  0.3197504E-005  0.9027325E+02  0.7546771E-02  0.1305819E+00
         21   -1    0    0  501  502  0.00000000000E+00  0.00000000000E+00  0.88827477615E+02  0.88827477615E+02  0.00000000000E+00 0. -1.
          1   -1    0    0  502    0 -0.00000000000E+00 -0.00000000000E+00 -0.22186400809E+03  0.22186400809E+03  0.00000000000E+00 0. -1.
         23    2    1    2    0    0 -0.10015087675E+02 -0.78644482328E+01 -0.11277918082E+03  0.14318649104E+03  0.87298774701E+02 0.  0.
        -24    2    1    2    0    0  0.56782047707E+02 -0.30098172083E+02 -0.26479921308E+02  0.10694899175E+03  0.81282222523E+02 0.  0.
         13    1    4    4    0    0  0.43754421827E+02 -0.57925503194E+02 -0.22291534955E+02  0.75938961544E+02  0.00000000000E+00 0. -1.
        -14    1    4    4    0    0  0.13027625880E+02  0.27827331111E+02 -0.41883863533E+01  0.31010030202E+02  0.00000000000E+00 0.  1.
        -11    1    3    3    0    0 -0.32147150762E+02  0.20904042231E+02 -0.19344145341E+02  0.42948972546E+02  0.00000000000E+00 0.  1.
         11    1    3    3    0    0  0.22132063088E+02 -0.28768490464E+02 -0.93435035477E+02  0.10023751850E+03  0.00000000000E+00 0. -1.
          2    1    1    2  501    0 -0.46766960033E+02  0.37962620316E+02  0.62225716472E+01  0.60556002921E+02  0.00000000000E+00 0. -1.
<scales pt_clust_5="13000.00000" pt_clust_6="13000.00000" pt_clust_7="13000.00000" pt_clust_8="13000.00000" pt_clust_9="60.23545"></scales>
<clustering>
<clus scale="   60.235">  1  9  2 -1</clus>
<clus scale="   81.282">  5  6 -1 -1</clus>
<clus scale="   84.469">  1  5  2 -1</clus>
<clus scale="   87.299">  7  8 -1 -1</clus>
<clus scale="   60.235">  1  5  2 -1</clus>
</clustering>
</event>
<event>
 9    1  0.3197504E-005  0.9099335E+02  0.7546771E-02  0.1308464E+00
          1   -1    0    0  502    0 -0.00000000000E+00  0.00000000000E+00  0.31519441267E+03  0.31519441267E+03  0.00000000000E+00 0. -1.
         21   -1    0    0  501  502  0.00000000000E+00 -0.00000000000E+00 -0.51100975040E+02  0.51100975040E+02  0.00000000000E+00 0. -1.
        -24    2    1    2    0    0 -0.13959460165E+02  0.50189856687E+01  0.22593702910E+03  0.23929551362E+03  0.77425738448E+02 0.  0.
         23    2    1    2    0    0 -0.41688286753E+01 -0.23048563250E+02  0.40305939597E+02  0.10134210709E+03  0.89983545730E+02 0.  0.
         11    1    3    3    0    0 -0.15419096530E+02 -0.32206573936E+02  0.15622237604E+03  0.16025118633E+03  0.00000000000E+00 0. -1.
        -12    1    3    3    0    0  0.14596363644E+01  0.37225559605E+02  0.69714653052E+02  0.79044327288E+02  0.00000000000E+00 0.  1.
        -11    1    4    4    0    0  0.26413130809E+02 -0.22524802542E+02  0.56818128708E+02  0.66583180748E+02  0.00000000000E+00 0.  1.
         11    1    4    4    0    0 -0.30581959484E+02 -0.52376070852E+00 -0.16512189111E+02  0.34758926342E+02  0.00000000000E+00 0. -1.
          2    1    1    2  501    0  0.18128288841E+02  0.18029577582E+02 -0.21495310599E+01  0.25657767008E+02  0.00000000000E+00 0. -1.
<scales pt_clust_5="13000.00000" pt_clust_6="13000.00000" pt_clust_7="13000.00000" pt_clust_8="13000.00000" pt_clust_9="25.56757"></scales>
<clustering>
<clus scale="   25.568">  2  9  1 -1</clus>
<clus scale="   77.426">  5  6 -1 -1</clus>
<clus scale="   78.597">  1  5  2 -1</clus>
<clus scale="   89.984">  7  8 -1 -1</clus>
<clus scale="   25.568">  2  5  1 -1</clus>
</clustering>
</event>
<event>
 9    1  0.3197504E-005  0.1481002E+03  0.7546771E-02  0.1204715E+00
          1   -1    0    0  502    0 -0.00000000000E+00  0.00000000000E+00  0.14120357177E+03  0.14120357177E+03  0.00000000000E+00 0. -1.
         21   -1    0    0  501  502  0.00000000000E+00 -0.00000000000E+00 -0.27556287317E+03  0.27556287317E+03  0.00000000000E+00 0. -1.
         23    2    1    2    0    0 -0.12103997646E+03 -0.23586453982E+02 -0.22832093817E+02  0.15598741035E+03  0.92756514424E+02 0.  0.
        -24    2    1    2    0    0  0.89906483969E+02  0.52050165950E+02 -0.15225537944E+03  0.20214234610E+03  0.82990552981E+02 0.  0.
         11    1    4    4    0    0  0.80299964902E+02  0.67249306306E+02 -0.15145447690E+03  0.18414399837E+03  0.00000000000E+00 0. -1.
        -12    1    4    4    0    0  0.96065190672E+01 -0.15199140355E+02 -0.80090253437E+00  0.17998347730E+02  0.00000000000E+00 0.  1.
        -11    1    3    3    0    0 -0.15772273695E+02 -0.30431459976E+02 -0.35966022125E+02  0.49682925852E+02  0.00000000000E+00 0.  1.
         11    1    3    3    0    0 -0.10526770277E+03  0.68450059934E+01  0.13133928307E+02  0.10630448450E+03  0.00000000000E+00 0. -1.
          2    1    1    2  501    0  0.31133492492E+02 -0.28463711968E+02  0.40728171854E+02  0.58636688483E+02  0.00000000000E+00 0. -1.
<scales pt_clust_5="13000.00000" pt_clust_6="13000.00000" pt_clust_7="13000.00000" pt_clust_8="13000.00000" pt_clust_9="42.18387"></scales>
<clustering>
<clus scale="   42.184">  2  9  1 -1</clus>
<clus scale="   82.991">  5  6 -1 -1</clus>
<clus scale="   92.757">  7  8 -1 -1</clus>
<clus scale="  142.188">  2  5  1 -1</clus>
<clus scale="   42.184">  2  5  1 -1</clus>
</clustering>
</event>
<event>
 9    1  0.3197504E-005  0.1255685E+03  0.7546771E-02  0.1235895E+00
         -2   -1    0    0    0  501 -0.00000000000E+00  0.00000000000E+00  0.64491806866E+03  0.64491806866E+03  0.00000000000E+00 0.  1.
         21   -1    0    0  501  502  0.00000000000E+00 -0.00000000000E+00 -0.41009757157E+02  0.41009757157E+02  0.00000000000E+00 0.  1.
        -24    2    1    2    0    0 -0.75396016735E+02 -0.39042521325E+02  0.22794325031E+03  0.25765832548E+03  0.84975346533E+02 0.  0.
         23    2    1    2    0    0  0.97712565166E+02 -0.25322897062E+02  0.27016508300E+03  0.30243400930E+03  0.91039350843E+02 0.  0.
         13    1    3    3    0    0 -0.83350419786E+01  0.19111864729E+02  0.98639118078E+02  0.10081870815E+03  0.00000000000E+00 0. -1.
        -14    1    3    3    0    0 -0.67060974756E+02 -0.58154386054E+02  0.12930413223E+03  0.15683961733E+03  0.00000000000E+00 0.  1.
        -11    1    4    4    0    0  0.12390261316E+02 -0.34576603709E+02  0.15210069856E+03  0.15647262573E+03  0.00000000000E+00 0. -1.
         11    1    4    4    0    0  0.85322303850E+02  0.92537066475E+01  0.11806438443E+03  0.14596138357E+03  0.00000000000E+00 0.  1.
         -1    1    1    2    0  502 -0.22316548432E+02  0.64365418387E+02  0.10579997820E+03  0.12583549104E+03  0.00000000000E+00 0.  1.
<scales pt_clust_5="13000.00000" pt_clust_6="13000.00000" pt_clust_7="13000.00000" pt_clust_8="13000.00000" pt_clust_9="68.12441"></scales>
<clustering>
<clus scale="   68.124">  2  9  1 -1</clus>
<clus scale="   84.975">  5  6 -1 -1</clus>
<clus scale="   91.039">  7  8 -1 -1</clus>
<clus scale="  121.244">  1  5  2 -1</clus>
<clus scale="   68.124">  2  5  1 -1</clus>
</clustering>
</event>
<event>
 9    1  0.3197504E-005  0.1362206E+03  0.7546771E-02  0.1226178E+00
         21   -1    0    0  501  502  0.00000000000E+00  0.00000000000E+00  0.50607909983E+03  0.50607909983E+03  0.00000000000E+00 0. -1.
          1   -1    0    0  502    0 -0.00000000000E+00 -0.00000000000E+00 -0.51302745790E+02  0.51302745790E+02  0.00000000000E+00 0. -1.
        -24    2    1    2    0    0 -0.44945499183E+02  0.38515541816E+02  0.19416372553E+03  0.21921843065E+03  0.82786612231E+02 0.  0.
         23    2    1    2    0    0  0.97844414033E+02 -0.48940441214E+02  0.22684955226E+03  0.27454801560E+03  0.10930323584E+03 0.  0.
         11    1    3    3    0    0 -0.31419050646E+02  0.63815807041E+02  0.15620132374E+03  0.17163469204E+03  0.00000000000E+00 0. -1.
        -12    1    3    3    0    0 -0.13526448538E+02 -0.25300265225E+02  0.37962401793E+02  0.47583738613E+02  0.00000000000E+00 0.  1.
        -11    1    4    4    0    0  0.11838934868E+02 -0.32350528700E+02  0.16184646403E+03  0.16547203693E+03  0.00000000000E+00 0.  1.
         11    1    4    4    0    0  0.86005479165E+02 -0.16589912514E+02  0.65003088226E+02  0.10907597867E+03  0.00000000000E+00 0. -1.
          2    1    1    2  501    0 -0.52898914850E+02  0.10424899398E+02  0.33763076248E+02  0.63615399373E+02  0.00000000000E+00 0. -1.
<scales pt_clust_5="13000.00000" pt_clust_6="13000.00000" pt_clust_7="13000.00000" pt_clust_8="13000.00000" pt_clust_9="53.91639"></scales>
<clustering>
<clus scale="   53.916">  1  9  2 -1</clus>
<clus scale="   82.787">  5  6 -1 -1</clus>
<clus scale="  109.303">  7  8 -1 -1</clus>
<clus scale="  116.028">  2  5  1 -1</clus>
<clus scale="   53.916">  1  5  2 -1</clus>
</clustering>
</event>
<event>
 9    1  0.3197504E-005  0.1722994E+03  0.7546771E-02  0.1197888E+00
         -4   -1    0    0    0  501 -0.00000000000E+00  0.00000000000E+00  0.12172770471E+03  0.12172770471E+03  0.00000000000E+00 0.  1.
         21   -1    0    0  501  502  0.00000000000E+00 -0.00000000000E+00 -0.67675836732E+03  0.67675836732E+03  0.00000000000E+00 0.  1.
        -24    2    1    2    0    0 -0.59300297889E+02  0.28430861752E+02  0.41838295540E+02  0.11274602541E+03  0.81464004579E+02 0.  0.
         23    2    1    2    0    0 -0.10395272152E+03 -0.65848059754E+01 -0.13063733618E+03  0.19126990211E+03  0.93104961564E+02 0.  0.
         13    1    3    3    0    0  0.39403206560E+01 -0.22585238331E+02  0.13967706755E+02  0.26846153343E+02  0.00000000000E+00 0. -1.
        -14    1    3    3    0    0 -0.63240618545E+02  0.51016100083E+02  0.27870588785E+02  0.85899872065E+02  0.00000000000E+00 0.  1.
        -13    1    4    4    0    0 -0.38306359754E+02 -0.44553118682E+02 -0.32178118413E+02  0.66990961230E+02  0.00000000000E+00 0. -1.
         13    1    4    4    0    0 -0.65646361764E+02  0.37968312707E+02 -0.98459217769E+02  0.12427894088E+03  0.00000000000E+00 0.  1.
         -3    1    1    2    0  502  0.16325301941E+03 -0.21846055777E+02 -0.46623162196E+03  0.49447014451E+03  0.00000000000E+00 0.  1.
<scales pt_clust_5="13000.00000" pt_clust_6="13000.00000" pt_clust_7="13000.00000" pt_clust_8="13000.00000" pt_clust_9="144.97777"></scales>
<clustering>
<clus scale="   81.464">  5  6 -1 -1</clus>
<clus scale="   93.105">  7  8 -1 -1</clus>
<clus scale="  104.696">  1  5  2 -1</clus>
<clus scale="  144.978">  2  9  1 -1</clus>
<clus scale="  144.978">  2  5  1 -1</clus>
</clustering>
</event>
<event>
 9    1  0.3197504E-005  0.1445102E+03  0.7546771E-02  0.1209109E+00
         -2   -1    0    0    0  501 -0.00000000000E+00  0.00000000000E+00  0.14142900615E+03  0.14142900615E+03  0.00000000000E+00 0.  1.
         21   -1    0    0  501  502  0.00000000000E+00 -0.00000000000E+00 -0.18540221245E+03  0.18540221245E+03  0.00000000000E+00 0.  1.
        -24    2    1    2    0    0  0.31848771319E+02 -0.12258777257E+03 -0.64830000450E+01  0.15192391522E+03  0.83646521182E+02 0.  0.
         23    2    1    2    0    0 -0.15736598605E+02  0.92267424972E+02 -0.46678502606E+02  0.13936366292E+03  0.92100106889E+02 0.  0.
         13    1    3    3    0    0  0.90696204769E+01 -0.43519086266E+02 -0.43047600779E+02  0.61881053787E+02  0.00000000000E+00 0. -1.
        -14    1    3    3    0    0  0.22779150842E+02 -0.79068686308E+02  0.36564600734E+02  0.90042861429E+02  0.00000000000E+00 0.  1.
        -11    1    4    4    0    0  0.36226319234E+02  0.25334514208E+02 -0.28806530228E+02  0.52763623825E+02  0.00000000000E+00 0.  1.
         11    1    4    4    0    0 -0.51962917839E+02  0.66932910764E+02 -0.17871972378E+02  0.86600039090E+02  0.00000000000E+00 0. -1.
         -1    1    1    2    0  502 -0.16112172714E+02  0.30320347601E+02  0.91882963423E+01  0.35543640470E+02  0.00000000000E+00 0.  1.
<scales pt_clust_5="13000.00000" pt_clust_6="13000.00000" pt_clust_7="13000.00000" pt_clust_8="13000.00000" pt_clust_9="34.33550"></scales>
<clustering>
<clus scale="   34.336">  2  9  1 -1</clus>
<clus scale="   83.647">  5  6 -1 -1</clus>
<clus scale="   92.100">  7  8 -1 -1</clus>
<clus scale="  139.275">  1  5  2 -1</clus>
<clus scale="   34.336">  2  5  1 -1</clus>
</clustering>
</event>
<event>
 9    1  0.3197504E-005  0.1220306E+03  0.7546771E-02  0.1241188E+00
          1   -1    0    0  502    0 -0.00000000000E+00  0.00000000000E+00  0.39786086045E+03  0.39786086045E+03  0.00000000000E+00 0. -1.
         21   -1    0    0  501  502  0.00000000000E+00 -0.00000000000E+00 -0.45031427281E+03  0.45031427281E+03  0.00000000000E+00 0. -1.
        -24    2    1    2    0    0 -0.56026178424E+02 -0.54884772149E+02  0.34510780078E+03  0.36653537922E+03  0.95380916224E+02 0.  0.
         23    2    1    2    0    0  0.90248928606E+02 -0.24746648356E+02 -0.81382926881E+02  0.15379669942E+03  0.90955913743E+02 0.  0.
         11    1    3    3    0    0 -0.76991388262E+02 -0.27279468698E+02  0.29124583986E+03  0.30248302848E+03  0.00000000000E+00 0. -1.
        -12    1    3    3    0    0  0.20965209839E+02 -0.27605303450E+02  0.53861960916E+02  0.64052350745E+02  0.00000000000E+00 0.  1.
        -13    1    4    4    0    0  0.96734744687E+02 -0.50005541387E+01 -0.89115013818E+02  0.13162105477E+03  0.00000000000E+00 0.  1.
         13    1    4    4    0    0 -0.64858160814E+01 -0.19746094217E+02  0.77320869371E+01  0.22175644646E+02  0.00000000000E+00 0. -1.
          2    1    1    2  501    0 -0.34222750182E+02  0.79631420505E+02 -0.31617828626E+03  0.32784305462E+03  0.00000000000E+00 0. -1.
<scales pt_clust_5="13000.00000" pt_clust_6="13000.00000" pt_clust_7="13000.00000" pt_clust_8="13000.00000" pt_clust_9="86.67387"></scales>
<clustering>
<clus scale="   86.674">  2  9  1 -1</clus>
<clus scale="   90.956">  7  8 -1 -1</clus>
<clus scale="   95.381">  5  6 -1 -1</clus>
<clus scale="  118.604">  2  7  1 -1</clus>
<clus scale="   86.674">  2  5  1 -1</clus>
</clustering>
</event>
<event>
 9    1  0.3197504E-005  0.1317118E+03  0.7546771E-02  0.1267605E+00
         21   -1    0    0  501  502  0.00000000000E+00  0.00000000000E+00  0.78132216132E+02  0.78132216132E+02  0.00000000000E+00 0.  1.
         -2   -1    0    0    0  501 -0.00000000000E+00 -0.00000000000E+00 -0.52275638353E+03  0.52275638353E+03  0.00000000000E+00 0.  1.
        -24    2    1    2    0    0 -0.37666258596E+01 -0.68448123149E-01 -0.33725491205E+03  0.34184838726E+03  0.55724788130E+02 0.  0.
         23    2    1    2    0    0 -0.88347873805E+02  0.20201981093E+02 -0.10106148201E+03  0.16454032773E+03  0.92987254271E+02 0.  0.
         11    1    3    3    0    0 -0.25392117153E+02 -0.15074873726E+02 -0.17820106089E+03  0.18063119756E+03  0.00000000000E+00 0. -1.
        -12    1    3    3    0    0  0.21625491293E+02  0.15006425603E+02 -0.15905385117E+03  0.16121718970E+03  0.00000000000E+00 0.  1.
        -11    1    4    4    0    0 -0.91750279254E+02  0.45411253889E+02 -0.68313362291E+02  0.12307319444E+03  0.00000000000E+00 0.  1.
         11    1    4    4    0    0  0.34024054491E+01 -0.25209272796E+02 -0.32748119720E+02  0.41467133286E+02  0.00000000000E+00 0. -1.
         -1    1    1    2    0  502  0.92114499664E+02 -0.20133532970E+02 -0.63077733297E+01  0.94499884670E+02  0.00000000000E+00 0.  1.
<scales pt_clust_5="13000.00000" pt_clust_6="13000.00000" pt_clust_7="13000.00000" pt_clust_8="13000.00000" pt_clust_9="93.28107"></scales>
<clustering>
<clus scale="   55.725">  5  6 -1 -1</clus>
<clus scale="   55.852">  2  5  1 -1</clus>
<clus scale="   92.987">  7  8 -1 -1</clus>
<clus scale="   93.281">  1  9  2 -1</clus>
<clus scale="   93.281">  1  5  2 -1</clus>
</clustering>
</event>
<event>
 9    1  0.3197504E-005  0.9276754E+02  0.7546771E-02  0.1302763E+00
         -2   -1    0    0    0  501 -0.00000000000E+00  0.00000000000E+00  0.32333259536E+03  0.32333259536E+03  0.00000000000E+00 0.  1.
         21   -1    0    0  501  502  0.00000000000E+00 -0.00000000000E+00 -0.11295891582E+03  0.11295891582E+03  0.00000000000E+00 0.  1.
         23    2    1    2    0    0 -0.13809015388E+02  0.78312011681E+01  0.25260749469E+03  0.26922175280E+03  0.91748510561E+02 0.  0.
        -24    2    1    2    0    0  0.13313227288E+02  0.31410498538E+02  0.22946970926E+02  0.90986306344E+02  0.81167007018E+02 0.  0.
         11    1    4    4    0    0  0.26199326866E+02  0.70716788721E+00 -0.22571584658E+02  0.34588744537E+02  0.00000000000E+00 0. -1.
        -12    1    4    4    0    0 -0.12886099578E+02  0.30703330651E+02  0.45518555584E+02  0.56397561808E+02  0.00000000000E+00 0.  1.
        -13    1    3    3    0    0  0.23877958384E+02 -0.11931886994E+02  0.21629420972E+02  0.34356348401E+02  0.00000000000E+00 0. -1.
         13    1    3    3    0    0 -0.37686973773E+02  0.19763088163E+02  0.23097807372E+03  0.23486540440E+03  0.00000000000E+00 0.  1.
         -1    1    1    2    0  502  0.49578810025E+00 -0.39241699706E+02 -0.65180786071E+02  0.76083452041E+02  0.00000000000E+00 0.  1.
<scales pt_clust_5="13000.00000" pt_clust_6="13000.00000" pt_clust_7="13000.00000" pt_clust_8="13000.00000" pt_clust_9="39.24483"></scales>
<clustering>
<clus scale="   39.245">  2  9  1 -1</clus>
<clus scale="   81.167">  5  6 -1 -1</clus>
<clus scale="   82.317">  2  5  1 -1</clus>
<clus scale="   91.749">  7  8 -1 -1</clus>
<clus scale="   39.245">  2  5  1 -1</clus>
</clustering>
</event>
<event>
 9    1  0.3197504E-005  0.1638954E+03  0.7546771E-02  0.1186162E+00
         -2   -1    0    0    0  501 -0.00000000000E+00  0.00000000000E+00  0.67683341349E+03  0.67683341349E+03  0.00000000000E+00 0.  1.
         21   -1    0    0  501  502  0.00000000000E+00 -0.00000000000E+00 -0.58877810321E+02  0.58877810321E+02  0.00000000000E+00 0. -1.
        -24    2    1    2    0    0 -0.12457499806E+03 -0.38312454521E+02  0.40288369484E+03  0.43106759539E+03  0.80729337344E+02 0.  0.
         23    2    1    2    0    0  0.13805136033E+03  0.60290551874E+02  0.14087957542E+03  0.22609968298E+03  0.92633056413E+02 0.  0.
         11    1    3    3    0    0 -0.15903286254E+02 -0.32462708972E+02  0.49422625958E+02  0.61231837667E+02  0.00000000000E+00 0. -1.
        -12    1    3    3    0    0 -0.10867171181E+03 -0.58497455489E+01  0.35346106889E+03  0.36983575772E+03  0.00000000000E+00 0.  1.
        -13    1    4    4    0    0  0.86052829550E+02  0.71195671602E+01  0.12183314384E+03  0.14932880716E+03  0.00000000000E+00 0.  1.
         13    1    4    4    0    0  0.51998530781E+02  0.53170984714E+02  0.19046431581E+02  0.76770875824E+02  0.00000000000E+00 0. -1.
         -1    1    1    2    0  502 -0.13476362266E+02 -0.21978097353E+02  0.74192332902E+02  0.78543945436E+02  0.00000000000E+00 0.  1.
<scales pt_clust_5="13000.00000" pt_clust_6="13000.00000" pt_clust_7="13000.00000" pt_clust_8="13000.00000" pt_clust_9="25.78080"></scales>
<clustering>
<clus scale="   25.781">  2  9  1 -1</clus>
<clus scale="   80.729">  5  6 -1 -1</clus>
<clus scale="   92.633">  7  8 -1 -1</clus>
<clus scale="  157.474">  1  5  2 -1</clus>
<clus scale="   25.781">  2  5  1 -1</clus>
</clustering>
</event>
<event>
 9    1  0.3197504E-005  0.1013704E+03  0.7546771E-02  0.1279039E+00
         -4   -1    0    0    0  501 -0.00000000000E+00  0.00000000000E+00  0.10601835247E+04  0.10601835247E+04  0.00000000000E+00 0.  1.
         21   -1    0    0  501  502  0.00000000000E+00 -0.00000000000E+00 -0.15231015399E+02  0.15231015399E+02  0.00000000000E+00 0.  1.
        -24    2    1    2    0    0  0.10688974910E+02  0.74635330497E+02  0.61821802769E+03  0.62769224952E+03  0.78226233455E+02 0.  0.
         23    2    1    2    0    0  0.95257881591E+01 -0.40170322899E+02  0.34077796258E+03  0.35293306884E+03  0.82022776218E+02 0.  0.
         11    1    3    3    0    0 -0.22684741722E+02  0.18710400195E+01  0.68667816532E+02  0.72342016319E+02  0.00000000000E+00 0. -1.
        -12    1    3    3    0    0  0.33373716632E+02  0.72764290478E+02  0.54955021116E+03  0.55535023320E+03  0.00000000000E+00 0.  1.
        -11    1    4    4    0    0  0.73011392698E+01  0.25140184034E+02  0.85068105684E+02  0.89005157673E+02  0.00000000000E+00 0. -1.
         11    1    4    4    0    0  0.22246488894E+01 -0.65310506933E+02  0.25570985690E+03  0.26392791117E+03  0.00000000000E+00 0.  1.
         -3    1    1    2    0  502 -0.20214763069E+02 -0.34465007598E+02  0.85956519044E+02  0.94789221755E+02  0.00000000000E+00 0.  1.
<scales pt_clust_5="13000.00000" pt_clust_6="13000.00000" pt_clust_7="13000.00000" pt_clust_8="13000.00000" pt_clust_9="39.95589"></scales>
<clustering>
<clus scale="   39.956">  2  9  1 -1</clus>
<clus scale="   78.226">  5  6 -1 -1</clus>
<clus scale="   82.023">  7  8 -1 -1</clus>
<clus scale="   98.324">  1  5  2 -1</clus>
<clus scale="   39.956">  2  5  1 -1</clus>
</clustering>
</event>
<event>
 9    1  0.3197504E-005  0.4497028E+03  0.7546771E-02  0.1028004E+00
         21   -1    0    0  501  502  0.00000000000E+00  0.00000000000E+00  0.35395198891E+03  0.35395198891E+03  0.00000000000E+00 0. -1.
          1   -1    0    0  502    0 -0.00000000000E+00 -0.00000000000E+00 -0.14246177778E+04  0.14246177778E+04  0.00000000000E+00 0. -1.
        -24    2    1    2    0    0 -0.28533466181E+03 -0.27613148814E+03 -0.62508546808E+03  0.74590734690E+03  0.89339016023E+02 0.  0.
         23    2    1    2    0    0  0.47681436942E+03  0.38986550473E+03 -0.11601896602E+03  0.63490546949E+03  0.10147659852E+03 0.  0.
         11    1    3    3    0    0 -0.15187657152E+03 -0.18157368258E+03 -0.43417346339E+03  0.49451197305E+03  0.00000000000E+00 0. -1.
        -12    1    3    3    0    0 -0.13345809030E+03 -0.94557805560E+02 -0.19091200469E+03  0.25139537385E+03  0.00000000000E+00 0.  1.
        -13    1    4    4    0    0  0.81129199726E+02  0.23712285868E+02 -0.25228494220E+02  0.88208256245E+02  0.00000000000E+00 0.  1.
         13    1    4    4    0    0  0.39568516970E+03  0.36615321886E+03 -0.90790471796E+02  0.54669721325E+03  0.00000000000E+00 0. -1.
          2    1    1    2  501    0 -0.19147970761E+03 -0.11373401659E+03 -0.32956135479E+03  0.39775695032E+03  0.00000000000E+00 0. -1.
<scales pt_clust_5="13000.00000" pt_clust_6="13000.00000" pt_clust_7="13000.00000" pt_clust_8="13000.00000" pt_clust_9="222.71047"></scales>
<clustering>
<clus scale="   89.339">  5  6 -1 -1</clus>
<clus scale="  101.477">  7  8 -1 -1</clus>
<clus scale="  222.710">  1  9  2 -1</clus>
<clus scale="  447.120">  2  5  1 -1</clus>
<clus scale="  222.710">  1  5  2 -1</clus>
</clustering>
</event>
<event>
 9    1  0.3197504E-005  0.1038485E+03  0.7546771E-02  0.1277510E+00
          1   -1    0    0  502    0 -0.00000000000E+00  0.00000000000E+00  0.40153641545E+02  0.40153641545E+02  0.00000000000E+00 0. -1.
         21   -1    0    0  501  502  0.00000000000E+00 -0.00000000000E+00 -0.68923806665E+03  0.68923806665E+03  0.00000000000E+00 0.  1.
         23    2    1    2    0    0 -0.43614681944E+02 -0.64531529292E+02 -0.24089854702E+03  0.26877165695E+03  0.90219370814E+02 0.  0.
        -24    2    1    2    0    0  0.28415827997E+02 -0.73806320588E+01 -0.36667005256E+03  0.37620484005E+03  0.78874718536E+02 0.  0.
         11    1    4    4    0    0 -0.26904229627E+02 -0.10184412953E+02 -0.12686573997E+03  0.13008641673E+03  0.00000000000E+00 0. -1.
        -12    1    4    4    0    0  0.55320057624E+02  0.28037808944E+01 -0.23980431259E+03  0.24611842332E+03  0.00000000000E+00 0.  1.
        -13    1    3    3    0    0  0.20413228713E+02 -0.12805915515E+02 -0.15098337832E+02  0.28436792786E+02  0.00000000000E+00 0. -1.
         13    1    3    3    0    0 -0.64027910657E+02 -0.51725613776E+02 -0.22580020919E+03  0.24033486417E+03  0.00000000000E+00 0.  1.
          2    1    1    2  501    0  0.15198853947E+02  0.71912161350E+02 -0.41515825521E+02  0.84415211189E+02  0.00000000000E+00 0. -1.
<scales pt_clust_5="13000.00000" pt_clust_6="13000.00000" pt_clust_7="13000.00000" pt_clust_8="13000.00000" pt_clust_9="73.50081"></scales>
<clustering>
<clus scale="   73.501">  2  9  1 -1</clus>
<clus scale="   78.875">  5  6 -1 -1</clus>
<clus scale="   90.219">  7  8 -1 -1</clus>
<clus scale="   94.161">  2  5  1 -1</clus>
<clus scale="   73.501">  2  5  1 -1</clus>
</clustering>
</event>
<event>
 9    1  0.3197504E-005  0.1096295E+03  0.7546771E-02  0.1272012E+00
          1   -1    0    0  502    0 -0.00000000000E+00  0.00000000000E+00  0.30125769854E+03  0.30125769854E+03  0.00000000000E+00 0. -1.
         21   -1    0    0  501  502  0.00000000000E+00 -0.00000000000E+00 -0.61578985061E+02  0.61578985061E+02  0.00000000000E+00 0. -1.
        -24    2    1    2    0    0 -0.37665629109E+01  0.35539161435E+02  0.12745242634E+03  0.15245403969E+03  0.75636593297E+02 0.  0.
         23    2    1    2    0    0 -0.95461981239E+01 -0.81416000871E+02  0.69096819120E+02  0.14602376718E+03  0.99140683230E+02 0.  0.
         13    1    3    3    0    0 -0.34126228206E+02  0.39916000038E+02  0.72519721840E+02  0.89537682382E+02  0.00000000000E+00 0. -1.
        -14    1    3    3    0    0  0.30359665295E+02 -0.43768386032E+01  0.54932704500E+02  0.62916357306E+02  0.00000000000E+00 0.  1.
        -11    1    4    4    0    0  0.33992492605E+02 -0.12616609880E+00  0.31810733299E+02  0.46555646536E+02  0.00000000000E+00 0.  1.
         11    1    4    4    0    0 -0.43538690729E+02 -0.81289834773E+02  0.37286085821E+02  0.99468120640E+02  0.00000000000E+00 0. -1.
          2    1    1    2  501    0  0.13312761035E+02  0.45876839437E+02  0.43129468014E+02  0.64358876732E+02  0.00000000000E+00 0. -1.
<scales pt_clust_5="13000.00000" pt_clust_6="13000.00000" pt_clust_7="13000.00000" pt_clust_8="13000.00000" pt_clust_9="47.76941"></scales>
<clustering>
<clus scale="   47.769">  2  9  1 -1</clus>
<clus scale="   75.637">  5  6 -1 -1</clus>
<clus scale="   88.942">  1  5  2 -1</clus>
<clus scale="   99.141">  7  8 -1 -1</clus>
<clus scale="   47.769">  2  5  1 -1</clus>
</clustering>
</event>
<event>
 9    1  0.3197504E-005  0.9114801E+02  0.7546771E-02  0.1305688E+00
         -2   -1    0    0    0  501 -0.00000000000E+00  0.00000000000E+00  0.93454447285E+03  0.93454447285E+03  0.00000000000E+00 0.  1.
         21   -1    0    0  501  502  0.00000000000E+00 -0.00000000000E+00 -0.17505210412E+02  0.17505210412E+02  0.00000000000E+00 0.  1.
        -24    2    1    2    0    0  0.11250875397E+02  0.36290561766E+02  0.41661897346E+03  0.42618546497E+03  0.81357817309E+02 0.  0.
         23    2    1    2    0    0  0.16671181458E+02  0.16461084294E+02  0.38222855873E+03  0.39345703374E+03  0.90337537626E+02 0.  0.
         11    1    3    3    0    0 -0.18352615480E+02  0.22315952870E+02  0.47357128026E+02  0.55475380326E+02  0.00000000000E+00 0. -1.
        -12    1    3    3    0    0  0.29603490877E+02  0.13974608896E+02  0.36926184543E+03  0.37071008464E+03  0.00000000000E+00 0.  1.
        -11    1    4    4    0    0  0.25179220251E+02  0.51347903115E+02  0.24795675706E+03  0.25446640968E+03  0.00000000000E+00 0.  1.
         11    1    4    4    0    0 -0.85080387925E+01 -0.34886818821E+02  0.13427180167E+03  0.13899062405E+03  0.00000000000E+00 0. -1.
         -1    1    1    2    0  502 -0.27922056856E+02 -0.52751646060E+02  0.11819173026E+03  0.13240718456E+03  0.00000000000E+00 0.  1.
<scales pt_clust_5="13000.00000" pt_clust_6="13000.00000" pt_clust_7="13000.00000" pt_clust_8="13000.00000" pt_clust_9="59.68566"></scales>
<clustering>
<clus scale="   59.686">  2  9  1 -1</clus>
<clus scale="   81.358">  5  6 -1 -1</clus>
<clus scale="   82.257">  1  5  2 -1</clus>
<clus scale="   90.338">  7  8 -1 -1</clus>
<clus scale="   59.686">  2  5  1 -1</clus>
</clustering>
</event>
<event>
 9    1  0.3197504E-005  0.9129176E+02  0.7546771E-02  0.1304506E+00
          3   -1    0    0  502    0 -0.00000000000E+00  0.00000000000E+00  0.62801297443E+02  0.62801297443E+02  0.00000000000E+00 0. -1.
         21   -1    0    0  501  502  0.00000000000E+00 -0.00000000000E+00 -0.32293122336E+03  0.32293122336E+03  0.00000000000E+00 0.  1.
         23    2    1    2    0    0  0.30094432090E+02  0.31018807287E+02 -0.12130716681E+03  0.15764782596E+03  0.90937159955E+02 0.  0.
        -24    2    1    2    0    0  0.16373819768E+02  0.38545557543E+02 -0.10714446638E+03  0.13863072056E+03  0.77360700794E+02 0.  0.
         11    1    4    4    0    0 -0.27575646764E+02  0.35004681231E+01 -0.56509589765E+02  0.62976212231E+02  0.00000000000E+00 0. -1.
        -12    1    4    4    0    0  0.43949466531E+02  0.35045089420E+02 -0.50634876614E+02  0.75654508330E+02  0.00000000000E+00 0.  1.
        -11    1    3    3    0    0  0.43592004687E+02 -0.22446110755E+01 -0.11252067492E+03  0.12069052753E+03  0.00000000000E+00 0.  1.
         11    1    3    3    0    0 -0.13497572598E+02  0.33263418363E+02 -0.87864918944E+01  0.36957298427E+02  0.00000000000E+00 0. -1.
          4    1    1    2  501    0 -0.46468251857E+02 -0.69564364830E+02 -0.31678292720E+02  0.89453974280E+02  0.00000000000E+00 0. -1.
<scales pt_clust_5="13000.00000" pt_clust_6="13000.00000" pt_clust_7="13000.00000" pt_clust_8="13000.00000" pt_clust_9="83.65708"></scales>
<clustering>
<clus scale="   77.361">  5  6 -1 -1</clus>
<clus scale="   83.657">  2  9  1 -1</clus>
<clus scale="   83.657">  2  5  1 -1</clus>
<clus scale="   90.937">  7  8 -1 -1</clus>
<clus scale="   83.657">  2  5  1 -1</clus>
</clustering>
</event>
<event>
 9    1  0.3197504E-005  0.1476468E+03  0.7546771E-02  0.1205305E+00
         21   -1    0    0  501  502  0.00000000000E+00  0.00000000000E+00  0.29939569097E+03  0.29939569097E+03  0.00000000000E+00 0.  1.
         -2   -1    0    0    0  501 -0.00000000000E+00 -0.00000000000E+00 -0.14632857082E+03  0.14632857082E+03  0.00000000000E+00 0.  1.
         23    2    1    2    0    0 -0.10348698089E+03 -0.22639855757E+02 -0.13106776174E+02  0.13946470832E+03  0.89758002452E+02 0.  0.
        -24    2    1    2    0    0  0.15690298019E+03  0.60225628341E+01  0.17660604726E+03  0.24935407764E+03  0.79579794235E+02 0.  0.
         13    1    4    4    0    0  0.88408289272E+02 -0.36186341005E+02  0.98832855229E+02  0.13745330174E+03  0.00000000000E+00 0. -1.
        -14    1    4    4    0    0  0.68494690913E+02  0.42208903839E+02  0.77773192034E+02  0.11190077589E+03  0.00000000000E+00 0.  1.
        -13    1    3    3    0    0 -0.49058949845E+02 -0.23862796708E+02 -0.49755693855E+02  0.73836594569E+02  0.00000000000E+00 0. -1.
         13    1    3    3    0    0 -0.54428031042E+02  0.12229409507E+01  0.36648917681E+02  0.65628113754E+02  0.00000000000E+00 0.  1.
         -1    1    1    2    0  502 -0.53415999298E+02  0.16617292923E+02 -0.10432150939E+02  0.56905475820E+02  0.00000000000E+00 0.  1.
<scales pt_clust_5="13000.00000" pt_clust_6="13000.00000" pt_clust_7="13000.00000" pt_clust_8="13000.00000" pt_clust_9="55.94110"></scales>
<clustering>
<clus scale="   55.941">  1  9  2 -1</clus>
<clus scale="   79.580">  5  6 -1 -1</clus>
<clus scale="   89.758">  7  8 -1 -1</clus>
<clus scale="  141.690">  1  5  2 -1</clus>
<clus scale="   55.941">  1  5  2 -1</clus>
</clustering>
</event>
<event>
 9    1  0.3197504E-005  0.9162323E+02  0.7546771E-02  0.1305682E+00
         21   -1    0    0  501  502  0.00000000000E+00  0.00000000000E+00  0.11105871170E+03  0.11105871170E+03  0.00000000000E+00 0.  1.
          1   -1    0    0  502    0 -0.00000000000E+00 -0.00000000000E+00 -0.16009819175E+03  0.16009819175E+03  0.00000000000E+00 0. -1.
        -24    2    1    2    0    0 -0.17933309824E+01  0.66938745490E+01 -0.56859159521E+02  0.98388886615E+02  0.79996156129E+02 0.  0.
         23    2    1    2    0    0 -0.26719716499E+02  0.45487007323E+02 -0.20432472085E+02  0.10693472452E+03  0.90744356886E+02 0.  0.
         13    1    3    3    0    0  0.16049598967E+02  0.38494240191E+02 -0.19016229089E+02  0.45836809702E+02  0.00000000000E+00 0. -1.
        -14    1    3    3    0    0 -0.17842929949E+02 -0.31800365642E+02 -0.37842930432E+02  0.52552076913E+02  0.00000000000E+00 0.  1.
        -13    1    4    4    0    0 -0.38416230345E+02 -0.16005713739E+02 -0.14449291468E+02  0.44054189927E+02  0.00000000000E+00 0. -1.
         13    1    4    4    0    0  0.11696513846E+02  0.61492721062E+02 -0.59831806178E+01  0.62880534588E+02  0.00000000000E+00 0.  1.
          2    1    1    2  501    0  0.28513047482E+02 -0.52180881872E+02  0.28252151557E+02  0.65833292316E+02  0.00000000000E+00 0. -1.
<scales pt_clust_5="13000.00000" pt_clust_6="13000.00000" pt_clust_7="13000.00000" pt_clust_8="13000.00000" pt_clust_9="59.46292"></scales>
<clustering>
<clus scale="   59.463">  1  9  2 -1</clus>
<clus scale="   79.996">  5  6 -1 -1</clus>
<clus scale="   80.992">  2  5  1 -1</clus>
<clus scale="   90.744">  7  8 -1 -1</clus>
<clus scale="   59.463">  1  5  2 -1</clus>
</clustering>
</event>
<event>
 9    1  0.3197504E-005  0.9641459E+02  0.7546771E-02  0.1293007E+00
          1   -1    0    0  502    0 -0.00000000000E+00  0.00000000000E+00  0.30911104490E+03  0.30911104490E+03  0.00000000000E+00 0. -1.
         21   -1    0    0  501  502  0.00000000000E+00 -0.00000000000E+00 -0.12564351125E+03  0.12564351125E+03  0.00000000000E+00 0.  1.
        -24    2    1    2    0    0  0.32723761472E+02  0.14651450031E+02  0.26015527798E+03  0.27444966870E+03  0.79726673310E+02 0.  0.
         23    2    1    2    0    0 -0.49748862408E+02  0.92612093526E-01 -0.26708330648E+02  0.10548533600E+03  0.89100299088E+02 0.  0.
         13    1    3    3    0    0  0.13986606119E+02  0.42169424557E+02  0.20711851962E+03  0.21183004198E+03  0.00000000000E+00 0. -1.
        -14    1    3    3    0    0  0.18737155353E+02 -0.27517974527E+02  0.53036758361E+02  0.62619626717E+02  0.00000000000E+00 0.  1.
        -13    1    4    4    0    0 -0.71966807488E+02 -0.10506980751E+02 -0.33315662115E+02  0.79997195993E+02  0.00000000000E+00 0.  1.
         13    1    4    4    0    0  0.22217945080E+02  0.10599592844E+02  0.66073314669E+01  0.25488140010E+02  0.00000000000E+00 0. -1.
          2    1    1    2  501    0  0.17025100936E+02 -0.14744062124E+02 -0.49979413674E+02  0.54819551449E+02  0.00000000000E+00 0. -1.
<scales pt_clust_5="13000.00000" pt_clust_6="13000.00000" pt_clust_7="13000.00000" pt_clust_8="13000.00000" pt_clust_9="22.52202"></scales>
<clustering>
<clus scale="   22.522">  2  9  1 -1</clus>
<clus scale="   79.727">  5  6 -1 -1</clus>
<clus scale="   87.825">  1  5  2 -1</clus>
<clus scale="   89.100">  7  8 -1 -1</clus>
<clus scale="   22.522">  2  5  1 -1</clus>
</clustering>
</event>
<event>
 9    1  0.3197504E-005  0.1614856E+03  0.7546771E-02  0.1198632E+00
         21   -1    0    0  501  502  0.00000000000E+00  0.00000000000E+00  0.62992359960E+02  0.62992359960E+02  0.00000000000E+00 0.  1.
          1   -1    0    0  502    0 -0.00000000000E+00 -0.00000000000E+00 -0.16225625118E+04  0.16225625118E+04  0.00000000000E+00 0. -1.
        -24    2    1    2    0    0  0.86918057717E+02 -0.23707640547E+02 -0.63314347794E+03  0.64538885483E+03  0.86829196117E+02 0.  0.
         23    2    1    2    0    0 -0.17823017701E+01  0.13472200895E+03 -0.80048002857E+02  0.18230289165E+03  0.93131440701E+02 0.  0.
         11    1    3    3    0    0  0.49682498639E+02  0.30923161400E+02 -0.32593398516E+03  0.33114582175E+03  0.00000000000E+00 0. -1.
        -12    1    3    3    0    0  0.37235559079E+02 -0.54630801946E+02 -0.30720949278E+03  0.31424303308E+03  0.00000000000E+00 0.  1.
        -13    1    4    4    0    0 -0.30819075922E+02  0.73862786561E+02 -0.32471262065E+01  0.80100377701E+02  0.00000000000E+00 0.  1.
         13    1    4    4    0    0  0.29036774152E+02  0.60859222385E+02 -0.76800876650E+02  0.10220251395E+03  0.00000000000E+00 0. -1.
          2    1    1    2  501    0 -0.85135755947E+02 -0.11101436840E+03 -0.84637867104E+03  0.85786312528E+03  0.00000000000E+00 0. -1.
<scales pt_clust_5="13000.00000" pt_clust_6="13000.00000" pt_clust_7="13000.00000" pt_clust_8="13000.00000" pt_clust_9="131.92485"></scales>
<clustering>
<clus scale="   86.829">  5  6 -1 -1</clus>
<clus scale="   93.131">  7  8 -1 -1</clus>
<clus scale="  125.124">  2  5  1 -1</clus>
<clus scale="  131.925">  1  9  2 -1</clus>
<clus scale="  131.925">  1  5  2 -1</clus>
</clustering>
</event>
<event>
 9    1  0.3197504E-005  0.1023805E+03  0.7546771E-02  0.1281099E+00
          3   -1    0    0  502    0 -0.00000000000E+00  0.00000000000E+00  0.29949686063E+03  0.29949686063E+03  0.00000000000E+00 0. -1.
         21   -1    0    0  501  502  0.00000000000E+00 -0.00000000000E+00 -0.92562581621E+02  0.92562581621E+02  0.00000000000E+00 0. -1.
         23    2    1    2    0    0  0.17708624033E+02 -0.51659504094E+02  0.20058988290E+03  0.22717977422E+03  0.91608127164E+02 0.  0.
        -24    2    1    2    0    0  0.45682868316E+02  0.26778010909E+02  0.12951355817E+02  0.96460212312E+02  0.79579197130E+02 0.  0.
         13    1    4    4    0    0  0.67078665523E+02  0.19767054908E+02  0.20229708148E+02  0.72797835956E+02  0.00000000000E+00 0. -1.
        -14    1    4    4    0    0 -0.21395797207E+02  0.70109560013E+01 -0.72783523312E+01  0.23662376356E+02  0.00000000000E+00 0.  1.
        -11    1    3    3    0    0 -0.13338569839E+02 -0.39492339863E+02  0.25332150558E+02  0.48777865935E+02  0.00000000000E+00 0.  1.
         11    1    3    3    0    0  0.31047193871E+02 -0.12167164231E+02  0.17525773234E+03  0.17840190828E+03  0.00000000000E+00 0. -1.
          4    1    1    2  501    0 -0.63391492349E+02  0.24881493184E+02 -0.66069597051E+01  0.68419455726E+02  0.00000000000E+00 0. -1.
<scales pt_clust_5="13000.00000" pt_clust_6="13000.00000" pt_clust_7="13000.00000" pt_clust_8="13000.00000" pt_clust_9="68.09971"></scales>
<clustering>
<clus scale="   68.100">  2  9  1 -1</clus>
<clus scale="   79.579">  5  6 -1 -1</clus>
<clus scale="   91.608">  7  8 -1 -1</clus>
<clus scale="   91.775">  2  5  1 -1</clus>
<clus scale="   68.100">  2  5  1 -1</clus>
</clustering>
</event>
<event>
 9    1  0.3197504E-005  0.1275852E+03  0.7546771E-02  0.1234889E+00
         21   -1    0    0  501  502  0.00000000000E+00  0.00000000000E+00  0.11516678616E+03  0.11516678616E+03  0.00000000000E+00 0. -1.
          3   -1    0    0  502    0 -0.00000000000E+00 -0.00000000000E+00 -0.23256800087E+03  0.23256800087E+03  0.00000000000E+00 0. -1.
         23    2    1    2    0    0 -0.41410474577E+02 -0.63774847041E+02 -0.11388777071E+03  0.16584343809E+03  0.93549789537E+02 0.  0.
        -24    2    1    2    0    0  0.76629479117E+02  0.85627901263E+02 -0.78509568386E+01  0.14021703697E+03  0.79968527496E+02 0.  0.
         11    1    4    4    0    0  0.34091997701E+02  0.90942647089E+02 -0.60501209700E+01  0.97311013408E+02  0.00000000000E+00 0. -1.
        -12    1    4    4    0    0  0.42537481416E+02 -0.53147458252E+01 -0.18008358686E+01  0.42906023566E+02  0.00000000000E+00 0.  1.
        -13    1    3    3    0    0  0.20424796234E+02 -0.31371319130E+02 -0.68561213733E+01  0.38057040945E+02  0.00000000000E+00 0. -1.
         13    1    3    3    0    0 -0.61835270811E+02 -0.32403527911E+02 -0.10703164933E+03  0.12778639715E+03  0.00000000000E+00 0.  1.
          4    1    1    2  501    0 -0.35219004541E+02 -0.21853054222E+02  0.43375128392E+01  0.41674311960E+02  0.00000000000E+00 0. -1.
<scales pt_clust_5="13000.00000" pt_clust_6="13000.00000" pt_clust_7="13000.00000" pt_clust_8="13000.00000" pt_clust_9="41.44797"></scales>
<clustering>
<clus scale="   41.448">  1  9  2 -1</clus>
<clus scale="   79.969">  5  6 -1 -1</clus>
<clus scale="   93.550">  7  8 -1 -1</clus>
<clus scale="  117.989">  1  5  2 -1</clus>
<clus scale="   41.448">  1  5  2 -1</clus>
</clustering>
</event>
<event>
 9    1  0.3197504E-005  0.2109193E+03  0.7546771E-02  0.1141656E+00
         21   -1    0    0  501  502  0.00000000000E+00  0.00000000000E+00  0.15652118770E+03  0.15652118770E+03  0.00000000000E+00 0. -1.
          1   -1    0    0  502    0 -0.00000000000E+00 -0.00000000000E+00 -0.43151095527E+03  0.43151095527E+03  0.00000000000E+00 0. -1.
         23    2    1    2    0    0  0.20435252177E+03 -0.61908668878E+02 -0.24881044503E+03  0.33993716147E+03  0.89766362073E+02 0.  0.
        -24    2    1    2    0    0 -0.13216047765E+03  0.73327920334E+02 -0.11930185121E+01  0.17085246778E+03  0.79660320726E+02 0.  0.
         11    1    4    4    0    0 -0.46067976507E+02  0.61628772926E+02  0.23632835654E+02  0.80491459379E+02  0.00000000000E+00 0. -1.
        -12    1    4    4    0    0 -0.86092501145E+02  0.11699147408E+02 -0.24825854167E+02  0.90361008397E+02  0.00000000000E+00 0.  1.
        -13    1    3    3    0    0  0.17974762126E+03 -0.84128411857E+02 -0.21197248770E+03  0.29037756899E+03  0.00000000000E+00 0. -1.
         13    1    3    3    0    0  0.24604900511E+02  0.22219742979E+02 -0.36837957324E+02  0.49559592482E+02  0.00000000000E+00 0.  1.
          2    1    1    2  501    0 -0.72192044117E+02 -0.11419251456E+02 -0.24986304027E+02  0.77242513725E+02  0.00000000000E+00 0. -1.
<scales pt_clust_5="13000.00000" pt_clust_6="13000.00000" pt_clust_7="13000.00000" pt_clust_8="13000.00000" pt_clust_9="73.08961"></scales>
<clustering>
<clus scale="   73.090">  1  9  2 -1</clus>
<clus scale="   79.660">  5  6 -1 -1</clus>
<clus scale="   89.766">  7  8 -1 -1</clus>
<clus scale="  206.820">  1  5  2 -1</clus>
<clus scale="   73.090">  1  5  2 -1</clus>
</clustering>
</event>
<event>
 9    1  0.3197504E-005  0.9615366E+02  0.7546771E-02  0.1290240E+00
         21   -1    0    0  501  502  0.00000000000E+00  0.00000000000E+00  0.60350789526E+03  0.60350789526E+03  0.00000000000E+00 0. -1.
         -2   -1    0    0    0  501 -0.00000000000E+00 -0.00000000000E+00 -0.51015979828E+02  0.51015979828E+02  0.00000000000E+00 0.  1.
        -24    2    1    2    0    0  0.28415570027E+02 -0.31179341836E+02  0.53122283542E+02  0.11074898399E+03  0.87542929293E+02 0.  0.
         23    2    1    2    0    0  0.44980955211E+02  0.77126665718E+01  0.42404166151E+03  0.43601572496E+03  0.90640003063E+02 0.  0.
         11    1    3    3    0    0  0.15001813421E+02 -0.48464911557E+02 -0.26862876688E+01  0.50804706471E+02  0.00000000000E+00 0. -1.
        -12    1    3    3    0    0  0.13413756606E+02  0.17285569721E+02  0.55808571211E+02  0.59944277521E+02  0.00000000000E+00 0.  1.
        -13    1    4    4    0    0 -0.20943311935E+02 -0.18635881770E+02  0.16758805584E+03  0.16991667036E+03  0.00000000000E+00 0.  1.
         13    1    4    4    0    0  0.65924267146E+02  0.26348548342E+02  0.25645360567E+03  0.26609905460E+03  0.00000000000E+00 0. -1.
         -1    1    1    2    0  502 -0.73396525239E+02  0.23466675264E+02  0.75327970372E+02  0.10775916613E+03  0.00000000000E+00 0.  1.
<scales pt_clust_5="13000.00000" pt_clust_6="13000.00000" pt_clust_7="13000.00000" pt_clust_8="13000.00000" pt_clust_9="77.05674"></scales>
<clustering>
<clus scale="   77.057">  1  9  2 -1</clus>
<clus scale="   87.543">  5  6 -1 -1</clus>
<clus scale="   90.640">  7  8 -1 -1</clus>
<clus scale="   93.240">  2  5  1 -1</clus>
<clus scale="   77.057">  1  5  2 -1</clus>
</clustering>
</event>
<event>
 9    1  0.3197504E-005  0.3149096E+03  0.7546771E-02  0.1111263E+00
         -2   -1    0    0    0  501 -0.00000000000E+00  0.00000000000E+00  0.29419706855E+03  0.29419706855E+03  0.00000000000E+00 0.  1.
         21   -1    0    0  501  502  0.00000000000E+00 -0.00000000000E+00 -0.57108555075E+03  0.57108555075E+03  0.00000000000E+00 0.  1.
        -24    2    1    2    0    0 -0.44123233459E+02  0.94468296731E+02 -0.13923590794E+02  0.13246698800E+03  0.80514083935E+02 0.  0.
         23    2    1    2    0    0 -0.25626872663E+03 -0.15657287009E+03  0.21150672342E+02  0.31470803595E+03  0.91679185520E+02 0.  0.
         11    1    3    3    0    0 -0.68340121305E+01  0.42878063712E+02 -0.44216933486E+02  0.61970713054E+02  0.00000000000E+00 0. -1.
        -12    1    3    3    0    0 -0.37289221329E+02  0.51590233019E+02  0.30293342692E+02  0.70496274949E+02  0.00000000000E+00 0.  1.
        -11    1    4    4    0    0 -0.50295855135E+02 -0.28294355832E+02 -0.32449957090E+02  0.66206067175E+02  0.00000000000E+00 0. -1.
         11    1    4    4    0    0 -0.20597287150E+03 -0.12827851426E+03  0.53600629431E+02  0.24850196878E+03  0.00000000000E+00 0.  1.
         -1    1    1    2    0  502  0.30039196009E+03  0.62104573358E+02 -0.28411556375E+03  0.41810759534E+03  0.00000000000E+00 0.  1.
<scales pt_clust_5="13000.00000" pt_clust_6="13000.00000" pt_clust_7="13000.00000" pt_clust_8="13000.00000" pt_clust_9="301.26895"></scales>
<clustering>
<clus scale="   80.514">  5  6 -1 -1</clus>
<clus scale="   91.679">  7  8 -1 -1</clus>
<clus scale="  131.733">  1  5  2 -1</clus>
<clus scale="  301.269">  2  9  1 -1</clus>
<clus scale="  301.269">  2  5  1 -1</clus>
</clustering>
</event>
<event>
 9    1  0.3197504E-005  0.9087457E+02  0.7546771E-02  0.1302671E+00
         21   -1    0    0  501  502  0.00000000000E+00  0.00000000000E+00  0.64400291381E+02  0.64400291381E+02  0.00000000000E+00 0.  1.
         -2   -1    0    0    0  501 -0.00000000000E+00 -0.00000000000E+00 -0.21380009499E+03  0.21380009499E+03  0.00000000000E+00 0.  1.
         23    2    1    2    0    0 -0.40035661673E+02  0.12453481585E+02 -0.71665689266E+02  0.11998233512E+03  0.86613199415E+02 0.  0.
        -24    2    1    2    0    0 -0.54431584126E+00 -0.18439011886E+02 -0.20392863312E+02  0.87715709322E+02  0.83293957457E+02 0.  0.
         11    1    4    4    0    0  0.36657002785E+02 -0.24431633374E+02 -0.23460279128E+02  0.49910171902E+02  0.00000000000E+00 0. -1.
        -12    1    4    4    0    0 -0.37201318627E+02  0.59926214884E+01  0.30674158155E+01  0.37805537420E+02  0.00000000000E+00 0.  1.
        -13    1    3    3    0    0 -0.25762887864E+02  0.31509451150E+02 -0.83872912387E+02  0.93226805883E+02  0.00000000000E+00 0. -1.
         13    1    3    3    0    0 -0.14272773809E+02 -0.19055969565E+02  0.12207223121E+02  0.26755529234E+02  0.00000000000E+00 0.  1.
         -1    1    1    2    0  502  0.40579977514E+02  0.59855303003E+01 -0.57341251028E+02  0.70502341929E+02  0.00000000000E+00 0.  1.
<scales pt_clust_5="13000.00000" pt_clust_6="13000.00000" pt_clust_7="13000.00000" pt_clust_8="13000.00000" pt_clust_9="41.01905"></scales>
<clustering>
<clus scale="   41.019">  1  9  2 -1</clus>
<clus scale="   83.294">  5  6 -1 -1</clus>
<clus scale="   86.613">  7  8 -1 -1</clus>
<clus scale="   87.717">  1  5  2 -1</clus>
<clus scale="   41.019">  1  5  2 -1</clus>
</clustering>
</event>
<event>
 9    1  0.3197504E-005  0.1226968E+03  0.7546771E-02  0.1241608E+00
         21   -1    0    0  501  502  0.00000000000E+00  0.00000000000E+00  0.83045682454E+02  0.83045682454E+02  0.00000000000E+00 0.  1.
         -2   -1    0    0    0  501 -0.00000000000E+00 -0.00000000000E+00 -0.30494435348E+03  0.30494435348E+03  0.00000000000E+00 0.  1.
         23    2    1    2    0    0  0.81777121486E+02  0.38975887109E+02 -0.19075610889E+03  0.23014273585E+03  0.91494089499E+02 0.  0.
        -24    2    1    2    0    0 -0.49208687760E+02 -0.48665776170E+02 -0.50763008254E+02  0.11861008903E+03  0.81863407517E+02 0.  0.
         13    1    4    4    0    0 -0.67829364522E+02 -0.16145754554E+02 -0.33049097858E+02  0.77160553074E+02  0.00000000000E+00 0. -1.
        -14    1    4    4    0    0  0.18620676762E+02 -0.32520021617E+02 -0.17713910396E+02  0.41449535951E+02  0.00000000000E+00 0.  1.
        -13    1    3    3    0    0 -0.97683828556E+01  0.35326380550E+02 -0.45795403687E+02  0.58656572225E+02  0.00000000000E+00 0. -1.
         13    1    3    3    0    0  0.91545504341E+02  0.36495065588E+01 -0.14496070520E+03  0.17148616363E+03  0.00000000000E+00 0.  1.
         -1    1    1    2    0  502 -0.32568433726E+02  0.96898890617E+01  0.19620446118E+02  0.39237211054E+02  0.00000000000E+00 0.  1.
<scales pt_clust_5="13000.00000" pt_clust_6="13000.00000" pt_clust_7="13000.00000" pt_clust_8="13000.00000" pt_clust_9="33.97936"></scales>
<clustering>
<clus scale="   33.979">  1  9  2 -1</clus>
<clus scale="   81.863">  5  6 -1 -1</clus>
<clus scale="   91.494">  7  8 -1 -1</clus>
<clus scale="  115.693">  1  5  2 -1</clus>
<clus scale="   33.979">  1  5  2 -1</clus>
</clustering>
</event>
<event>
 9    1  0.3197504E-005  0.9740443E+02  0.7546771E-02  0.1289732E+00
         21   -1    0    0  501  502  0.00000000000E+00  0.00000000000E+00  0.40742700051E+03  0.40742700051E+03  0.00000000000E+00 0.  1.
          1   -1    0    0  502    0 -0.00000000000E+00 -0.00000000000E+00 -0.65462442883E+02  0.65462442883E+02  0.00000000000E+00 0. -1.
         23    2    1    2    0    0 -0.58491612348E+01 -0.36085284576E+02  0.11884195412E+02  0.96306892271E+02  0.88303017775E+02 0.  0.
        -24    2    1    2    0    0 -0.19047475708E-01  0.69875164769E+02  0.32479439466E+03  0.34188192678E+03  0.80680320035E+02 0.  0.
         13    1    4    4    0    0 -0.13020585716E+02  0.25271690062E+02  0.23098494415E+02  0.36629693081E+02  0.00000000000E+00 0. -1.
        -14    1    4    4    0    0  0.13001538241E+02  0.44603474707E+02  0.30169590024E+03  0.30525223369E+03  0.00000000000E+00 0.  1.
        -11    1    3    3    0    0 -0.39240789019E+02 -0.35964160225E+02 -0.12843573371E+02  0.54755983422E+02  0.00000000000E+00 0. -1.
         11    1    3    3    0    0  0.33391627784E+02 -0.12112435082E+00  0.24727768784E+02  0.41550908849E+02  0.00000000000E+00 0.  1.
          2    1    1    2  501    0  0.58682087105E+01 -0.33789880193E+02  0.52859675568E+01  0.34700624345E+02  0.00000000000E+00 0. -1.
<scales pt_clust_5="13000.00000" pt_clust_6="13000.00000" pt_clust_7="13000.00000" pt_clust_8="13000.00000" pt_clust_9="34.29567"></scales>
<clustering>
<clus scale="   34.296">  1  9  2 -1</clus>
<clus scale="   80.680">  5  6 -1 -1</clus>
<clus scale="   88.303">  7  8 -1 -1</clus>
<clus scale="   90.551">  1  5  2 -1</clus>
<clus scale="   34.296">  1  5  2 -1</clus>
</clustering>
</event>
<event>
 9    1  0.3197504E-005  0.1242737E+03  0.7546771E-02  0.1256160E+00
         -2   -1    0    0    0  501 -0.00000000000E+00  0.00000000000E+00  0.15111937124E+03  0.15111937124E+03  0.00000000000E+00 0.  1.
         21   -1    0    0  501  502  0.00000000000E+00 -0.00000000000E+00 -0.19988369241E+03  0.19988369241E+03  0.00000000000E+00 0.  1.
        -24    2    1    2    0    0 -0.16965455349E+02  0.21702202429E+01 -0.93164879493E+02  0.12491463214E+03  0.81433617272E+02 0.  0.
         23    2    1    2    0    0 -0.67182529161E+02 -0.47419859645E+02 -0.10044621997E+01  0.12030549786E+03  0.87808134922E+02 0.  0.
         13    1    3    3    0    0 -0.24529682196E+02 -0.32419146056E+02 -0.74546514025E+02  0.84911065786E+02  0.00000000000E+00 0. -1.
        -14    1    3    3    0    0  0.75642268469E+01  0.34589366299E+02 -0.18618365468E+02  0.40003566359E+02  0.00000000000E+00 0.  1.
        -11    1    4    4    0    0 -0.46342908019E+02  0.18506776468E+02 -0.89866653116E+01  0.50704300136E+02  0.00000000000E+00 0. -1.
         11    1    4    4    0    0 -0.20839621142E+02 -0.65926636113E+02  0.79822031118E+01  0.69601197727E+02  0.00000000000E+00 0.  1.
         -1    1    1    2    0  502  0.84147984509E+02  0.45249639402E+02  0.45405020521E+02  0.10578293365E+03  0.00000000000E+00 0.  1.
<scales pt_clust_5="13000.00000" pt_clust_6="13000.00000" pt_clust_7="13000.00000" pt_clust_8="13000.00000" pt_clust_9="87.94139"></scales>
<clustering>
<clus scale="   81.434">  5  6 -1 -1</clus>
<clus scale="   83.210">  1  5  2 -1</clus>
<clus scale="   87.808">  7  8 -1 -1</clus>
<clus scale="   87.941">  2  9  1 -1</clus>
<clus scale="   87.941">  2  5  1 -1</clus>
</clustering>
</event>
<event>
 9    1  0.3197504E-005  0.2156456E+03  0.7546771E-02  0.1172443E+00
          1   -1    0    0  502    0 -0.00000000000E+00  0.00000000000E+00  0.72609628807E+03  0.72609628807E+03  0.00000000000E+00 0. -1.
         21   -1    0    0  501  502  0.00000000000E+00 -0.00000000000E+00 -0.99799466711E+02  0.99799466711E+02  0.00000000000E+00 0. -1.
        -24    2    1    2    0    0 -0.51946387323E+02 -0.17969490009E+01  0.24468973689E+03  0.26217526065E+03  0.78492953668E+02 0.  0.
         23    2    1    2    0    0  0.16573348204E+03 -0.13751946437E+03  0.19039803492E+03  0.30119913007E+03  0.89946173370E+02 0.  0.
         11    1    3    3    0    0  0.23286307859E+01  0.26403292564E+02  0.35988346461E+02  0.44695832697E+02  0.00000000000E+00 0. -1.
        -12    1    3    3    0    0 -0.54275018109E+02 -0.28200241565E+02  0.20870139043E+03  0.21747942795E+03  0.00000000000E+00 0.  1.
        -11    1    4    4    0    0  0.33716541800E+02 -0.51827893287E+02  0.11444299330E+02  0.62880105762E+02  0.00000000000E+00 0.  1.
         11    1    4    4    0    0  0.13201694024E+03 -0.85691571079E+02  0.17895373559E+03  0.23831902431E+03  0.00000000000E+00 0. -1.
          2    1    1    2  501    0 -0.11378709472E+03  0.13931641337E+03  0.19120904955E+03  0.26252136406E+03  0.00000000000E+00 0. -1.
<scales pt_clust_5="13000.00000" pt_clust_6="13000.00000" pt_clust_7="13000.00000" pt_clust_8="13000.00000" pt_clust_9="195.99167"></scales>
<clustering>
<clus scale="   78.493">  5  6 -1 -1</clus>
<clus scale="   89.946">  7  8 -1 -1</clus>
<clus scale="   94.142">  1  5  2 -1</clus>
<clus scale="  195.992">  2  9  1 -1</clus>
<clus scale="  195.992">  2  5  1 -1</clus>
</clustering>
</event>
<event>
 9    1  0.3197504E-005  0.1257027E+03  0.7546771E-02  0.1244801E+00
          1   -1    0    0  502    0 -0.00000000000E+00  0.00000000000E+00  0.23032181447E+03  0.23032181447E+03  0.00000000000E+00 0. -1.
         21   -1    0    0  501  502  0.00000000000E+00 -0.00000000000E+00 -0.96505781065E+02  0.96505781065E+02  0.00000000000E+00 0. -1.
         23    2    1    2    0    0  0.90755913540E+02 -0.32973218861E+02  0.15065969427E+03  0.20097998967E+03  0.91491768842E+02 0.  0.
        -24    2    1    2    0    0 -0.53541114765E+02  0.34879162657E+02 -0.27511693870E+02  0.87087048624E+02  0.52383716749E+02 0.  0.
         13    1    4    4    0    0 -0.11738370833E+02  0.37320485299E+02 -0.21909201362E+02  0.44839949566E+02  0.00000000000E+00 0. -1.
        -14    1    4    4    0    0 -0.41802743932E+02 -0.24413226414E+01 -0.56024925083E+01  0.42247099058E+02  0.00000000000E+00 0.  1.
        -11    1    3    3    0    0 -0.17715848347E+02 -0.13203452999E+02  0.18123744316E+02  0.28577133548E+02  0.00000000000E+00 0.  1.
         11    1    3    3    0    0  0.10847176189E+03 -0.19769765862E+02  0.13253594995E+03  0.17240285612E+03  0.00000000000E+00 0. -1.
          2    1    1    2  501    0 -0.37214798775E+02 -0.19059437967E+01  0.10668033008E+02  0.38760557244E+02  0.00000000000E+00 0. -1.
<scales pt_clust_5="13000.00000" pt_clust_6="13000.00000" pt_clust_7="13000.00000" pt_clust_8="13000.00000" pt_clust_9="37.26357"></scales>
<clustering>
<clus scale="   37.264">  2  9  1 -1</clus>
<clus scale="   52.384">  5  6 -1 -1</clus>
<clus scale="   91.492">  7  8 -1 -1</clus>
<clus scale="  100.869">  2  5  1 -1</clus>
<clus scale="   37.264">  2  5  1 -1</clus>
</clustering>
</event>
<event>
 9    1  0.3197504E-005  0.1060501E+03  0.7546771E-02  0.1273316E+00
         -2   -1    0    0    0  501 -0.00000000000E+00  0.00000000000E+00  0.17402940988E+03  0.17402940988E+03  0.00000000000E+00 0.  1.
         21   -1    0    0  501  502  0.00000000000E+00 -0.00000000000E+00 -0.16541242563E+03  0.16541242563E+03  0.00000000000E+00 0.  1.
        -24    2    1    2    0    0  0.29333792044E+01  0.56075713774E+02  0.11469148911E+03  0.15080835481E+03  0.80224259524E+02 0.  0.
         23    2    1    2    0    0 -0.42867863372E+02 -0.28819773454E+02 -0.58466910475E+02  0.12077972362E+03  0.92201567038E+02 0.  0.
         11    1    3    3    0    0  0.24286989949E+02  0.53958512848E+02  0.36043881583E+02  0.69285932115E+02  0.00000000000E+00 0. -1.
        -12    1    3    3    0    0 -0.21353610745E+02  0.21172009260E+01  0.78647607528E+02  0.81522422691E+02  0.00000000000E+00 0.  1.
        -13    1    4    4    0    0 -0.67058546213E+02 -0.14346470046E+02 -0.61900586013E+02  0.92381558613E+02  0.00000000000E+00 0.  1.
         13    1    4    4    0    0  0.24190682841E+02 -0.14473303408E+02  0.34336755376E+01  0.28398165004E+02  0.00000000000E+00 0. -1.
         -1    1    1    2    0  502  0.39934484168E+02 -0.27255940320E+02 -0.47607594376E+02  0.67853757086E+02  0.00000000000E+00 0.  1.
<scales pt_clust_5="13000.00000" pt_clust_6="13000.00000" pt_clust_7="13000.00000" pt_clust_8="13000.00000" pt_clust_9="48.34924"></scales>
<clustering>
<clus scale="   48.349">  2  9  1 -1</clus>
<clus scale="   80.224">  5  6 -1 -1</clus>
<clus scale="   92.202">  7  8 -1 -1</clus>
<clus scale="   95.820">  1  5  2 -1</clus>
<clus scale="   48.349">  2  5  1 -1</clus>
</clustering>
</event>
<event>
 9    1  0.3197504E-005  0.1103654E+03  0.7546771E-02  0.1263770E+00
         -2   -1    0    0    0  501 -0.00000000000E+00  0.00000000000E+00  0.90462871296E+03  0.90462871296E+03  0.00000000000E+00 0.  1.
         21   -1    0    0  501  502  0.00000000000E+00 -0.00000000000E+00 -0.23070188432E+02  0.23070188432E+02  0.00000000000E+00 0. -1.
        -24    2    1    2    0    0  0.53745991669E+01  0.65333890694E+02  0.68131521116E+03  0.68923587009E+03  0.80983109779E+02 0.  0.
         23    2    1    2    0    0 -0.20246156244E+02 -0.47696316417E+02  0.14730216931E+03  0.18071346879E+03  0.90964736443E+02 0.  0.
         11    1    3    3    0    0 -0.22770678155E+02  0.53218783076E+02  0.24094198683E+03  0.24779786858E+03  0.00000000000E+00 0. -1.
        -12    1    3    3    0    0  0.28145277322E+02  0.12115107618E+02  0.44037322433E+03  0.44143800151E+03  0.00000000000E+00 0.  1.
        -11    1    4    4    0    0  0.41810313635E+01  0.26310176415E+02  0.41268168701E+02  0.49119936423E+02  0.00000000000E+00 0.  1.
         11    1    4    4    0    0 -0.24427187607E+02 -0.74006492832E+02  0.10603400061E+03  0.13159353237E+03  0.00000000000E+00 0. -1.
         -1    1    1    2    0  502  0.14871557077E+02 -0.17637574277E+02  0.52941144050E+02  0.57749562505E+02  0.00000000000E+00 0.  1.
<scales pt_clust_5="13000.00000" pt_clust_6="13000.00000" pt_clust_7="13000.00000" pt_clust_8="13000.00000" pt_clust_9="23.07048"></scales>
<clustering>
<clus scale="   23.070">  2  9  1 -1</clus>
<clus scale="   80.983">  5  6 -1 -1</clus>
<clus scale="   90.965">  7  8 -1 -1</clus>
<clus scale="  102.295">  1  5  2 -1</clus>
<clus scale="   23.070">  2  5  1 -1</clus>
</clustering>
</event>
<event>
 9    1  0.3197504E-005  0.9428021E+02  0.7546771E-02  0.1300402E+00
         -2   -1    0    0    0  501 -0.00000000000E+00  0.00000000000E+00  0.33548026879E+03  0.33548026879E+03  0.00000000000E+00 0.  1.
         21   -1    0    0  501  502  0.00000000000E+00 -0.00000000000E+00 -0.75067116945E+02  0.75067116945E+02  0.00000000000E+00 0.  1.
        -24    2    1    2    0    0 -0.69659743567E+01 -0.93393855972E+01  0.16045039345E+02  0.81020031851E+02  0.78556052291E+02 0.  0.
         23    2    1    2    0    0 -0.34694045685E+02  0.33056229655E+02  0.26630425056E+02  0.10657501257E+03  0.91392902578E+02 0.  0.
         11    1    3    3    0    0  0.34710843655E+02  0.71693012303E+00 -0.13695751259E+01  0.34745249921E+02  0.00000000000E+00 0. -1.
        -12    1    3    3    0    0 -0.41676818012E+02 -0.10056315720E+02  0.17414614471E+02  0.46274781930E+02  0.00000000000E+00 0.  1.
        -11    1    4    4    0    0 -0.22389641274E+02  0.23472091378E+01 -0.32076721577E+02  0.39188282614E+02  0.00000000000E+00 0.  1.
         11    1    4    4    0    0 -0.12304404411E+02  0.30709020518E+02  0.58707146633E+02  0.67386729961E+02  0.00000000000E+00 0. -1.
         -1    1    1    2    0  502  0.41660020042E+02 -0.23716844058E+02  0.21773768744E+03  0.22295234130E+03  0.00000000000E+00 0.  1.
<scales pt_clust_5="13000.00000" pt_clust_6="13000.00000" pt_clust_7="13000.00000" pt_clust_8="13000.00000" pt_clust_9="47.93796"></scales>
<clustering>
<clus scale="   47.938">  2  9  1 -1</clus>
<clus scale="   78.556">  5  6 -1 -1</clus>
<clus scale="   81.897">  1  5  2 -1</clus>
<clus scale="   91.393">  7  8 -1 -1</clus>
<clus scale="   47.938">  2  5  1 -1</clus>
</clustering>
</event>
<event>
 9    1  0.3197504E-005  0.1489983E+03  0.7546771E-02  0.1204325E+00
         -2   -1    0    0    0  501 -0.00000000000E+00  0.00000000000E+00  0.87337713797E+03  0.87337713797E+03  0.00000000000E+00 0.  1.
         21   -1    0    0  501  502  0.00000000000E+00 -0.00000000000E+00 -0.43595359685E+02  0.43595359685E+02  0.00000000000E+00 0. -1.
        -24    2    1    2    0    0 -0.42478965419E+02  0.11940764465E+03  0.62230771691E+03  0.64000677078E+03  0.79240923864E+02 0.  0.
         23    2    1    2    0    0  0.27276981709E+02 -0.76312868769E+02  0.95454161272E+02  0.15598342223E+03  0.93014210938E+02 0.  0.
         13    1    3    3    0    0 -0.62122645803E+02  0.59376267037E+02  0.33609678263E+03  0.34690893834E+03  0.00000000000E+00 0. -1.
        -14    1    3    3    0    0  0.19643680385E+02  0.60031377616E+02  0.28621093429E+03  0.29309783244E+03  0.00000000000E+00 0.  1.
        -13    1    4    4    0    0  0.19128990062E+02 -0.34049734369E+02 -0.11483880588E+02  0.40708502610E+02  0.00000000000E+00 0. -1.
         13    1    4    4    0    0  0.81479916468E+01 -0.42263134400E+02  0.10693804186E+03  0.11527491962E+03  0.00000000000E+00 0.  1.
         -1    1    1    2    0  502  0.15201983710E+02 -0.43094775884E+02  0.11201990010E+03  0.12098230464E+03  0.00000000000E+00 0.  1.
<scales pt_clust_5="13000.00000" pt_clust_6="13000.00000" pt_clust_7="13000.00000" pt_clust_8="13000.00000" pt_clust_9="45.69751"></scales>
<clustering>
<clus scale="   45.698">  2  9  1 -1</clus>
<clus scale="   79.241">  5  6 -1 -1</clus>
<clus scale="   93.014">  7  8 -1 -1</clus>
<clus scale="  140.812">  1  5  2 -1</clus>
<clus scale="   45.698">  2  5  1 -1</clus>
</clustering>
</event>
<event>
 9    1  0.3197504E-005  0.9516532E+02  0.7546771E-02  0.1294970E+00
          3   -1    0    0  502    0 -0.00000000000E+00  0.00000000000E+00  0.33659758484E+03  0.33659758484E+03  0.00000000000E+00 0. -1.
         21   -1    0    0  501  502  0.00000000000E+00 -0.00000000000E+00 -0.34924375376E+02  0.34924375376E+02  0.00000000000E+00 0. -1.
         23    2    1    2    0    0  0.15354303505E+02 -0.17699783457E+02  0.14487399731E+03  0.17179561421E+03  0.89309691500E+02 0.  0.
        -24    2    1    2    0    0 -0.38573938007E+02  0.26466052986E+02  0.97921696022E+02  0.13583142591E+03  0.81689148965E+02 0.  0.
         13    1    4    4    0    0 -0.41074767536E+02  0.46568059691E+02  0.97470892612E+02  0.11556944068E+03  0.00000000000E+00 0. -1.
        -14    1    4    4    0    0  0.25008295292E+01 -0.20102006705E+02  0.45080341078E+00  0.20261985234E+02  0.00000000000E+00 0.  1.
        -11    1    3    3    0    0  0.50673886498E+02 -0.20265592625E+02  0.68277457233E+02  0.87409085246E+02  0.00000000000E+00 0. -1.
         11    1    3    3    0    0 -0.35319582993E+02  0.25658091677E+01  0.76596540072E+02  0.84386528964E+02  0.00000000000E+00 0.  1.
          4    1    1    2  501    0  0.23219634502E+02 -0.87662695295E+01  0.58877516137E+02  0.63894920098E+02  0.00000000000E+00 0. -1.
<scales pt_clust_5="13000.00000" pt_clust_6="13000.00000" pt_clust_7="13000.00000" pt_clust_8="13000.00000" pt_clust_9="24.81934"></scales>
<clustering>
<clus scale="   24.819">  2  9  1 -1</clus>
<clus scale="   81.689">  5  6 -1 -1</clus>
<clus scale="   88.053">  2  5  1 -1</clus>
<clus scale="   89.310">  7  8 -1 -1</clus>
<clus scale="   24.819">  2  5  1 -1</clus>
</clustering>
</event>
<event>
 9    1  0.3197504E-005  0.1013396E+03  0.7546771E-02  0.1287951E+00
         21   -1    0    0  501  502  0.00000000000E+00  0.00000000000E+00  0.99798009574E+02  0.99798009574E+02  0.00000000000E+00 0.  1.
         -2   -1    0    0    0  501 -0.00000000000E+00 -0.00000000000E+00 -0.20240932590E+03  0.20240932590E+03  0.00000000000E+00 0.  1.
        -24    2    1    2    0    0 -0.50637680559E+02 -0.18486027507E+02 -0.81963491304E+02  0.11964908067E+03  0.68498034230E+02 0.  0.
         23    2    1    2    0    0  0.39995148709E+02 -0.25225937815E+00 -0.75325889040E+02  0.12378685389E+03  0.89719117706E+02 0.  0.
         13    1    3    3    0    0  0.93638551651E+01 -0.25107234468E+02 -0.25698703451E+02  0.37127865078E+02  0.00000000000E+00 0. -1.
        -14    1    3    3    0    0 -0.60001535724E+02  0.66212069614E+01 -0.56264787852E+02  0.82521215593E+02  0.00000000000E+00 0.  1.
        -13    1    4    4    0    0 -0.29062872825E+02 -0.20917832993E+01 -0.21552538414E+02  0.36242765435E+02  0.00000000000E+00 0.  1.
         13    1    4    4    0    0  0.69058021534E+02  0.18395239212E+01 -0.53773350626E+02  0.87544088458E+02  0.00000000000E+00 0. -1.
         -1    1    1    2    0  502  0.10642531850E+02  0.18738286885E+02  0.54678064021E+02  0.58771400908E+02  0.00000000000E+00 0.  1.
<scales pt_clust_5="13000.00000" pt_clust_6="13000.00000" pt_clust_7="13000.00000" pt_clust_8="13000.00000" pt_clust_9="21.54964"></scales>
<clustering>
<clus scale="   21.550">  1  9  2 -1</clus>
<clus scale="   68.498">  5  6 -1 -1</clus>
<clus scale="   83.140">  2  5  1 -1</clus>
<clus scale="   89.719">  7  8 -1 -1</clus>
<clus scale="   21.550">  1  5  2 -1</clus>
</clustering>
</event>
<event>
 9    1  0.3197504E-005  0.1282320E+03  0.7546771E-02  0.1242093E+00
         21   -1    0    0  501  502  0.00000000000E+00  0.00000000000E+00  0.13066796037E+03  0.13066796037E+03  0.00000000000E+00 0.  1.
         -4   -1    0    0    0  501 -0.00000000000E+00 -0.00000000000E+00 -0.61060374685E+03  0.61060374685E+03  0.00000000000E+00 0.  1.
        -24    2    1    2    0    0  0.57871187528E+02 -0.77438421998E+01 -0.39616504267E+03  0.40867889260E+03  0.81625086742E+02 0.  0.
         23    2    1    2    0    0 -0.54493229221E+01  0.10368005705E+03  0.67505499144E+02  0.14594793554E+03  0.77230551739E+02 0.  0.
         11    1    3    3    0    0  0.25674497124E+02 -0.48988305375E+01 -0.25196283110E+02  0.36304697021E+02  0.00000000000E+00 0. -1.
        -12    1    3    3    0    0  0.32196690403E+02 -0.28450116623E+01 -0.37096875956E+03  0.37237419558E+03  0.00000000000E+00 0.  1.
        -11    1    4    4    0    0 -0.36049150527E+02  0.23749201245E+02  0.29596009730E+02  0.52340133793E+02  0.00000000000E+00 0. -1.
         11    1    4    4    0    0  0.30599827605E+02  0.79930855807E+02  0.37909489413E+02  0.93607801743E+02  0.00000000000E+00 0.  1.
         -3    1    1    2    0  502 -0.52421864606E+02 -0.95936214853E+02 -0.15127624295E+03  0.18664487909E+03  0.00000000000E+00 0.  1.
<scales pt_clust_5="13000.00000" pt_clust_6="13000.00000" pt_clust_7="13000.00000" pt_clust_8="13000.00000" pt_clust_9="102.36655"></scales>
<clustering>
<clus scale="   77.231">  7  8 -1 -1</clus>
<clus scale="   81.625">  5  6 -1 -1</clus>
<clus scale="  100.358">  2  5  1 -1</clus>
<clus scale="  102.367">  1  9  2 -1</clus>
<clus scale="  102.367">  1  5  2 -1</clus>
</clustering>
</event>
<event>
 9    1  0.3197504E-005  0.9976259E+02  0.7546771E-02  0.1288017E+00
         -2   -1    0    0    0  501 -0.00000000000E+00  0.00000000000E+00  0.67752905919E+02  0.67752905919E+02  0.00000000000E+00 0.  1.
         21   -1    0    0  501  502  0.00000000000E+00 -0.00000000000E+00 -0.23561928540E+03  0.23561928540E+03  0.00000000000E+00 0.  1.
         23    2    1    2    0    0 -0.40784233661E+02  0.30225998685E+02 -0.57501527103E+02  0.12216717862E+03  0.95086430166E+02 0.  0.
        -24    2    1    2    0    0  0.19836300743E+02  0.22377705100E+02 -0.62684090228E+02  0.10718190398E+03  0.81635928732E+02 0.  0.
         11    1    4    4    0    0 -0.13104399941E+02  0.17369811687E+02  0.12395103488E+02  0.25041450564E+02  0.00000000000E+00 0. -1.
        -12    1    4    4    0    0  0.32940700684E+02  0.50078934134E+01 -0.75079193716E+02  0.82140453414E+02  0.00000000000E+00 0.  1.
        -11    1    3    3    0    0  0.73259044617E+01 -0.19687785912E+02 -0.47741127299E+02  0.52158345700E+02  0.00000000000E+00 0. -1.
         11    1    3    3    0    0 -0.48110138123E+02  0.49913784596E+02 -0.97603998032E+01  0.70008832923E+02  0.00000000000E+00 0.  1.
         -1    1    1    2    0  502  0.20947932918E+02 -0.52603703785E+02 -0.47680762155E+02  0.74023108723E+02  0.00000000000E+00 0.  1.
<scales pt_clust_5="13000.00000" pt_clust_6="13000.00000" pt_clust_7="13000.00000" pt_clust_8="13000.00000" pt_clust_9="56.62125"></scales>
<clustering>
<clus scale="   56.621">  2  9  1 -1</clus>
<clus scale="   81.636">  5  6 -1 -1</clus>
<clus scale="   87.038">  2  5  1 -1</clus>
<clus scale="   95.086">  7  8 -1 -1</clus>
<clus scale="   56.621">  2  5  1 -1</clus>
</clustering>
</event>
<event>
 9    1  0.3197504E-005  0.9911051E+02  0.7546771E-02  0.1284637E+00
         21   -1    0    0  501  502  0.00000000000E+00  0.00000000000E+00  0.60415969469E+02  0.60415969469E+02  0.00000000000E+00 0. -1.
          1   -1    0    0  502    0 -0.00000000000E+00 -0.00000000000E+00 -0.36121400056E+03  0.36121400056E+03  0.00000000000E+00 0. -1.
         23    2    1    2    0    0 -0.12491326005E+02 -0.36808215657E+02 -0.18546594655E+03  0.20966264354E+03  0.89721395465E+02 0.  0.
        -24    2    1    2    0    0  0.38091924163E+02 -0.18658744373E+02 -0.31491363116E+02  0.10823092569E+03  0.94462076497E+02 0.  0.
         11    1    4    4    0    0  0.21941419633E+02  0.21608652660E+02  0.23102025170E+02  0.38497575667E+02  0.00000000000E+00 0. -1.
        -12    1    4    4    0    0  0.16150504531E+02 -0.40267397033E+02 -0.54593388286E+02  0.69733350020E+02  0.00000000000E+00 0.  1.
        -11    1    3    3    0    0 -0.17643621983E+02  0.14226114477E+02 -0.66275128226E+01  0.23613632842E+02  0.00000000000E+00 0.  1.
         11    1    3    3    0    0  0.51522959782E+01 -0.51034330134E+02 -0.17883843372E+03  0.18604901070E+03  0.00000000000E+00 0. -1.
          2    1    1    2  501    0 -0.25600598158E+02  0.55466960029E+02 -0.83840721429E+02  0.10373640080E+03  0.00000000000E+00 0. -1.
<scales pt_clust_5="13000.00000" pt_clust_6="13000.00000" pt_clust_7="13000.00000" pt_clust_8="13000.00000" pt_clust_9="61.08992"></scales>
<clustering>
<clus scale="   61.090">  1  9  2 -1</clus>
<clus scale="   89.721">  7  8 -1 -1</clus>
<clus scale="   94.462">  5  6 -1 -1</clus>
<clus scale="   94.603">  2  7  1 -1</clus>
<clus scale="   61.090">  1  5  2 -1</clus>
</clustering>
</event>
<event>
 9    1  0.3197504E-005  0.8722329E+02  0.7546771E-02  0.1314441E+00
          1   -1    0    0  502    0 -0.00000000000E+00  0.00000000000E+00  0.22889674034E+03  0.22889674034E+03  0.00000000000E+00 0. -1.
         21   -1    0    0  501  502  0.00000000000E+00 -0.00000000000E+00 -0.66148119338E+02  0.66148119338E+02  0.00000000000E+00 0. -1.
         23    2    1    2    0    0 -0.10852470648E+01 -0.24639641139E+02  0.14876757502E+03  0.17295272567E+03  0.84690992814E+02 0.  0.
        -24    2    1    2    0    0  0.22890023599E+02  0.25703047993E+01 -0.12082183774E+02  0.81573054158E+02  0.77315097832E+02 0.  0.
         11    1    4    4    0    0  0.40976929200E+02  0.27475663293E+02 -0.12079150856E+02  0.50792978702E+02  0.00000000000E+00 0. -1.
        -12    1    4    4    0    0 -0.18086905601E+02 -0.24905358493E+02 -0.30329179392E-02  0.30780075456E+02  0.00000000000E+00 0.  1.
        -13    1    3    3    0    0  0.13121464915E+02  0.20049355557E+02  0.10858871233E+03  0.11120097996E+03  0.00000000000E+00 0.  1.
         13    1    3    3    0    0 -0.14206711979E+02 -0.44688996696E+02  0.40178862692E+02  0.61751745710E+02  0.00000000000E+00 0. -1.
          2    1    1    2  501    0 -0.21804776534E+02  0.22069336340E+02  0.26063229754E+02  0.40519079844E+02  0.00000000000E+00 0. -1.
<scales pt_clust_5="13000.00000" pt_clust_6="13000.00000" pt_clust_7="13000.00000" pt_clust_8="13000.00000" pt_clust_9="31.02426"></scales>
<clustering>
<clus scale="   31.024">  2  9  1 -1</clus>
<clus scale="   77.315">  5  6 -1 -1</clus>
<clus scale="   80.081">  2  5  1 -1</clus>
<clus scale="   84.691">  7  8 -1 -1</clus>
<clus scale="   31.024">  2  5  1 -1</clus>
</clustering>
</event>
<event>
 9    1  0.3197504E-005  0.1392676E+03  0.7546771E-02  0.1219886E+00
          3   -1    0    0  502    0 -0.00000000000E+00  0.00000000000E+00  0.21432553052E+02  0.21432553052E+02  0.00000000000E+00 0. -1.
         21   -1    0    0  501  502  0.00000000000E+00 -0.00000000000E+00 -0.10013446817E+04  0.10013446817E+04  0.00000000000E+00 0.  1.
        -24    2    1    2    0    0 -0.76363940266E+02  0.45273242316E+02 -0.36346383246E+03  0.38361267796E+03  0.84685366735E+02 0.  0.
         23    2    1    2    0    0  0.91279055062E+02 -0.25124073033E+02 -0.55233746520E+03  0.57032671603E+03  0.10598491691E+03 0.  0.
         13    1    3    3    0    0 -0.69343522471E+02  0.54057350887E+02 -0.18538057551E+03  0.20517475252E+03  0.00000000000E+00 0. -1.
        -14    1    3    3    0    0 -0.70204177950E+01 -0.87841085714E+01 -0.17808325695E+03  0.17843792544E+03  0.00000000000E+00 0.  1.
        -11    1    4    4    0    0  0.97128782414E+02  0.48083128807E+01 -0.50307004695E+03  0.51238324756E+03  0.00000000000E+00 0.  1.
         11    1    4    4    0    0 -0.58497273524E+01 -0.29932385913E+02 -0.49267418256E+02  0.57943468469E+02  0.00000000000E+00 0. -1.
          4    1    1    2  501    0 -0.14915114796E+02 -0.20149169283E+02 -0.64110831035E+02  0.68837840816E+02  0.00000000000E+00 0. -1.
<scales pt_clust_5="13000.00000" pt_clust_6="13000.00000" pt_clust_7="13000.00000" pt_clust_8="13000.00000" pt_clust_9="25.06891"></scales>
<clustering>
<clus scale="   25.069">  2  9  1 -1</clus>
<clus scale="   84.685">  5  6 -1 -1</clus>
<clus scale="  105.985">  7  8 -1 -1</clus>
<clus scale="  123.832">  1  5  2 -1</clus>
<clus scale="   25.069">  2  5  1 -1</clus>
</clustering>
</event>
<event>
 9    1  0.3197504E-005  0.1093971E+03  0.7546771E-02  0.1265844E+00
         21   -1    0    0  501  502  0.00000000000E+00  0.00000000000E+00  0.12318552127E+03  0.12318552127E+03  0.00000000000E+00 0. -1.
          1   -1    0    0  502    0 -0.00000000000E+00 -0.00000000000E+00 -0.24719745808E+03  0.24719745808E+03  0.00000000000E+00 0. -1.
         23    2    1    2    0    0 -0.34289884521E+02 -0.53867484516E+02 -0.13094088492E+03  0.17219023004E+03  0.91795740147E+02 0.  0.
        -24    2    1    2    0    0  0.55412324863E+02  0.86833406482E+01  0.67496697631E+02  0.11973118787E+03  0.81448308792E+02 0.  0.
         13    1    4    4    0    0  0.71941633475E+02  0.17384166037E+01  0.29609818545E+02  0.77816207011E+02  0.00000000000E+00 0. -1.
        -14    1    4    4    0    0 -0.16529308612E+02  0.69449240444E+01  0.37886879086E+02  0.41914980855E+02  0.00000000000E+00 0.  1.
        -13    1    3    3    0    0 -0.54262615195E+02 -0.43792860118E+01 -0.43212127165E+02  0.69504658031E+02  0.00000000000E+00 0. -1.
         13    1    3    3    0    0  0.19972730675E+02 -0.49488198505E+02 -0.87728757750E+02  0.10268557201E+03  0.00000000000E+00 0.  1.
          2    1    1    2  501    0 -0.21122440343E+02  0.45184143868E+02 -0.60567749525E+02  0.78461561453E+02  0.00000000000E+00 0. -1.
<scales pt_clust_5="13000.00000" pt_clust_6="13000.00000" pt_clust_7="13000.00000" pt_clust_8="13000.00000" pt_clust_9="49.87752"></scales>
<clustering>
<clus scale="   49.878">  1  9  2 -1</clus>
<clus scale="   81.448">  5  6 -1 -1</clus>
<clus scale="   91.796">  7  8 -1 -1</clus>
<clus scale="  100.872">  1  5  2 -1</clus>
<clus scale="   49.878">  1  5  2 -1</clus>
</clustering>
</event>
<event>
 9    1  0.3197504E-005  0.1540598E+03  0.7546771E-02  0.1222565E+00
         -2   -1    0    0    0  501 -0.00000000000E+00  0.00000000000E+00  0.42935169935E+02  0.42935169935E+02  0.00000000000E+00 0.  1.
         21   -1    0    0  501  502  0.00000000000E+00 -0.00000000000E+00 -0.86035918354E+03  0.86035918354E+03  0.00000000000E+00 0. -1.
        -24    2    1    2    0    0  0.37533318275E+02  0.65631128596E+00 -0.23739152401E+03  0.25265407749E+03  0.77911273076E+02 0.  0.
         23    2    1    2    0    0  0.80510167256E+02  0.79261725321E+02 -0.36320130097E+03  0.39114668953E+03  0.91193418484E+02 0.  0.
         13    1    3    3    0    0  0.49730115606E+02 -0.14440301458E+02 -0.88766304609E+02  0.10276703527E+03  0.00000000000E+00 0. -1.
        -14    1    3    3    0    0 -0.12196797331E+02  0.15096612744E+02 -0.14862521940E+03  0.14988704221E+03  0.00000000000E+00 0.  1.
        -11    1    4    4    0    0  0.19538538078E+02  0.47086958159E+01 -0.56869178586E+01  0.20887013220E+02  0.00000000000E+00 0.  1.
         11    1    4    4    0    0  0.60971629178E+02  0.74553029505E+02 -0.35751438311E+03  0.37025967631E+03  0.00000000000E+00 0. -1.
         -1    1    1    2    0  502 -0.11804348553E+03 -0.79918036607E+02 -0.21683118863E+03  0.25949358646E+03  0.00000000000E+00 0.  1.
<scales pt_clust_5="13000.00000" pt_clust_6="13000.00000" pt_clust_7="13000.00000" pt_clust_8="13000.00000" pt_clust_9="124.17008"></scales>
<clustering>
<clus scale="   77.911">  5  6 -1 -1</clus>
<clus scale="   86.483">  1  5  2 -1</clus>
<clus scale="   91.193">  7  8 -1 -1</clus>
<clus scale="  124.170">  2  9  1 -1</clus>
<clus scale="  124.170">  2  5  1 -1</clus>
</clustering>
</event>
<event>
 9    1  0.3197504E-005  0.1373256E+03  0.7546771E-02  0.1241173E+00
         21   -1    0    0  501  502  0.00000000000E+00  0.00000000000E+00  0.49179031453E+02  0.49179031453E+02  0.00000000000E+00 0.  1.
         -2   -1    0    0    0  501 -0.00000000000E+00 -0.00000000000E+00 -0.75356140433E+03  0.75356140433E+03  0.00000000000E+00 0.  1.
        -24    2    1    2    0    0  0.25901770944E+02  0.97364795651E+01 -0.77340649781E+02  0.11363119921E+03  0.78516065568E+02 0.  0.
         23    2    1    2    0    0 -0.60401338927E+02 -0.10283671805E+03 -0.52775303752E+03  0.54869514298E+03  0.91210629815E+02 0.  0.
         11    1    3    3    0    0  0.49023922539E+02 -0.64480906651E+01 -0.28093334645E+02  0.56869660679E+02  0.00000000000E+00 0. -1.
        -12    1    3    3    0    0 -0.23122151594E+02  0.16184570230E+02 -0.49247315136E+02  0.56761538528E+02  0.00000000000E+00 0.  1.
        -11    1    4    4    0    0 -0.14991505874E+02 -0.16370500050E+02 -0.15159119165E+02  0.26880056066E+02  0.00000000000E+00 0. -1.
         11    1    4    4    0    0 -0.45409833053E+02 -0.86466218004E+02 -0.51259391836E+03  0.52181508691E+03  0.00000000000E+00 0.  1.
         -1    1    1    2    0  502  0.34499567983E+02  0.93100238489E+02 -0.99288685574E+02  0.14041409360E+03  0.00000000000E+00 0.  1.
<scales pt_clust_5="13000.00000" pt_clust_6="13000.00000" pt_clust_7="13000.00000" pt_clust_8="13000.00000" pt_clust_9="102.65936"></scales>
<clustering>
<clus scale="   78.516">  5  6 -1 -1</clus>
<clus scale="   83.250">  2  5  1 -1</clus>
<clus scale="   91.211">  7  8 -1 -1</clus>
<clus scale="  102.659">  1  9  2 -1</clus>
<clus scale="  102.659">  1  5  2 -1</clus>
</clustering>
</event>
<event>
 9    1  0.3197504E-005  0.1328413E+03  0.7546771E-02  0.1225773E+00
         -4   -1    0    0    0  501 -0.00000000000E+00  0.00000000000E+00  0.19906129522E+03  0.19906129522E+03  0.00000000000E+00 0.  1.
         21   -1    0    0  501  502  0.00000000000E+00 -0.00000000000E+00 -0.21445640360E+03  0.21445640360E+03  0.00000000000E+00 0.  1.
         23    2    1    2    0    0  0.64295914098E+02  0.17762514656E+02  0.14534400397E+02  0.11449383602E+03  0.91913645316E+02 0.  0.
        -24    2    1    2    0    0 -0.11835874451E+03 -0.11631619304E+03 -0.20512040373E+02  0.18622179781E+03  0.81972952950E+02 0.  0.
         11    1    4    4    0    0 -0.58089458419E+02 -0.27938388898E+02  0.26090988345E+02  0.69539042462E+02  0.00000000000E+00 0. -1.
        -12    1    4    4    0    0 -0.60269286095E+02 -0.88377804140E+02 -0.46603028719E+02  0.11668275535E+03  0.00000000000E+00 0.  1.
        -11    1    3    3    0    0  0.75658302013E+02 -0.80175672784E+01 -0.10502598597E+02  0.76803415457E+02  0.00000000000E+00 0.  1.
         11    1    3    3    0    0 -0.11362387915E+02  0.25780081934E+02  0.25036998995E+02  0.37690420564E+02  0.00000000000E+00 0. -1.
         -3    1    1    2    0  502  0.54062830416E+02  0.98553678382E+02 -0.94174684044E+01  0.11280206499E+03  0.00000000000E+00 0.  1.
<scales pt_clust_5="13000.00000" pt_clust_6="13000.00000" pt_clust_7="13000.00000" pt_clust_8="13000.00000" pt_clust_9="112.40826"></scales>
<clustering>
<clus scale="   81.973">  5  6 -1 -1</clus>
<clus scale="   91.914">  7  8 -1 -1</clus>
<clus scale="  112.408">  2  9  1 -1</clus>
<clus scale="  126.168">  2  5  1 -1</clus>
<clus scale="  112.408">  2  5  1 -1</clus>
</clustering>
</event>
<event>
 9    1  0.3197504E-005  0.1058686E+03  0.7546771E-02  0.1273276E+00
          1   -1    0    0  502    0 -0.00000000000E+00  0.00000000000E+00  0.25407917137E+03  0.25407917137E+03  0.00000000000E+00 0. -1.
         21   -1    0    0  501  502  0.00000000000E+00 -0.00000000000E+00 -0.91463107442E+02  0.91463107442E+02  0.00000000000E+00 0.  1.
         23    2    1    2    0    0  0.63467353642E+01 -0.45096700155E+02  0.27757405484E+02  0.10594427837E+03  0.91540827752E+02 0.  0.
        -24    2    1    2    0    0  0.10264328171E+02  0.63761520091E+02  0.68475046993E+00  0.10311745049E+03  0.80385644457E+02 0.  0.
         13    1    4    4    0    0  0.10484439729E+02  0.21821904446E+02 -0.38657501119E+02  0.45612732684E+02  0.00000000000E+00 0. -1.
        -14    1    4    4    0    0 -0.22011155898E+00  0.41939615645E+02  0.39342251589E+02  0.57504717803E+02  0.00000000000E+00 0.  1.
        -11    1    3    3    0    0 -0.24922860024E+02  0.14866589511E+02 -0.70807472064E+01  0.29871414705E+02  0.00000000000E+00 0. -1.
         11    1    3    3    0    0  0.31269595388E+02 -0.59963289667E+02  0.34838152690E+02  0.76072863666E+02  0.00000000000E+00 0.  1.
          2    1    1    2  501    0 -0.16611063535E+02 -0.18664819935E+02  0.13417390797E+03  0.13648054995E+03  0.00000000000E+00 0. -1.
<scales pt_clust_5="13000.00000" pt_clust_6="13000.00000" pt_clust_7="13000.00000" pt_clust_8="13000.00000" pt_clust_9="24.98607"></scales>
<clustering>
<clus scale="   24.986">  2  9  1 -1</clus>
<clus scale="   80.386">  5  6 -1 -1</clus>
<clus scale="   91.541">  7  8 -1 -1</clus>
<clus scale="   96.386">  2  5  1 -1</clus>
<clus scale="   24.986">  2  5  1 -1</clus>
</clustering>
</event>
<event>
 9    1  0.3197504E-005  0.1950491E+03  0.7546771E-02  0.1176119E+00
         21   -1    0    0  501  502  0.00000000000E+00  0.00000000000E+00  0.60390874378E+03  0.60390874378E+03  0.00000000000E+00 0.  1.
         -2   -1    0    0    0  501 -0.00000000000E+00 -0.00000000000E+00 -0.13478390713E+03  0.13478390713E+03  0.00000000000E+00 0.  1.
        -24    2    1    2    0    0  0.83374646644E+02 -0.82066212195E+01 -0.22657603932E+02  0.11921251561E+03  0.81728676288E+02 0.  0.
         23    2    1    2    0    0 -0.75115284122E+01  0.17253949160E+03  0.25909117709E+03  0.32468235868E+03  0.92000525933E+02 0.  0.
         13    1    3    3    0    0  0.12214267090E+02 -0.16603383894E+02  0.25567514069E+02  0.32841413687E+02  0.00000000000E+00 0. -1.
        -14    1    3    3    0    0  0.71160379553E+02  0.83967626745E+01 -0.48225118001E+02  0.86371101925E+02  0.00000000000E+00 0.  1.
        -11    1    4    4    0    0  0.28551388287E+02  0.10124768820E+03  0.19762720633E+03  0.22388119354E+03  0.00000000000E+00 0.  1.
         11    1    4    4    0    0 -0.36062916699E+02  0.71291803391E+02  0.61463970765E+02  0.10080116514E+03  0.00000000000E+00 0. -1.
         -1    1    1    2    0  502 -0.75863118231E+02 -0.16433287038E+03  0.23269126349E+03  0.29479777661E+03  0.00000000000E+00 0.  1.
<scales pt_clust_5="13000.00000" pt_clust_6="13000.00000" pt_clust_7="13000.00000" pt_clust_8="13000.00000" pt_clust_9="171.98867"></scales>
<clustering>
<clus scale="   81.729">  5  6 -1 -1</clus>
<clus scale="   92.001">  7  8 -1 -1</clus>
<clus scale="  117.040">  2  5  1 -1</clus>
<clus scale="  171.989">  1  9  2 -1</clus>
<clus scale="  171.989">  1  5  2 -1</clus>
</clustering>
</event>
<event>
 9    1  0.3197504E-005  0.9468464E+02  0.7546771E-02  0.1316874E+00
          1   -1    0    0  502    0 -0.00000000000E+00  0.00000000000E+00  0.19361026016E+03  0.19361026016E+03  0.00000000000E+00 0. -1.
         21   -1    0    0  501  502  0.00000000000E+00 -0.00000000000E+00 -0.28043701080E+03  0.28043701080E+03  0.00000000000E+00 0. -1.
        -24    2    1    2    0    0  0.20775489343E+00 -0.13592030632E+02  0.15402496139E+03  0.16531856043E+03  0.58495736894E+02 0.  0.
         23    2    1    2    0    0 -0.53000660088E+02 -0.41733290621E+01 -0.68815716956E+02  0.12789983438E+03  0.93788475252E+02 0.  0.
         11    1    3    3    0    0  0.27811084974E+02 -0.11230372365E+02  0.10274754996E+03  0.10703567973E+03  0.00000000000E+00 0. -1.
        -12    1    3    3    0    0 -0.27603330080E+02 -0.23616582672E+01  0.51277411424E+02  0.58282880708E+02  0.00000000000E+00 0.  1.
        -13    1    4    4    0    0 -0.23434874502E+02 -0.48774757037E+02 -0.38348252234E+02  0.66323138619E+02  0.00000000000E+00 0. -1.
         13    1    4    4    0    0 -0.29565785586E+02  0.44601427975E+02 -0.30467464722E+02  0.61576695765E+02  0.00000000000E+00 0.  1.
          2    1    1    2  501    0  0.52792905195E+02  0.17765359694E+02 -0.17203599507E+03  0.18082887614E+03  0.00000000000E+00 0. -1.
<scales pt_clust_5="13000.00000" pt_clust_6="13000.00000" pt_clust_7="13000.00000" pt_clust_8="13000.00000" pt_clust_9="55.70187"></scales>
<clustering>
<clus scale="   55.702">  2  9  1 -1</clus>
<clus scale="   58.496">  5  6 -1 -1</clus>
<clus scale="   59.922">  1  5  2 -1</clus>
<clus scale="   93.788">  7  8 -1 -1</clus>
<clus scale="   55.702">  2  5  1 -1</clus>
</clustering>
</event>
<event>
 9    1  0.3197504E-005  0.1233115E+03  0.7546771E-02  0.1241143E+00
         21   -1    0    0  501  502  0.00000000000E+00  0.00000000000E+00  0.10834118968E+03  0.10834118968E+03  0.00000000000E+00 0. -1.
         -2   -1    0    0    0  501 -0.00000000000E+00 -0.00000000000E+00 -0.26428404790E+03  0.26428404790E+03  0.00000000000E+00 0.  1.
        -24    2    1    2    0    0  0.58375788497E+02 -0.66361084713E+02 -0.10741087743E+03  0.16029823871E+03  0.79667449425E+02 0.  0.
         23    2    1    2    0    0 -0.13717537809E+02  0.82581137046E+02 -0.86909544605E+02  0.15125092453E+03  0.91190779074E+02 0.  0.
         11    1    3    3    0    0  0.52043500371E+02 -0.48614355035E+02 -0.11863233927E+03  0.13836731322E+03  0.00000000000E+00 0. -1.
        -12    1    3    3    0    0  0.63322881254E+01 -0.17746729678E+02  0.11221461843E+02  0.21930925495E+02  0.00000000000E+00 0.  1.
        -13    1    4    4    0    0  0.13273986151E+02  0.24776830133E+02 -0.82666227011E+02  0.87314346519E+02  0.00000000000E+00 0.  1.
         13    1    4    4    0    0 -0.26991523961E+02  0.57804306913E+02 -0.42433175938E+01  0.63936578010E+02  0.00000000000E+00 0. -1.
         -1    1    1    2    0  502 -0.44658250687E+02 -0.16220052333E+02  0.38377563814E+02  0.61076074337E+02  0.00000000000E+00 0.  1.
<scales pt_clust_5="13000.00000" pt_clust_6="13000.00000" pt_clust_7="13000.00000" pt_clust_8="13000.00000" pt_clust_9="47.51262"></scales>
<clustering>
<clus scale="   47.513">  1  9  2 -1</clus>
<clus scale="   79.667">  5  6 -1 -1</clus>
<clus scale="   91.191">  7  8 -1 -1</clus>
<clus scale="  115.052">  2  5  1 -1</clus>
<clus scale="   47.513">  1  5  2 -1</clus>
</clustering>
</event>
<event>
 9    1  0.3197504E-005  0.1170945E+03  0.7546771E-02  0.1251979E+00
         21   -1    0    0  501  502  0.00000000000E+00  0.00000000000E+00  0.10764993294E+03  0.10764993294E+03  0.00000000000E+00 0. -1.
          1   -1    0    0  502    0 -0.00000000000E+00 -0.00000000000E+00 -0.39493703233E+03  0.39493703233E+03  0.00000000000E+00 0. -1.
        -24    2    1    2    0    0 -0.79360309138E+02  0.18285082408E+02 -0.30999284954E+03  0.33078022151E+03  0.81777657529E+02 0.  0.
         23    2    1    2    0    0  0.55444874244E+01 -0.22071671283E+02  0.17753407352E+02  0.97728140308E+02  0.93368655990E+02 0.  0.
         11    1    3    3    0    0 -0.79701797257E+02  0.22547734158E+01 -0.30295134376E+03  0.31326821922E+03  0.00000000000E+00 0. -1.
        -12    1    3    3    0    0  0.34148811895E+00  0.16030308992E+02 -0.70415057844E+01  0.17512002291E+02  0.00000000000E+00 0.  1.
        -13    1    4    4    0    0  0.22568865425E+02 -0.32848467413E+02 -0.27344987151E+02  0.48333464807E+02  0.00000000000E+00 0.  1.
         13    1    4    4    0    0 -0.17024378001E+02  0.10776796130E+02  0.45098394503E+02  0.49394675501E+02  0.00000000000E+00 0. -1.
          2    1    1    2  501    0  0.73815821714E+02  0.37865888751E+01  0.49523428060E+01  0.74078603455E+02  0.00000000000E+00 0. -1.
<scales pt_clust_5="13000.00000" pt_clust_6="13000.00000" pt_clust_7="13000.00000" pt_clust_8="13000.00000" pt_clust_9="73.91288"></scales>
<clustering>
<clus scale="   73.913">  1  9  2 -1</clus>
<clus scale="   81.778">  5  6 -1 -1</clus>
<clus scale="   93.369">  7  8 -1 -1</clus>
<clus scale="  108.079">  2  5  1 -1</clus>
<clus scale="   73.913">  1  5  2 -1</clus>
</clustering>
</event>
<event>
 9    1  0.3197504E-005  0.1009401E+03  0.7546771E-02  0.1284574E+00
          1   -1    0    0  502    0 -0.00000000000E+00  0.00000000000E+00  0.32434911373E+03  0.32434911373E+03  0.00000000000E+00 0. -1.
         21   -1    0    0  501  502  0.00000000000E+00 -0.00000000000E+00 -0.60891648281E+02  0.60891648281E+02  0.00000000000E+00 0. -1.
        -24    2    1    2    0    0 -0.24791611236E+02  0.17242755931E+02  0.10294479939E+03  0.13404819589E+03  0.80370084471E+02 0.  0.
         23    2    1    2    0    0  0.63629587314E+02 -0.21574527582E+02  0.35075166277E+02  0.11980870493E+03  0.92788328287E+02 0.  0.
         11    1    3    3    0    0 -0.29450422005E+02  0.47056280069E+02  0.70642969023E+02  0.89844587609E+02  0.00000000000E+00 0. -1.
        -12    1    3    3    0    0  0.46588107688E+01 -0.29813524138E+02  0.32301830372E+02  0.44203608276E+02  0.00000000000E+00 0.  1.
        -13    1    4    4    0    0  0.84110285438E+02  0.84592193589E+00  0.23805906156E+02  0.87418401200E+02  0.00000000000E+00 0. -1.
         13    1    4    4    0    0 -0.20480698124E+02 -0.22420449518E+02  0.11269260121E+02  0.32390303733E+02  0.00000000000E+00 0.  1.
          2    1    1    2  501    0 -0.38837976078E+02  0.43317716507E+01  0.12543749978E+03  0.13138386119E+03  0.00000000000E+00 0. -1.
<scales pt_clust_5="13000.00000" pt_clust_6="13000.00000" pt_clust_7="13000.00000" pt_clust_8="13000.00000" pt_clust_9="39.07882"></scales>
<clustering>
<clus scale="   39.079">  2  9  1 -1</clus>
<clus scale="   80.370">  5  6 -1 -1</clus>
<clus scale="   89.658">  1  5  2 -1</clus>
<clus scale="   92.788">  7  8 -1 -1</clus>
<clus scale="   39.079">  2  5  1 -1</clus>
</clustering>
</event>
<event>
 9    1  0.3197504E-005  0.1519721E+03  0.7546771E-02  0.1199864E+00
         21   -1    0    0  501  502  0.00000000000E+00  0.00000000000E+00  0.39980169589E+02  0.39980169589E+02  0.00000000000E+00 0.  1.
          1   -1    0    0  502    0 -0.00000000000E+00 -0.00000000000E+00 -0.66237897089E+03  0.66237897089E+03  0.00000000000E+00 0. -1.
        -24    2    1    2    0    0  0.33827573065E+02 -0.12660498136E+03 -0.31952090181E+03  0.35501681090E+03  0.82281245268E+02 0.  0.
         23    2    1    2    0    0 -0.26956307060E+02  0.10547318066E+03 -0.22555410870E+03  0.26688901442E+03  0.92216352885E+02 0.  0.
         11    1    3    3    0    0  0.45330099226E+02 -0.12212108727E+03 -0.31657085737E+03  0.34232365619E+03  0.00000000000E+00 0. -1.
        -12    1    3    3    0    0 -0.11502526161E+02 -0.44838940840E+01 -0.29500444426E+01  0.12693154709E+02  0.00000000000E+00 0.  1.
        -11    1    4    4    0    0 -0.33419595445E+02  0.35941290525E+02 -0.17206026093E+03  0.17892283005E+03  0.00000000000E+00 0. -1.
         11    1    4    4    0    0  0.64632883848E+01  0.69531890138E+02 -0.53493847769E+02  0.87966184366E+02  0.00000000000E+00 0.  1.
          2    1    1    2  501    0 -0.68712660049E+01  0.21131800696E+02 -0.77323790794E+02  0.80453315158E+02  0.00000000000E+00 0. -1.
<scales pt_clust_5="13000.00000" pt_clust_6="13000.00000" pt_clust_7="13000.00000" pt_clust_8="13000.00000" pt_clust_9="22.22089"></scales>
<clustering>
<clus scale="   22.221">  1  9  2 -1</clus>
<clus scale="   82.281">  5  6 -1 -1</clus>
<clus scale="   92.216">  7  8 -1 -1</clus>
<clus scale="  146.157">  2  5  1 -1</clus>
<clus scale="   22.221">  1  5  2 -1</clus>
</clustering>
</event>
<event>
 9    1  0.3707621E-005  0.1262293E+03  0.7546771E-02  0.1247090E+00
         21   -1    0    0  501  502  0.00000000000E+00  0.00000000000E+00  0.19589286855E+03  0.19589286855E+03  0.00000000000E+00 0. -1.
          1   -1    0    0  502    0 -0.00000000000E+00 -0.00000000000E+00 -0.49122714862E+03  0.49122714862E+03  0.00000000000E+00 0. -1.
        -24    2    1    2    0    0  0.17873378666E+02 -0.47952665424E+02 -0.41016089881E+03  0.42104661969E+03  0.80183397657E+02 0.  0.
         23    2    1    2    0    0 -0.64688266301E+02  0.28617289723E+02 -0.55711196206E+01  0.13545522929E+03  0.11538440405E+03 0.  0.
         13    1    3    3    0    0  0.27994848359E+02 -0.62200357931E+02 -0.38093639735E+03  0.38699500629E+03  0.00000000000E+00 0. -1.
        -14    1    3    3    0    0 -0.10121469693E+02  0.14247692507E+02 -0.29224501453E+02  0.34051613409E+02  0.00000000000E+00 0.  1.
        -13    1    4    4    0    0  0.11764281063E+02  0.42566744941E+02  0.26365665165E+02  0.51434175247E+02  0.00000000000E+00 0.  1.
         13    1    4    4    0    0 -0.76452547365E+02 -0.13949455217E+02 -0.31936784785E+02  0.84021054039E+02  0.00000000000E+00 0. -1.
          2    1    1    2  501    0  0.46814887635E+02  0.19335375701E+02  0.12039773836E+03  0.13061816818E+03  0.00000000000E+00 0. -1.
<scales pt_clust_5="13000.00000" pt_clust_6="13000.00000" pt_clust_7="13000.00000" pt_clust_8="13000.00000" pt_clust_9="50.65067"></scales>
<clustering>
<clus scale="   50.651">  1  9  2 -1</clus>
<clus scale="   80.183">  5  6 -1 -1</clus>
<clus scale="   95.130">  2  5  1 -1</clus>
<clus scale="  115.384">  7  8 -1 -1</clus>
<clus scale="   50.651">  1  5  2 -1</clus>
</clustering>
</event>
<event>
 9    1  0.3197504E-005  0.1170382E+03  0.7546771E-02  0.1251449E+00
         21   -1    0    0  501  502  0.00000000000E+00  0.00000000000E+00  0.32059422472E+03  0.32059422472E+03  0.00000000000E+00 0.  1.
          1   -1    0    0  502    0 -0.00000000000E+00 -0.00000000000E+00 -0.72778177259E+02  0.72778177259E+02  0.00000000000E+00 0. -1.
         23    2    1    2    0    0 -0.61607009232E-01  0.83896659157E+02  0.51511150376E+02  0.13402764166E+03  0.90947000518E+02 0.  0.
        -24    2    1    2    0    0  0.80387635763E+01 -0.50004460920E+02  0.20261846609E+03  0.22395864325E+03  0.80858909537E+02 0.  0.
         11    1    4    4    0    0 -0.64010555706E+01 -0.67563671854E+02  0.11588317379E+03  0.13429345939E+03  0.00000000000E+00 0. -1.
        -12    1    4    4    0    0  0.14439819147E+02  0.17559210933E+02  0.86735292304E+02  0.89665183860E+02  0.00000000000E+00 0.  1.
        -13    1    3    3    0    0 -0.43529724005E+01  0.51912947773E+02 -0.19818724095E+02  0.55737638450E+02  0.00000000000E+00 0. -1.
         13    1    3    3    0    0  0.42913653912E+01  0.31983711383E+02  0.71329874472E+02  0.78290003212E+02  0.00000000000E+00 0.  1.
          2    1    1    2  501    0 -0.79771565671E+01 -0.33892198236E+02 -0.63135690018E+01  0.35386117076E+02  0.00000000000E+00 0. -1.
<scales pt_clust_5="13000.00000" pt_clust_6="13000.00000" pt_clust_7="13000.00000" pt_clust_8="13000.00000" pt_clust_9="34.81835"></scales>
<clustering>
<clus scale="   34.818">  1  9  2 -1</clus>
<clus scale="   80.859">  5  6 -1 -1</clus>
<clus scale="   90.947">  7  8 -1 -1</clus>
<clus scale="  109.383">  1  5  2 -1</clus>
<clus scale="   34.818">  1  5  2 -1</clus>
</clustering>
</event>
<event>
 9    1  0.3197504E-005  0.1165609E+03  0.7546771E-02  0.1253081E+00
         21   -1    0    0  501  502  0.00000000000E+00  0.00000000000E+00  0.28195564018E+03  0.28195564018E+03  0.00000000000E+00 0.  1.
          1   -1    0    0  502    0 -0.00000000000E+00 -0.00000000000E+00 -0.10708312826E+03  0.10708312826E+03  0.00000000000E+00 0. -1.
         23    2    1    2    0    0 -0.41671185277E+02 -0.12145631983E+02  0.36753704785E+02  0.10874287106E+03  0.92683186895E+02 0.  0.
        -24    2    1    2    0    0  0.12318277815E+03 -0.32666563267E+02  0.89391755293E+02  0.17528828719E+03  0.80585336901E+02 0.  0.
         11    1    4    4    0    0  0.28618613867E+02 -0.46484658221E+02  0.40271548284E+02  0.67835434035E+02  0.00000000000E+00 0. -1.
        -12    1    4    4    0    0  0.94564164281E+02  0.13818094954E+02  0.49120207009E+02  0.10745285315E+03  0.00000000000E+00 0.  1.
        -13    1    3    3    0    0 -0.66284795407E+02 -0.29129882220E+02  0.27307267181E+02  0.77381593297E+02  0.00000000000E+00 0.  1.
         13    1    3    3    0    0  0.24613610130E+02  0.16984250237E+02  0.94464376043E+01  0.31361277767E+02  0.00000000000E+00 0. -1.
          2    1    1    2  501    0 -0.81511592870E+02  0.44812195250E+02  0.48727051844E+02  0.10500761018E+03  0.00000000000E+00 0. -1.
<scales pt_clust_5="13000.00000" pt_clust_6="13000.00000" pt_clust_7="13000.00000" pt_clust_8="13000.00000" pt_clust_9="93.01759"></scales>
<clustering>
<clus scale="   80.585">  5  6 -1 -1</clus>
<clus scale="   92.683">  7  8 -1 -1</clus>
<clus scale="   93.018">  1  9  2 -1</clus>
<clus scale="  107.193">  1  5  2 -1</clus>
<clus scale="   93.018">  1  5  2 -1</clus>
</clustering>
</event>
<event>
 9    1  0.3197504E-005  0.2623253E+03  0.7546771E-02  0.1106363E+00
          1   -1    0    0  502    0 -0.00000000000E+00  0.00000000000E+00  0.23663252063E+04  0.23663252063E+04  0.00000000000E+00 0. -1.
         21   -1    0    0  501  502  0.00000000000E+00 -0.00000000000E+00 -0.63347683004E+02  0.63347683004E+02  0.00000000000E+00 0. -1.
        -24    2    1    2    0    0 -0.25139202911E+03  0.27355533240E+02  0.59405722891E+03  0.65043791789E+03  0.78862008007E+02 0.  0.
         23    2    1    2    0    0  0.22980553175E+03  0.13022311309E+03  0.63741159480E+03  0.69598620038E+03  0.91294076125E+02 0.  0.
         13    1    3    3    0    0 -0.17888980327E+03  0.23063484209E+02  0.32441382802E+03  0.37118434480E+03  0.00000000000E+00 0. -1.
        -14    1    3    3    0    0 -0.72502225849E+02  0.42920490305E+01  0.26964340089E+03  0.27925357309E+03  0.00000000000E+00 0.  1.
        -11    1    4    4    0    0  0.17310395875E+03  0.12285559897E+03  0.56605729772E+03  0.60454887564E+03  0.00000000000E+00 0. -1.
         11    1    4    4    0    0  0.56701573003E+02  0.73675141211E+01  0.71354297080E+02  0.91437324748E+02  0.00000000000E+00 0.  1.
          2    1    1    2  501    0  0.21586497366E+02 -0.15757864633E+03  0.10715086996E+04  0.10832487711E+04  0.00000000000E+00 0. -1.
<scales pt_clust_5="13000.00000" pt_clust_6="13000.00000" pt_clust_7="13000.00000" pt_clust_8="13000.00000" pt_clust_9="159.05041"></scales>
<clustering>
<clus scale="   78.862">  5  6 -1 -1</clus>
<clus scale="   91.294">  7  8 -1 -1</clus>
<clus scale="  159.050">  2  9  1 -1</clus>
<clus scale="  258.262">  1  5  2 -1</clus>
<clus scale="  159.050">  2  5  1 -1</clus>
</clustering>
</event>
<event>
 9    1  0.3197504E-005  0.1119924E+03  0.7546771E-02  0.1260879E+00
         21   -1    0    0  501  502  0.00000000000E+00  0.00000000000E+00  0.66080733594E+02  0.66080733594E+02  0.00000000000E+00 0. -1.
          1   -1    0    0  502    0 -0.00000000000E+00 -0.00000000000E+00 -0.56766677241E+03  0.56766677241E+03  0.00000000000E+00 0. -1.
        -24    2    1    2    0    0 -0.64194048248E+02  0.31433974423E+02 -0.45138233721E+03  0.46409278923E+03  0.80790668356E+02 0.  0.
         23    2    1    2    0    0  0.18334457448E+02  0.18783860248E+01  0.11786764384E+01  0.93150048937E+02  0.91300940164E+02 0.  0.
         13    1    3    3    0    0 -0.52108357120E+02  0.47961369935E+02 -0.42415075225E+03  0.43002259769E+03  0.00000000000E+00 0. -1.
        -14    1    3    3    0    0 -0.12085691128E+02 -0.16527395512E+02 -0.27231584963E+02  0.34070191547E+02  0.00000000000E+00 0.  1.
        -13    1    4    4    0    0  0.12538284399E+00 -0.27216654547E+02 -0.34299581812E+02  0.43786108734E+02  0.00000000000E+00 0.  1.
         13    1    4    4    0    0  0.18209074604E+02  0.29095040572E+02  0.35478258251E+02  0.49363940202E+02  0.00000000000E+00 0. -1.
          2    1    1    2  501    0  0.45859590801E+02 -0.33312360448E+02 -0.51382378042E+02  0.76504667833E+02  0.00000000000E+00 0. -1.
<scales pt_clust_5="13000.00000" pt_clust_6="13000.00000" pt_clust_7="13000.00000" pt_clust_8="13000.00000" pt_clust_9="56.68170"></scales>
<clustering>
<clus scale="   56.682">  1  9  2 -1</clus>
<clus scale="   80.791">  5  6 -1 -1</clus>
<clus scale="   91.301">  7  8 -1 -1</clus>
<clus scale="  103.603">  2  5  1 -1</clus>
<clus scale="   56.682">  1  5  2 -1</clus>
</clustering>
</event>
<event>
 9    1  0.3197504E-005  0.2508612E+03  0.7546771E-02  0.1112762E+00
         21   -1    0    0  501  502  0.00000000000E+00  0.00000000000E+00  0.20217110023E+03  0.20217110023E+03  0.00000000000E+00 0. -1.
          1   -1    0    0  502    0 -0.00000000000E+00 -0.00000000000E+00 -0.10999379614E+04  0.10999379614E+04  0.00000000000E+00 0. -1.
        -24    2    1    2    0    0 -0.56128432499E+01 -0.59947682704E+02 -0.43143205073E+03  0.44293121137E+03  0.80182385490E+02 0.  0.
         23    2    1    2    0    0 -0.26861055583E+02 -0.11657654432E+03 -0.61061762839E+03  0.62888914372E+03  0.91302026283E+02 0.  0.
         11    1    3    3    0    0 -0.38071387785E+02 -0.55797738747E+02 -0.29001433656E+03  0.29777698640E+03  0.00000000000E+00 0. -1.
        -12    1    3    3    0    0  0.32458544535E+02 -0.41499439565E+01 -0.14141771417E+03  0.14515422498E+03  0.00000000000E+00 0.  1.
        -11    1    4    4    0    0 -0.30239485044E+02 -0.94030510773E+02 -0.58980993116E+03  0.59802334261E+03  0.00000000000E+00 0.  1.
         11    1    4    4    0    0  0.33784294618E+01 -0.22546033550E+02 -0.20807697227E+02  0.30865801113E+02  0.00000000000E+00 0. -1.
          2    1    1    2  501    0  0.32473898833E+02  0.17652422703E+03  0.14428281790E+03  0.23028870657E+03  0.00000000000E+00 0. -1.
<scales pt_clust_5="13000.00000" pt_clust_6="13000.00000" pt_clust_7="13000.00000" pt_clust_8="13000.00000" pt_clust_9="179.48637"></scales>
<clustering>
<clus scale="   80.182">  5  6 -1 -1</clus>
<clus scale="   91.302">  7  8 -1 -1</clus>
<clus scale="   93.679">  5  7 -1 -1</clus>
<clus scale="  179.486">  1  9  2 -1</clus>
<clus scale="  179.486">  1  5  2 -1</clus>
</clustering>
</event>
<event>
 9    1  0.3197504E-005  0.1896090E+03  0.7546771E-02  0.1159960E+00
         21   -1    0    0  501  502  0.00000000000E+00  0.00000000000E+00  0.16550069782E+04  0.16550069782E+04  0.00000000000E+00 0. -1.
          1   -1    0    0  502    0 -0.00000000000E+00 -0.00000000000E+00 -0.26673027537E+02  0.26673027537E+02  0.00000000000E+00 0. -1.
        -24    2    1    2    0    0 -0.15746058854E+03 -0.60922935283E+02  0.71048478707E+03  0.73469735247E+03  0.80536489183E+02 0.  0.
         23    2    1    2    0    0  0.16516514076E+03  0.18190941049E+02  0.74211998741E+03  0.76596849133E+03  0.91406892222E+02 0.  0.
         13    1    3    3    0    0 -0.39151560465E+02  0.48160190712E+01  0.72727784165E+02  0.82736747072E+02  0.00000000000E+00 0. -1.
        -14    1    3    3    0    0 -0.11830902807E+03 -0.65738954354E+02  0.63775700290E+03  0.65196060540E+03  0.00000000000E+00 0.  1.
        -13    1    4    4    0    0  0.37001300863E+02 -0.18384883313E+02  0.74645369284E+02  0.85317239498E+02  0.00000000000E+00 0.  1.
         13    1    4    4    0    0  0.12816383990E+03  0.36575824362E+02  0.66747461812E+03  0.68065125183E+03  0.00000000000E+00 0. -1.
          2    1    1    2  501    0 -0.77045522246E+01  0.42731994234E+02  0.17572917622E+03  0.18101416196E+03  0.00000000000E+00 0. -1.
<scales pt_clust_5="13000.00000" pt_clust_6="13000.00000" pt_clust_7="13000.00000" pt_clust_8="13000.00000" pt_clust_9="43.42100"></scales>
<clustering>
<clus scale="   43.421">  1  9  2 -1</clus>
<clus scale="   80.536">  5  6 -1 -1</clus>
<clus scale="   91.407">  7  8 -1 -1</clus>
<clus scale="  184.614">  2  5  1 -1</clus>
<clus scale="   43.421">  1  5  2 -1</clus>
</clustering>
</event>
<event>
 9    1  0.3197504E-005  0.2356030E+03  0.7546771E-02  0.1126403E+00
         -2   -1    0    0    0  501 -0.00000000000E+00  0.00000000000E+00  0.44123581133E+03  0.44123581133E+03  0.00000000000E+00 0.  1.
         21   -1    0    0  501  502  0.00000000000E+00 -0.00000000000E+00 -0.17397351288E+03  0.17397351288E+03  0.00000000000E+00 0. -1.
         23    2    1    2    0    0 -0.27945108646E+02 -0.18883167373E+03  0.21775065148E+03  0.31562169148E+03  0.12555228318E+03 0.  0.
        -24    2    1    2    0    0  0.49972777935E+02  0.21493268185E+03 -0.51173795802E+01  0.23516084187E+03  0.81123965093E+02 0.  0.
         11    1    4    4    0    0  0.53696838586E+02  0.16396871913E+03  0.27245124671E+02  0.17467509309E+03  0.00000000000E+00 0. -1.
        -12    1    4    4    0    0 -0.37240606517E+01  0.50963962717E+02 -0.32362504251E+02  0.60485748776E+02  0.00000000000E+00 0.  1.
        -11    1    3    3    0    0 -0.47276674003E+02 -0.10473706299E+03  0.19507345517E+03  0.22640359799E+03  0.00000000000E+00 0. -1.
         11    1    3    3    0    0  0.19331565356E+02 -0.84094610738E+02  0.22677196310E+02  0.89218093495E+02  0.00000000000E+00 0.  1.
         -1    1    1    2    0  502 -0.22027669288E+02 -0.26101008119E+02  0.54629026554E+02  0.64426790867E+02  0.00000000000E+00 0.  1.
<scales pt_clust_5="13000.00000" pt_clust_6="13000.00000" pt_clust_7="13000.00000" pt_clust_8="13000.00000" pt_clust_9="34.15380"></scales>
<clustering>
<clus scale="   34.154">  2  9  1 -1</clus>
<clus scale="   81.124">  5  6 -1 -1</clus>
<clus scale="  125.552">  7  8 -1 -1</clus>
<clus scale="  215.236">  2  5  1 -1</clus>
<clus scale="   34.154">  2  5  1 -1</clus>
</clustering>
</event>
<event>
 9    1  0.3197504E-005  0.1148559E+03  0.7546771E-02  0.1255601E+00
          1   -1    0    0  502    0 -0.00000000000E+00  0.00000000000E+00  0.61615335007E+02  0.61615335007E+02  0.00000000000E+00 0. -1.
         21   -1    0    0  501  502  0.00000000000E+00 -0.00000000000E+00 -0.29722005387E+03  0.29722005387E+03  0.00000000000E+00 0. -1.
         23    2    1    2    0    0 -0.46348091471E+02  0.47342147459E+02 -0.69730317531E+02  0.13253830686E+03  0.91184763488E+02 0.  0.
        -24    2    1    2    0    0  0.71888149905E+02 -0.28332258233E+02 -0.87825181652E+02  0.14200383694E+03  0.80505926617E+02 0.  0.
         13    1    4    4    0    0  0.83026375920E+02 -0.42726321881E+02 -0.72711586751E+02  0.11834649352E+03  0.00000000000E+00 0. -1.
        -14    1    4    4    0    0 -0.11138226015E+02  0.14394063648E+02 -0.15113594901E+02  0.23657343424E+02  0.00000000000E+00 0.  1.
        -11    1    3    3    0    0 -0.38400598054E+02 -0.13863490200E+02 -0.19574269763E+01  0.40873387574E+02  0.00000000000E+00 0.  1.
         11    1    3    3    0    0 -0.79474934171E+01  0.61205637659E+02 -0.67772890555E+02  0.91664919282E+02  0.00000000000E+00 0. -1.
          2    1    1    2  501    0 -0.25540058434E+02 -0.19009889227E+02 -0.78049219684E+02  0.84293245082E+02  0.00000000000E+00 0. -1.
<scales pt_clust_5="13000.00000" pt_clust_6="13000.00000" pt_clust_7="13000.00000" pt_clust_8="13000.00000" pt_clust_9="31.83819"></scales>
<clustering>
<clus scale="   31.838">  2  9  1 -1</clus>
<clus scale="   80.506">  5  6 -1 -1</clus>
<clus scale="   91.185">  7  8 -1 -1</clus>
<clus scale="  106.576">  2  5  1 -1</clus>
<clus scale="   31.838">  2  5  1 -1</clus>
</clustering>
</event>
<event>
 9    1  0.3197504E-005  0.2447436E+03  0.7546771E-02  0.1117383E+00
          1   -1    0    0  502    0 -0.00000000000E+00  0.00000000000E+00  0.16352810316E+04  0.16352810316E+04  0.00000000000E+00 0. -1.
         21   -1    0    0  501  502  0.00000000000E+00 -0.00000000000E+00 -0.71682863861E+02  0.71682863861E+02  0.00000000000E+00 0. -1.
         23    2    1    2    0    0 -0.84396570875E+02 -0.22264047641E+03  0.10507070091E+04  0.10814059528E+04  0.93605837667E+02 0.  0.
        -24    2    1    2    0    0  0.89145278063E+02  0.18907496849E+03  0.53829503471E+03  0.58319580800E+03  0.81606260566E+02 0.  0.
         11    1    4    4    0    0  0.38541256342E+02  0.14821565994E+02  0.74669111132E+02  0.85326334834E+02  0.00000000000E+00 0. -1.
        -12    1    4    4    0    0  0.50604021720E+02  0.17425340250E+03  0.46362592358E+03  0.49786947316E+03  0.00000000000E+00 0.  1.
        -11    1    3    3    0    0 -0.48824888591E+02 -0.30434766703E+02  0.17763638266E+03  0.18672126075E+03  0.00000000000E+00 0. -1.
         11    1    3    3    0    0 -0.35571682285E+02 -0.19220570971E+03  0.87307062642E+03  0.89468469202E+03  0.00000000000E+00 0.  1.
          2    1    1    2  501    0 -0.47487071875E+01  0.33565507920E+02 -0.25403876016E+02  0.42362134726E+02  0.00000000000E+00 0. -1.
<scales pt_clust_5="13000.00000" pt_clust_6="13000.00000" pt_clust_7="13000.00000" pt_clust_8="13000.00000" pt_clust_9="33.89976"></scales>
<clustering>
<clus scale="   33.900">  2  9  1 -1</clus>
<clus scale="   81.606">  5  6 -1 -1</clus>
<clus scale="   93.606">  7  8 -1 -1</clus>
<clus scale="  240.410">  2  5  1 -1</clus>
<clus scale="   33.900">  2  5  1 -1</clus>
</clustering>
</event>
<event>
 9    1  0.3197504E-005  0.1020359E+03  0.7546771E-02  0.1281070E+00
          1   -1    0    0  502    0 -0.00000000000E+00  0.00000000000E+00  0.19308814015E+03  0.19308814015E+03  0.00000000000E+00 0. -1.
         21   -1    0    0  501  502  0.00000000000E+00 -0.00000000000E+00 -0.93088969586E+02  0.93088969586E+02  0.00000000000E+00 0. -1.
         23    2    1    2    0    0 -0.52481640830E+02  0.11161391140E+01  0.12795699422E+03  0.16534099016E+03  0.90603985943E+02 0.  0.
        -24    2    1    2    0    0  0.29459511965E+02 -0.20053349535E+02 -0.18098635832E+02  0.89438031409E+02  0.80010006690E+02 0.  0.
         11    1    4    4    0    0 -0.52757992869E+01 -0.41136176481E+02  0.64404493906E+01  0.41970209220E+02  0.00000000000E+00 0. -1.
        -12    1    4    4    0    0  0.34735311252E+02  0.21082826946E+02 -0.24539085223E+02  0.47467822189E+02  0.00000000000E+00 0.  1.
        -13    1    3    3    0    0 -0.78355526735E+02 -0.20424316973E+01  0.90779538080E+02  0.11993616899E+03  0.00000000000E+00 0.  1.
         13    1    3    3    0    0  0.25873885905E+02  0.31585708114E+01  0.37177456137E+02  0.45404821178E+02  0.00000000000E+00 0. -1.
          2    1    1    2  501    0  0.23022128865E+02  0.18937210421E+02 -0.98591878173E+01  0.31398088165E+02  0.00000000000E+00 0. -1.
<scales pt_clust_5="13000.00000" pt_clust_6="13000.00000" pt_clust_7="13000.00000" pt_clust_8="13000.00000" pt_clust_9="29.81000"></scales>
<clustering>
<clus scale="   29.810">  2  9  1 -1</clus>
<clus scale="   80.010">  5  6 -1 -1</clus>
<clus scale="   90.604">  7  8 -1 -1</clus>
<clus scale="   92.757">  2  5  1 -1</clus>
<clus scale="   29.810">  2  5  1 -1</clus>
</clustering>
</event>
<event>
 9    1  0.3197504E-005  0.1050538E+03  0.7546771E-02  0.1273944E+00
         21   -1    0    0  501  502  0.00000000000E+00  0.00000000000E+00  0.56432000028E+02  0.56432000028E+02  0.00000000000E+00 0.  1.
         -4   -1    0    0    0  501 -0.00000000000E+00 -0.00000000000E+00 -0.37103697236E+03  0.37103697236E+03  0.00000000000E+00 0.  1.
         23    2    1    2    0    0 -0.15896465112E+02 -0.66028949905E+02 -0.24319550888E+03  0.26784737945E+03  0.89362426723E+02 0.  0.
        -24    2    1    2    0    0  0.87964463290E+01  0.35305999579E+02 -0.87558322994E+02  0.12419426439E+03  0.80211372687E+02 0.  0.
         13    1    4    4    0    0  0.23219284596E+02  0.34845196899E+02 -0.97874783901E+02  0.10645560693E+03  0.00000000000E+00 0. -1.
        -14    1    4    4    0    0 -0.14422838267E+02  0.46080267978E+00  0.10316460907E+02  0.17738657459E+02  0.00000000000E+00 0.  1.
        -11    1    3    3    0    0  0.16265424559E+02 -0.76301004808E+02 -0.15816608044E+03  0.17636018931E+03  0.00000000000E+00 0.  1.
         11    1    3    3    0    0 -0.32161889672E+02  0.10272054903E+02 -0.85029428439E+02  0.91487190141E+02  0.00000000000E+00 0. -1.
         -3    1    1    2    0  502  0.71000187832E+01  0.30722950326E+02  0.16148859541E+02  0.35427328546E+02  0.00000000000E+00 0.  1.
<scales pt_clust_5="13000.00000" pt_clust_6="13000.00000" pt_clust_7="13000.00000" pt_clust_8="13000.00000" pt_clust_9="31.53268"></scales>
<clustering>
<clus scale="   31.533">  1  9  2 -1</clus>
<clus scale="   80.211">  5  6 -1 -1</clus>
<clus scale="   89.362">  7  8 -1 -1</clus>
<clus scale="   97.389">  1  5  2 -1</clus>
<clus scale="   31.533">  1  5  2 -1</clus>
</clustering>
</event>
<event>
 9    1  0.3197504E-005  0.1468314E+03  0.7546771E-02  0.1205744E+00
         21   -1    0    0  501  502  0.00000000000E+00  0.00000000000E+00  0.21605383222E+03  0.21605383222E+03  0.00000000000E+00 0.  1.
         -2   -1    0    0    0  501 -0.00000000000E+00 -0.00000000000E+00 -0.14262949914E+03  0.14262949914E+03  0.00000000000E+00 0.  1.
        -24    2    1    2    0    0  0.10506741740E+03  0.56153799589E+02 -0.30739398770E+02  0.14906546785E+03  0.84161699490E+02 0.  0.
         23    2    1    2    0    0 -0.10245953016E+03 -0.30943577750E+02  0.11549473322E+03  0.18185551576E+03  0.90977661458E+02 0.  0.
         13    1    3    3    0    0  0.96814412731E+02  0.15487695136E+02 -0.41076297019E+02  0.10630221724E+03  0.00000000000E+00 0. -1.
        -14    1    3    3    0    0  0.82530046692E+01  0.40666104453E+02  0.10336898248E+02  0.42763250611E+02  0.00000000000E+00 0.  1.
        -13    1    4    4    0    0 -0.34652924095E+02 -0.19819822183E+02  0.10501651113E+03  0.11234820030E+03  0.00000000000E+00 0.  1.
         13    1    4    4    0    0 -0.67806606067E+02 -0.11123755567E+02  0.10478222089E+02  0.69507315459E+02  0.00000000000E+00 0. -1.
         -1    1    1    2    0  502 -0.26078872385E+01 -0.25210221839E+02 -0.11331001370E+02  0.27762347759E+02  0.00000000000E+00 0.  1.
<scales pt_clust_5="13000.00000" pt_clust_6="13000.00000" pt_clust_7="13000.00000" pt_clust_8="13000.00000" pt_clust_9="25.34476"></scales>
<clustering>
<clus scale="   25.345">  1  9  2 -1</clus>
<clus scale="   84.162">  5  6 -1 -1</clus>
<clus scale="   90.978">  7  8 -1 -1</clus>
<clus scale="  142.708">  2  5  1 -1</clus>
<clus scale="   25.345">  1  5  2 -1</clus>
</clustering>
</event>
<event>
 9    1  0.3197504E-005  0.9110944E+02  0.7546771E-02  0.1313052E+00
         21   -1    0    0  501  502  0.00000000000E+00  0.00000000000E+00  0.10847131428E+03  0.10847131428E+03  0.00000000000E+00 0.  1.
         -2   -1    0    0    0  501 -0.00000000000E+00 -0.00000000000E+00 -0.10432309274E+03  0.10432309274E+03  0.00000000000E+00 0.  1.
        -24    2    1    2    0    0  0.17501449275E+01  0.30380410446E+00 -0.10233654997E+02  0.71310234975E+02  0.70549745664E+02 0.  0.
         23    2    1    2    0    0  0.16582756799E+02  0.36002607923E+02 -0.19776436842E+00  0.98277496989E+02  0.89929148241E+02 0.  0.
         13    1    3    3    0    0 -0.23810864450E+02  0.16886624875E+02 -0.24081353783E+02  0.37842132149E+02  0.00000000000E+00 0. -1.
        -14    1    3    3    0    0  0.25561009377E+02 -0.16582820771E+02  0.13847698786E+02  0.33468102826E+02  0.00000000000E+00 0.  1.
        -13    1    4    4    0    0  0.26270411393E+00 -0.27511287966E+02 -0.14586881605E+02  0.31140280891E+02  0.00000000000E+00 0. -1.
         13    1    4    4    0    0  0.16320052685E+02  0.63513895889E+02  0.14389117237E+02  0.67137216099E+02  0.00000000000E+00 0.  1.
         -1    1    1    2    0  502 -0.18332901727E+02 -0.36306412028E+02  0.14579640908E+02  0.43206675052E+02  0.00000000000E+00 0.  1.
<scales pt_clust_5="13000.00000" pt_clust_6="13000.00000" pt_clust_7="13000.00000" pt_clust_8="13000.00000" pt_clust_9="40.67248"></scales>
<clustering>
<clus scale="   40.672">  1  9  2 -1</clus>
<clus scale="   70.550">  5  6 -1 -1</clus>
<clus scale="   72.048">  2  5  1 -1</clus>
<clus scale="   89.929">  7  8 -1 -1</clus>
<clus scale="   40.672">  1  5  2 -1</clus>
</clustering>
</event>
<event>
 9    1  0.3197504E-005  0.1471592E+03  0.7546771E-02  0.1211985E+00
          1   -1    0    0  502    0 -0.00000000000E+00  0.00000000000E+00  0.45096673566E+03  0.45096673566E+03  0.00000000000E+00 0. -1.
         21   -1    0    0  501  502  0.00000000000E+00 -0.00000000000E+00 -0.77092248084E+02  0.77092248084E+02  0.00000000000E+00 0.  1.
        -24    2    1    2    0    0  0.92343166109E+02  0.46566523115E+01  0.28675242464E+03  0.31183254286E+03  0.80396747535E+02 0.  0.
         23    2    1    2    0    0 -0.10108656248E+03  0.14829626532E+02  0.10777578714E+03  0.18651552761E+03  0.11284507437E+03 0.  0.
         13    1    3    3    0    0  0.76007775266E+02  0.19641158909E+02  0.27646442328E+03  0.28739438819E+03  0.00000000000E+00 0. -1.
        -14    1    3    3    0    0  0.16335390843E+02 -0.14984506598E+02  0.10288001365E+02  0.24438154677E+02  0.00000000000E+00 0.  1.
        -11    1    4    4    0    0 -0.91389205784E+02 -0.26268241843E+02  0.10851480526E+03  0.14428260610E+03  0.00000000000E+00 0. -1.
         11    1    4    4    0    0 -0.96973566954E+01  0.41097868374E+02 -0.73901811580E+00  0.42232921514E+02  0.00000000000E+00 0.  1.
          2    1    1    2  501    0  0.87433963705E+01 -0.19486278843E+02 -0.20653724208E+02  0.29710913263E+02  0.00000000000E+00 0. -1.
<scales pt_clust_5="13000.00000" pt_clust_6="13000.00000" pt_clust_7="13000.00000" pt_clust_8="13000.00000" pt_clust_9="21.35795"></scales>
<clustering>
<clus scale="   21.358">  2  9  1 -1</clus>
<clus scale="   80.397">  5  6 -1 -1</clus>
<clus scale="  112.845">  7  8 -1 -1</clus>
<clus scale="  124.038">  1  5  2 -1</clus>
<clus scale="   21.358">  2  5  1 -1</clus>
</clustering>
</event>
<event>
 9    1  0.3197504E-005  0.1613972E+03  0.7546771E-02  0.1188952E+00
         21   -1    0    0  501  502  0.00000000000E+00  0.00000000000E+00  0.21070985395E+03  0.21070985395E+03  0.00000000000E+00 0.  1.
          1   -1    0    0  502    0 -0.00000000000E+00 -0.00000000000E+00 -0.37129238288E+03  0.37129238288E+03  0.00000000000E+00 0. -1.
         23    2    1    2    0    0  0.74728970267E+02 -0.12518000371E+03 -0.46568070819E+02  0.17794057879E+03  0.90773410400E+02 0.  0.
        -24    2    1    2    0    0 -0.12075510915E+03  0.44340077473E+02  0.92909793463E+02  0.17718912769E+03  0.78841095850E+02 0.  0.
         11    1    4    4    0    0 -0.27616734229E+02  0.45232950832E+02  0.55713222791E+02  0.76893868704E+02  0.00000000000E+00 0. -1.
        -12    1    4    4    0    0 -0.93138374921E+02 -0.89287335911E+00  0.37196570672E+02  0.10029525899E+03  0.00000000000E+00 0.  1.
        -13    1    3    3    0    0  0.83568664662E+02 -0.58617679594E+02 -0.42803893596E+02  0.11068842479E+03  0.00000000000E+00 0.  1.
         13    1    3    3    0    0 -0.88396943953E+01 -0.66562324114E+02 -0.37641772225E+01  0.67252154008E+02  0.00000000000E+00 0. -1.
          2    1    1    2  501    0  0.46026138883E+02  0.80839926235E+02 -0.20692425158E+03  0.22687253035E+03  0.00000000000E+00 0. -1.
<scales pt_clust_5="13000.00000" pt_clust_6="13000.00000" pt_clust_7="13000.00000" pt_clust_8="13000.00000" pt_clust_9="93.02423"></scales>
<clustering>
<clus scale="   78.841">  5  6 -1 -1</clus>
<clus scale="   90.773">  7  8 -1 -1</clus>
<clus scale="   93.024">  1  9  2 -1</clus>
<clus scale="  155.001">  1  5  2 -1</clus>
<clus scale="   93.024">  1  5  2 -1</clus>
</clustering>
</event>
<event>
 9    1  0.3197504E-005  0.1948308E+03  0.7546771E-02  0.1177424E+00
          1   -1    0    0  502    0 -0.00000000000E+00  0.00000000000E+00  0.35718993357E+03  0.35718993357E+03  0.00000000000E+00 0. -1.
         21   -1    0    0  501  502  0.00000000000E+00 -0.00000000000E+00 -0.26428915649E+03  0.26428915649E+03  0.00000000000E+00 0. -1.
        -24    2    1    2    0    0  0.63702994414E+01 -0.80454489915E+02 -0.68422713420E+02  0.13297453925E+03  0.80542254218E+02 0.  0.
         23    2    1    2    0    0  0.33250433406E+02 -0.10162090389E+03  0.24613169857E+03  0.28377623411E+03  0.92280759503E+02 0.  0.
         13    1    3    3    0    0 -0.21665182506E+02 -0.80878780783E+02 -0.39120171062E+02  0.92418315814E+02  0.00000000000E+00 0. -1.
        -14    1    3    3    0    0  0.28035481947E+02  0.42429086779E+00 -0.29302542358E+02  0.40556223436E+02  0.00000000000E+00 0.  1.
        -13    1    4    4    0    0  0.22758389003E+02 -0.20479544999E+01  0.60270216762E+01  0.23631829762E+02  0.00000000000E+00 0.  1.
         13    1    4    4    0    0  0.10492044404E+02 -0.99572949387E+02  0.24010467690E+03  0.26014440435E+03  0.00000000000E+00 0. -1.
          2    1    1    2  501    0 -0.39620732848E+02  0.18207539380E+03 -0.84808208081E+02  0.20472831670E+03  0.00000000000E+00 0. -1.
<scales pt_clust_5="13000.00000" pt_clust_6="13000.00000" pt_clust_7="13000.00000" pt_clust_8="13000.00000" pt_clust_9="171.59052"></scales>
<clustering>
<clus scale="   80.542">  5  6 -1 -1</clus>
<clus scale="   92.281">  7  8 -1 -1</clus>
<clus scale="  114.020">  1  5  2 -1</clus>
<clus scale="  171.591">  2  9  1 -1</clus>
<clus scale="  171.591">  2  5  1 -1</clus>
</clustering>
</event>
<event>
 9    1  0.3197504E-005  0.1006181E+03  0.7546771E-02  0.1284404E+00
         21   -1    0    0  501  502  0.00000000000E+00  0.00000000000E+00  0.74114845650E+02  0.74114845650E+02  0.00000000000E+00 0. -1.
         -2   -1    0    0    0  501 -0.00000000000E+00 -0.00000000000E+00 -0.25741617569E+03  0.25741617569E+03  0.00000000000E+00 0.  1.
        -24    2    1    2    0    0 -0.14297144491E+02  0.38610267355E+02 -0.10005604884E+03  0.13458843077E+03  0.80047933785E+02 0.  0.
         23    2    1    2    0    0  0.68251677184E+02 -0.11360188047E+02 -0.34899193880E+02  0.11954102353E+03  0.91020641958E+02 0.  0.
         13    1    3    3    0    0  0.26462251588E+02  0.26491316727E+02 -0.78368593263E+02  0.86854343766E+02  0.00000000000E+00 0. -1.
        -14    1    3    3    0    0 -0.40759396079E+02  0.12118950627E+02 -0.21687455573E+02  0.47734087006E+02  0.00000000000E+00 0.  1.
        -11    1    4    4    0    0  0.47783165139E+02 -0.15161086981E+02 -0.65529386034E+02  0.82505695944E+02  0.00000000000E+00 0.  1.
         11    1    4    4    0    0  0.20468512045E+02  0.38008989347E+01  0.30630192155E+02  0.37035327587E+02  0.00000000000E+00 0. -1.
         -1    1    1    2    0  502 -0.53954532693E+02 -0.27250079308E+02 -0.48346087327E+02  0.77401567040E+02  0.00000000000E+00 0.  1.
<scales pt_clust_5="13000.00000" pt_clust_6="13000.00000" pt_clust_7="13000.00000" pt_clust_8="13000.00000" pt_clust_9="60.44553"></scales>
<clustering>
<clus scale="   60.446">  1  9  2 -1</clus>
<clus scale="   80.048">  5  6 -1 -1</clus>
<clus scale="   90.813">  2  5  1 -1</clus>
<clus scale="   91.021">  7  8 -1 -1</clus>
<clus scale="   60.446">  1  5  2 -1</clus>
</clustering>
</event>
<event>
 9    1  0.3197504E-005  0.1177409E+03  0.7546771E-02  0.1248911E+00
         -2   -1    0    0    0  501 -0.00000000000E+00  0.00000000000E+00  0.15100678614E+03  0.15100678614E+03  0.00000000000E+00 0.  1.
         21   -1    0    0  501  502  0.00000000000E+00 -0.00000000000E+00 -0.11871648634E+03  0.11871648634E+03  0.00000000000E+00 0.  1.
         23    2    1    2    0    0 -0.15056464901E+02  0.70008124673E+02  0.18446738624E+02  0.11399759170E+03  0.86760210305E+02 0.  0.
        -24    2    1    2    0    0  0.47588215614E+02 -0.78005792789E+02  0.10545428023E+02  0.12206331036E+03  0.80241533566E+02 0.  0.
         13    1    4    4    0    0  0.19621028518E+02 -0.43187865161E+01 -0.27891854984E+02  0.34374296378E+02  0.00000000000E+00 0. -1.
        -14    1    4    4    0    0  0.27967187096E+02 -0.73687006273E+02  0.38437283007E+02  0.87689013978E+02  0.00000000000E+00 0.  1.
        -11    1    3    3    0    0  0.31249359157E+02  0.55816441091E+02  0.81798753881E+01  0.64489595324E+02  0.00000000000E+00 0.  1.
         11    1    3    3    0    0 -0.46305824058E+02  0.14191683583E+02  0.10266863236E+02  0.49507996377E+02  0.00000000000E+00 0. -1.
         -1    1    1    2    0  502 -0.32531750713E+02  0.79976681157E+01  0.32981331550E+01  0.33662370416E+02  0.00000000000E+00 0.  1.
<scales pt_clust_5="13000.00000" pt_clust_6="13000.00000" pt_clust_7="13000.00000" pt_clust_8="13000.00000" pt_clust_9="33.50041"></scales>
<clustering>
<clus scale="   33.500">  2  9  1 -1</clus>
<clus scale="   80.242">  5  6 -1 -1</clus>
<clus scale="   86.760">  7  8 -1 -1</clus>
<clus scale="  113.023">  2  5  1 -1</clus>
<clus scale="   33.500">  2  5  1 -1</clus>
</clustering>
</event>
<event>
 9    1  0.3197504E-005  0.1634429E+03  0.7546771E-02  0.1186410E+00
          1   -1    0    0  502    0 -0.00000000000E+00  0.00000000000E+00  0.86373301599E+03  0.86373301599E+03  0.00000000000E+00 0. -1.
         21   -1    0    0  501  502  0.00000000000E+00 -0.00000000000E+00 -0.12455772962E+03  0.12455772962E+03  0.00000000000E+00 0.  1.
        -24    2    1    2    0    0  0.12006487909E+03 -0.64590604859E+02  0.72422109831E+03  0.74128117644E+03  0.80087838556E+02 0.  0.
         23    2    1    2    0    0 -0.84256223516E+02  0.12256262098E+03  0.31401971757E+02  0.17691289267E+03  0.90506245638E+02 0.  0.
         11    1    3    3    0    0  0.12867709308E+03 -0.67317984798E+02  0.70775010355E+03  0.72249547710E+03  0.00000000000E+00 0. -1.
        -12    1    3    3    0    0 -0.86122139954E+01  0.27273799390E+01  0.16470994759E+02  0.18785699337E+02  0.00000000000E+00 0.  1.
        -11    1    4    4    0    0  0.10888539973E+02  0.38241989951E+02 -0.13642205457E+02  0.42037124876E+02  0.00000000000E+00 0. -1.
         11    1    4    4    0    0 -0.95144763490E+02  0.84320631034E+02  0.45044177214E+02  0.13487576780E+03  0.00000000000E+00 0.  1.
          2    1    1    2  501    0 -0.35808655569E+02 -0.57972016126E+02 -0.16447783697E+02  0.70096676497E+02  0.00000000000E+00 0. -1.
<scales pt_clust_5="13000.00000" pt_clust_6="13000.00000" pt_clust_7="13000.00000" pt_clust_8="13000.00000" pt_clust_9="68.13967"></scales>
<clustering>
<clus scale="   68.140">  2  9  1 -1</clus>
<clus scale="   80.088">  5  6 -1 -1</clus>
<clus scale="   90.506">  7  8 -1 -1</clus>
<clus scale="  157.912">  1  5  2 -1</clus>
<clus scale="   68.140">  2  5  1 -1</clus>
</clustering>
</event>
<event>
 9    1  0.3197504E-005  0.9440501E+02  0.7546771E-02  0.1292788E+00
          1   -1    0    0  502    0 -0.00000000000E+00  0.00000000000E+00  0.97866333917E+02  0.97866333917E+02  0.00000000000E+00 0. -1.
         21   -1    0    0  501  502  0.00000000000E+00 -0.00000000000E+00 -0.22121098535E+03  0.22121098535E+03  0.00000000000E+00 0.  1.
        -24    2    1    2    0    0  0.53056099444E+02  0.99538200762E+01 -0.67685584745E+02  0.11786287603E+03  0.79976815030E+02 0.  0.
         23    2    1    2    0    0 -0.28786301854E+02 -0.44406427770E+02 -0.10080805301E+03  0.13945332101E+03  0.80525667873E+02 0.  0.
         13    1    3    3    0    0  0.51878865689E+02  0.33664738373E+02 -0.20693751078E+02  0.65214742571E+02  0.00000000000E+00 0. -1.
        -14    1    3    3    0    0  0.11772337555E+01 -0.23710918296E+02 -0.46991833667E+02  0.52648133463E+02  0.00000000000E+00 0.  1.
        -13    1    4    4    0    0 -0.19282783544E+02  0.13144797556E+02 -0.69369791891E+02  0.73190023029E+02  0.00000000000E+00 0.  1.
         13    1    4    4    0    0 -0.95035183101E+01 -0.57551225325E+02 -0.31438261119E+02  0.66263297978E+02  0.00000000000E+00 0. -1.
          2    1    1    2  501    0 -0.24269797590E+02  0.34452607693E+02  0.45148986326E+02  0.61761122222E+02  0.00000000000E+00 0. -1.
<scales pt_clust_5="13000.00000" pt_clust_6="13000.00000" pt_clust_7="13000.00000" pt_clust_8="13000.00000" pt_clust_9="42.14270"></scales>
<clustering>
<clus scale="   42.143">  2  9  1 -1</clus>
<clus scale="   79.977">  5  6 -1 -1</clus>
<clus scale="   80.526">  7  8 -1 -1</clus>
<clus scale="   93.937">  1  5  2 -1</clus>
<clus scale="   42.143">  2  5  1 -1</clus>
</clustering>
</event>
<event>
 9    1  0.3604122E-005  0.9243758E+02  0.7546771E-02  0.1301640E+00
         21   -1    0    0  501  502  0.00000000000E+00  0.00000000000E+00  0.54241733926E+03  0.54241733926E+03  0.00000000000E+00 0.  1.
          1   -1    0    0  502    0 -0.00000000000E+00 -0.00000000000E+00 -0.81982368988E+02  0.81982368988E+02  0.00000000000E+00 0. -1.
         23    2    1    2    0    0  0.11986530407E+02  0.64235485344E+01 -0.41182377632E+02  0.10170712604E+03  0.91996806318E+02 0.  0.
        -24    2    1    2    0    0  0.36699164594E+02 -0.32724434089E+00  0.25198687116E+03  0.26828574909E+03  0.84456640664E+02 0.  0.
         11    1    4    4    0    0  0.46622973783E+02 -0.25703213358E+02  0.94549149562E+02  0.10850759671E+03  0.00000000000E+00 0. -1.
        -12    1    4    4    0    0 -0.99238091890E+01  0.25375969018E+02  0.15743772160E+03  0.15977815237E+03  0.00000000000E+00 0.  1.
        -13    1    3    3    0    0  0.33071368998E+02  0.13047729649E+02  0.17044604357E+02  0.39426859298E+02  0.00000000000E+00 0.  1.
         13    1    3    3    0    0 -0.21084838591E+02 -0.66241811145E+01 -0.58226981989E+02  0.62280266741E+02  0.00000000000E+00 0. -1.
          2    1    1    2  501    0 -0.48685695001E+02 -0.60963041935E+01  0.24963047674E+03  0.25440683312E+03  0.00000000000E+00 0. -1.
<scales pt_clust_5="13000.00000" pt_clust_6="13000.00000" pt_clust_7="13000.00000" pt_clust_8="13000.00000" pt_clust_9="49.06589"></scales>
<clustering>
<clus scale="   49.066">  1  9  2 -1</clus>
<clus scale="   84.457">  5  6 -1 -1</clus>
<clus scale="   84.937">  1  5  2 -1</clus>
<clus scale="   91.997">  7  8 -1 -1</clus>
<clus scale="   49.066">  1  5  2 -1</clus>
</clustering>
</event>
<event>
 9    1  0.3197504E-005  0.1048383E+03  0.7546771E-02  0.1275307E+00
         -2   -1    0    0    0  501 -0.00000000000E+00  0.00000000000E+00  0.50753407659E+03  0.50753407659E+03  0.00000000000E+00 0.  1.
         21   -1    0    0  501  502  0.00000000000E+00 -0.00000000000E+00 -0.11408987962E+03  0.11408987962E+03  0.00000000000E+00 0.  1.
        -24    2    1    2    0    0 -0.84405963483E+01 -0.52687291438E+02  0.45920642488E+03  0.46925626784E+03  0.80521487250E+02 0.  0.
         23    2    1    2    0    0  0.68633656524E+01  0.13400030230E+02 -0.64712989739E+02  0.11303478292E+03  0.91446293042E+02 0.  0.
         11    1    3    3    0    0 -0.39075199507E+02 -0.63064309511E+01  0.23180747693E+03  0.23516238782E+03  0.00000000000E+00 0. -1.
        -12    1    3    3    0    0  0.30634603158E+02 -0.46380860487E+02  0.22739894795E+03  0.23409388001E+03  0.00000000000E+00 0.  1.
        -13    1    4    4    0    0 -0.40409417866E+02  0.19694028824E+02 -0.29862949654E+02  0.53968246086E+02  0.00000000000E+00 0. -1.
         13    1    4    4    0    0  0.47272783519E+02 -0.62939985938E+01 -0.34850040085E+02  0.59066536836E+02  0.00000000000E+00 0.  1.
         -1    1    1    2    0  502  0.15772306958E+01  0.39287261208E+02 -0.10492381731E+01  0.39332905443E+02  0.00000000000E+00 0.  1.
<scales pt_clust_5="13000.00000" pt_clust_6="13000.00000" pt_clust_7="13000.00000" pt_clust_8="13000.00000" pt_clust_9="39.31891"></scales>
<clustering>
<clus scale="   39.319">  2  9  1 -1</clus>
<clus scale="   80.521">  5  6 -1 -1</clus>
<clus scale="   91.446">  7  8 -1 -1</clus>
<clus scale="   95.459">  1  5  2 -1</clus>
<clus scale="   39.319">  2  5  1 -1</clus>
</clustering>
</event>
<event>
 9    1  0.3197504E-005  0.1024803E+03  0.7546771E-02  0.1279847E+00
         21   -1    0    0  501  502  0.00000000000E+00  0.00000000000E+00  0.16014484170E+03  0.16014484170E+03  0.00000000000E+00 0. -1.
          3   -1    0    0  502    0 -0.00000000000E+00 -0.00000000000E+00 -0.13261536435E+03  0.13261536435E+03  0.00000000000E+00 0. -1.
        -24    2    1    2    0    0 -0.31447882561E+02 -0.12700596064E+02 -0.22698641822E+02  0.90923447085E+02  0.81250048808E+02 0.  0.
         23    2    1    2    0    0  0.31899527520E+02  0.80190609598E+02  0.17380677430E+02  0.12677638101E+03  0.91225265741E+02 0.  0.
         13    1    3    3    0    0 -0.67565171383E+01 -0.28030840598E+02  0.22919902713E+02  0.36833415384E+02  0.00000000000E+00 0. -1.
        -14    1    3    3    0    0 -0.24691365423E+02  0.15330244534E+02 -0.45618544535E+02  0.54090031701E+02  0.00000000000E+00 0.  1.
        -13    1    4    4    0    0  0.43873713042E+02  0.44132310623E+00  0.14026479292E+02  0.46063430002E+02  0.00000000000E+00 0. -1.
         13    1    4    4    0    0 -0.11974185522E+02  0.79749286491E+02  0.33541981382E+01  0.80712951005E+02  0.00000000000E+00 0.  1.
          4    1    1    2  501    0 -0.45164495927E+00 -0.67490013534E+02  0.32847441737E+02  0.75060377954E+02  0.00000000000E+00 0. -1.
<scales pt_clust_5="13000.00000" pt_clust_6="13000.00000" pt_clust_7="13000.00000" pt_clust_8="13000.00000" pt_clust_9="67.49152"></scales>
<clustering>
<clus scale="   67.492">  1  9  2 -1</clus>
<clus scale="   81.250">  5  6 -1 -1</clus>
<clus scale="   91.225">  7  8 -1 -1</clus>
<clus scale="   93.711">  2  5  1 -1</clus>
<clus scale="   67.492">  1  5  2 -1</clus>
</clustering>
</event>
<event>
 9    1  0.3197504E-005  0.1054965E+03  0.7546771E-02  0.1274052E+00
         -4   -1    0    0    0  501 -0.00000000000E+00  0.00000000000E+00  0.53075711990E+03  0.53075711990E+03  0.00000000000E+00 0.  1.
         21   -1    0    0  501  502  0.00000000000E+00 -0.00000000000E+00 -0.37600254027E+02  0.37600254027E+02  0.00000000000E+00 0.  1.
        -24    2    1    2    0    0 -0.46396217565E+02  0.26023665201E+02  0.35397930314E+03  0.36678208718E+03  0.79986950618E+02 0.  0.
         23    2    1    2    0    0  0.57244249499E+02 -0.24541093562E+01  0.71982094542E+02  0.12954449677E+03  0.91199933963E+02 0.  0.
         13    1    3    3    0    0 -0.47942359630E+02  0.43855393082E+01  0.91360143895E+02  0.10326847871E+03  0.00000000000E+00 0. -1.
        -14    1    3    3    0    0  0.15461420650E+01  0.21638125893E+02  0.26261915925E+03  0.26351360847E+03  0.00000000000E+00 0.  1.
        -11    1    4    4    0    0 -0.10108389972E+02 -0.18483887333E+02  0.54072563335E+02  0.58031678800E+02  0.00000000000E+00 0. -1.
         11    1    4    4    0    0  0.67352639471E+02  0.16029777977E+02  0.17909531207E+02  0.71512817968E+02  0.00000000000E+00 0.  1.
         -3    1    1    2    0  502 -0.10848031934E+02 -0.23569555845E+02  0.67195468187E+02  0.72030789975E+02  0.00000000000E+00 0.  1.
<scales pt_clust_5="13000.00000" pt_clust_6="13000.00000" pt_clust_7="13000.00000" pt_clust_8="13000.00000" pt_clust_9="25.94618"></scales>
<clustering>
<clus scale="   25.946">  2  9  1 -1</clus>
<clus scale="   79.987">  5  6 -1 -1</clus>
<clus scale="   91.200">  7  8 -1 -1</clus>
<clus scale="   95.969">  1  5  2 -1</clus>
<clus scale="   25.946">  2  5  1 -1</clus>
</clustering>
</event>
<event>
 9    1  0.3197504E-005  0.1047438E+03  0.7546771E-02  0.1281514E+00
         -2   -1    0    0    0  501 -0.00000000000E+00  0.00000000000E+00  0.28578837572E+03  0.28578837572E+03  0.00000000000E+00 0.  1.
         21   -1    0    0  501  502  0.00000000000E+00 -0.00000000000E+00 -0.53284805486E+02  0.53284805486E+02  0.00000000000E+00 0.  1.
         23    2    1    2    0    0 -0.15353452153E+02 -0.56957036003E+01  0.10297101646E+03  0.14410249737E+03  0.99470246723E+02 0.  0.
        -24    2    1    2    0    0  0.28992863040E+02  0.48627699757E+02  0.66074250091E+02  0.11714943912E+03  0.78440711821E+02 0.  0.
         11    1    4    4    0    0  0.52169326904E+00 -0.21229630739E+02  0.12757869318E+02  0.24773627404E+02  0.00000000000E+00 0. -1.
        -12    1    4    4    0    0  0.28471169771E+02  0.69857330496E+02  0.53316380772E+02  0.92375811719E+02  0.00000000000E+00 0.  1.
        -11    1    3    3    0    0  0.25722120186E+02  0.27777500883E+02  0.75401850153E+02  0.84372128269E+02  0.00000000000E+00 0.  1.
         11    1    3    3    0    0 -0.41075572339E+02 -0.33473204484E+02  0.27569166310E+02  0.59730369097E+02  0.00000000000E+00 0. -1.
         -1    1    1    2    0  502 -0.13639410887E+02 -0.42931996157E+02  0.63458303685E+02  0.77821244721E+02  0.00000000000E+00 0.  1.
<scales pt_clust_5="13000.00000" pt_clust_6="13000.00000" pt_clust_7="13000.00000" pt_clust_8="13000.00000" pt_clust_9="45.04655"></scales>
<clustering>
<clus scale="   45.047">  2  9  1 -1</clus>
<clus scale="   78.441">  5  6 -1 -1</clus>
<clus scale="   85.029">  2  5  1 -1</clus>
<clus scale="   99.470">  7  8 -1 -1</clus>
<clus scale="   45.047">  2  5  1 -1</clus>
</clustering>
</event>
<event>
 9    1  0.3197504E-005  0.1911558E+03  0.7546771E-02  0.1158271E+00
         -2   -1    0    0    0  501 -0.00000000000E+00  0.00000000000E+00  0.58898531241E+03  0.58898531241E+03  0.00000000000E+00 0.  1.
         21   -1    0    0  501  502  0.00000000000E+00 -0.00000000000E+00 -0.14287470189E+03  0.14287470189E+03  0.00000000000E+00 0.  1.
         23    2    1    2    0    0  0.10631275468E+03  0.14441323767E+03  0.39526586250E+03  0.44320358633E+03  0.89647821233E+02 0.  0.
        -24    2    1    2    0    0 -0.11618742995E+03 -0.97615183902E+02  0.11616228476E+03  0.20769997268E+03  0.81347152648E+02 0.  0.
         13    1    4    4    0    0 -0.12078521619E+03 -0.10162487845E+03  0.12181119012E+03  0.19938568256E+03  0.00000000000E+00 0. -1.
        -14    1    4    4    0    0  0.45977862377E+01  0.40096945474E+01 -0.56489053535E+01  0.83142901287E+01  0.00000000000E+00 0.  1.
        -13    1    3    3    0    0  0.92933758142E+02  0.12534577104E+03  0.38893005419E+03  0.41906423466E+03  0.00000000000E+00 0.  1.
         13    1    3    3    0    0  0.13378996540E+02  0.19067466625E+02  0.63358083149E+01  0.24139351668E+02  0.00000000000E+00 0. -1.
         -1    1    1    2    0  502  0.98746752716E+01 -0.46798053766E+02 -0.65317536744E+02  0.80956455297E+02  0.00000000000E+00 0.  1.
<scales pt_clust_5="13000.00000" pt_clust_6="13000.00000" pt_clust_7="13000.00000" pt_clust_8="13000.00000" pt_clust_9="47.82852"></scales>
<clustering>
<clus scale="   47.829">  2  9  1 -1</clus>
<clus scale="   81.347">  5  6 -1 -1</clus>
<clus scale="   89.648">  7  8 -1 -1</clus>
<clus scale="  187.406">  2  5  1 -1</clus>
<clus scale="   47.829">  2  5  1 -1</clus>
</clustering>
</event>
<event>
 9    1  0.3197504E-005  0.3238455E+03  0.7546771E-02  0.1073969E+00
         21   -1    0    0  501  502  0.00000000000E+00  0.00000000000E+00  0.13349801799E+03  0.13349801799E+03  0.00000000000E+00 0. -1.
          1   -1    0    0  502    0 -0.00000000000E+00 -0.00000000000E+00 -0.15138455943E+04  0.15138455943E+04  0.00000000000E+00 0. -1.
         23    2    1    2    0    0 -0.26550240762E+03  0.25556381548E+02 -0.55007893710E+03  0.61674540523E+03  0.81507059508E+02 0.  0.
        -24    2    1    2    0    0  0.42149315578E+03  0.55271185409E+02 -0.54640110789E+03  0.69676144389E+03  0.78809610371E+02 0.  0.
         13    1    4    4    0    0  0.41401922732E+03  0.46353084958E+02 -0.54344204033E+03  0.68475527035E+03  0.00000000000E+00 0. -1.
        -14    1    4    4    0    0  0.74739284639E+01  0.89181004507E+01 -0.29590675585E+01  0.12006173543E+02  0.00000000000E+00 0.  1.
        -11    1    3    3    0    0 -0.46846314959E+02 -0.11455378207E+01 -0.18064006854E+03  0.18661919474E+03  0.00000000000E+00 0. -1.
         11    1    3    3    0    0 -0.21865609266E+03  0.26701919368E+02 -0.36943886855E+03  0.43012621049E+03  0.00000000000E+00 0.  1.
          2    1    1    2  501    0 -0.15599074817E+03 -0.80827566956E+02 -0.28386753129E+03  0.33383676313E+03  0.00000000000E+00 0. -1.
<scales pt_clust_5="13000.00000" pt_clust_6="13000.00000" pt_clust_7="13000.00000" pt_clust_8="13000.00000" pt_clust_9="175.68790"></scales>
<clustering>
<clus scale="   78.810">  5  6 -1 -1</clus>
<clus scale="   81.507">  7  8 -1 -1</clus>
<clus scale="  175.688">  1  9  2 -1</clus>
<clus scale="  323.177">  1  5  2 -1</clus>
<clus scale="  175.688">  1  5  2 -1</clus>
</clustering>
</event>
<event>
 9    1  0.3197504E-005  0.1890846E+03  0.7546771E-02  0.1160251E+00
         21   -1    0    0  501  502  0.00000000000E+00  0.00000000000E+00  0.47861431736E+03  0.47861431736E+03  0.00000000000E+00 0. -1.
          1   -1    0    0  502    0 -0.00000000000E+00 -0.00000000000E+00 -0.22402837947E+03  0.22402837947E+03  0.00000000000E+00 0. -1.
         23    2    1    2    0    0  0.25293439287E+02 -0.14926967675E+03 -0.51949738928E+01  0.17722959818E+03  0.91989935584E+02 0.  0.
        -24    2    1    2    0    0 -0.11471562033E+03  0.20339830426E+03  0.32001892658E+03  0.40476960233E+03  0.83040796456E+02 0.  0.
         11    1    4    4    0    0 -0.82048562960E+02  0.76377488316E+02  0.10926503197E+03  0.15653860424E+03  0.00000000000E+00 0. -1.
        -12    1    4    4    0    0 -0.32667057374E+02  0.12702081594E+03  0.21075389461E+03  0.24823099809E+03  0.00000000000E+00 0.  1.
        -13    1    3    3    0    0 -0.18019736628E+02 -0.12638342506E+03 -0.97324469363E+01  0.12803203334E+03  0.00000000000E+00 0.  1.
         13    1    3    3    0    0  0.43313175915E+02 -0.22886251688E+02  0.45374730435E+01  0.49197564836E+02  0.00000000000E+00 0. -1.
          2    1    1    2  501    0  0.89422181046E+02 -0.54128627507E+02 -0.60238014790E+02  0.12064349632E+03  0.00000000000E+00 0. -1.
<scales pt_clust_5="13000.00000" pt_clust_6="13000.00000" pt_clust_7="13000.00000" pt_clust_8="13000.00000" pt_clust_9="104.52868"></scales>
<clustering>
<clus scale="   83.041">  5  6 -1 -1</clus>
<clus scale="   91.990">  7  8 -1 -1</clus>
<clus scale="  104.529">  1  9  2 -1</clus>
<clus scale="  184.896">  1  5  2 -1</clus>
<clus scale="  104.529">  1  5  2 -1</clus>
</clustering>
</event>
<event>
 9    1  0.3197504E-005  0.9152073E+02  0.7546771E-02  0.1303930E+00
         21   -1    0    0  501  502  0.00000000000E+00  0.00000000000E+00  0.28441443773E+03  0.28441443773E+03  0.00000000000E+00 0.  1.
          1   -1    0    0  502    0 -0.00000000000E+00 -0.00000000000E+00 -0.10508025665E+03  0.10508025665E+03  0.00000000000E+00 0. -1.
        -24    2    1    2    0    0  0.65834523407E+01  0.28635532395E+02 -0.71812013705E+02  0.11098918113E+03  0.79361813579E+02 0.  0.
         23    2    1    2    0    0 -0.18353455410E+02 -0.42471704949E+01  0.15827116182E+03  0.18176308763E+03  0.87368023773E+02 0.  0.
         13    1    3    3    0    0  0.23119531489E+02  0.41794277708E+02 -0.75693435510E+02  0.89502908136E+02  0.00000000000E+00 0. -1.
        -14    1    3    3    0    0 -0.16536079148E+02 -0.13158745313E+02  0.38814218056E+01  0.21486272991E+02  0.00000000000E+00 0.  1.
        -13    1    4    4    0    0 -0.29107454577E+02  0.29378478972E+02  0.13034860147E+03  0.13675195371E+03  0.00000000000E+00 0.  1.
         13    1    4    4    0    0  0.10753999167E+02 -0.33625649467E+02  0.27922560352E+02  0.45011133920E+02  0.00000000000E+00 0. -1.
          2    1    1    2  501    0  0.11770003070E+02 -0.24388361900E+02  0.92875032965E+02  0.96742425629E+02  0.00000000000E+00 0. -1.
<scales pt_clust_5="13000.00000" pt_clust_6="13000.00000" pt_clust_7="13000.00000" pt_clust_8="13000.00000" pt_clust_9="27.07998"></scales>
<clustering>
<clus scale="   27.080">  1  9  2 -1</clus>
<clus scale="   79.362">  5  6 -1 -1</clus>
<clus scale="   83.912">  2  5  1 -1</clus>
<clus scale="   87.368">  7  8 -1 -1</clus>
<clus scale="   27.080">  1  5  2 -1</clus>
</clustering>
</event>
<event>
 9    1  0.3197504E-005  0.1256029E+03  0.7546771E-02  0.1253129E+00
         -2   -1    0    0    0  501 -0.00000000000E+00  0.00000000000E+00  0.28115628005E+03  0.28115628005E+03  0.00000000000E+00 0.  1.
         21   -1    0    0  501  502  0.00000000000E+00 -0.00000000000E+00 -0.67735826229E+02  0.67735826229E+02  0.00000000000E+00 0.  1.
         23    2    1    2    0    0 -0.78899083414E+01 -0.55860615881E+01  0.12594918599E+03  0.17515451943E+03  0.12133611782E+03 0.  0.
        -24    2    1    2    0    0  0.47625047100E+02  0.18343471326E+02  0.92095877036E+02  0.13174925792E+03  0.79193360478E+02 0.  0.
         13    1    4    4    0    0  0.38316239740E+02 -0.23879514233E+02  0.24118757800E+02  0.51186716106E+02  0.00000000000E+00 0. -1.
        -14    1    4    4    0    0  0.93088073593E+01  0.42222985559E+02  0.67977119235E+02  0.80562541814E+02  0.00000000000E+00 0.  1.
        -11    1    3    3    0    0 -0.56120115298E+02  0.61492821517E+01  0.23187107832E+02  0.61032147116E+02  0.00000000000E+00 0. -1.
         11    1    3    3    0    0  0.48230206956E+02 -0.11735343740E+02  0.10276207816E+03  0.11412237232E+03  0.00000000000E+00 0.  1.
         -1    1    1    2    0  502 -0.39735138758E+02 -0.12757409737E+02 -0.46246092101E+01  0.41988328922E+02  0.00000000000E+00 0.  1.
<scales pt_clust_5="13000.00000" pt_clust_6="13000.00000" pt_clust_7="13000.00000" pt_clust_8="13000.00000" pt_clust_9="41.73287"></scales>
<clustering>
<clus scale="   41.733">  2  9  1 -1</clus>
<clus scale="   79.193">  5  6 -1 -1</clus>
<clus scale="   85.588">  2  5  1 -1</clus>
<clus scale="  121.336">  7  8 -1 -1</clus>
<clus scale="   41.733">  2  5  1 -1</clus>
</clustering>
</event>
<event>
 9    1  0.3197504E-005  0.1230901E+03  0.7546771E-02  0.1243875E+00
         -2   -1    0    0    0  501 -0.00000000000E+00  0.00000000000E+00  0.14517483311E+03  0.14517483311E+03  0.00000000000E+00 0.  1.
         21   -1    0    0  501  502  0.00000000000E+00 -0.00000000000E+00 -0.28628052187E+03  0.28628052187E+03  0.00000000000E+00 0.  1.
        -24    2    1    2    0    0 -0.45102205967E+02 -0.96080613332E+02  0.46072257469E+02  0.14137489680E+03  0.81231245801E+02 0.  0.
         23    2    1    2    0    0 -0.16783200007E+02  0.33207867158E+02 -0.29920034071E+02  0.10976729554E+03  0.98839326630E+02 0.  0.
         11    1    3    3    0    0 -0.41812628591E+02 -0.70750297401E+01  0.32006552477E+01  0.42527592802E+02  0.00000000000E+00 0. -1.
        -12    1    3    3    0    0 -0.32895773760E+01 -0.89005583591E+02  0.42871602221E+02  0.98847303994E+02  0.00000000000E+00 0.  1.
        -13    1    4    4    0    0 -0.42501022443E+02 -0.45660316682E+01 -0.44593246483E+02  0.61771702144E+02  0.00000000000E+00 0.  1.
         13    1    4    4    0    0  0.25717822436E+02  0.37773898826E+02  0.14673212412E+02  0.47995593401E+02  0.00000000000E+00 0. -1.
         -1    1    1    2    0  502  0.61885405974E+02  0.62872746174E+02 -0.15725791216E+03  0.18031316264E+03  0.00000000000E+00 0.  1.
<scales pt_clust_5="13000.00000" pt_clust_6="13000.00000" pt_clust_7="13000.00000" pt_clust_8="13000.00000" pt_clust_9="88.22010"></scales>
<clustering>
<clus scale="   81.231">  5  6 -1 -1</clus>
<clus scale="   88.220">  2  9  1 -1</clus>
<clus scale="   98.839">  7  8 -1 -1</clus>
<clus scale="  109.455">  1  5  2 -1</clus>
<clus scale="   88.220">  2  5  1 -1</clus>
</clustering>
</event>
<event>
 9    1  0.3197504E-005  0.1293829E+03  0.7546771E-02  0.1231814E+00
         21   -1    0    0  501  502  0.00000000000E+00  0.00000000000E+00  0.68878216780E+02  0.68878216780E+02  0.00000000000E+00 0.  1.
         -2   -1    0    0    0  501 -0.00000000000E+00 -0.00000000000E+00 -0.27882969079E+03  0.27882969079E+03  0.00000000000E+00 0.  1.
         23    2    1    2    0    0  0.15355416261E+02 -0.87729944804E+02 -0.12765936038E+03  0.18168478477E+03  0.93702276936E+02 0.  0.
        -24    2    1    2    0    0  0.52658098994E+01  0.90577309757E+02 -0.78758228936E+02  0.14490841710E+03  0.81016127558E+02 0.  0.
         11    1    4    4    0    0 -0.18724564040E+02 -0.78624823643E+01 -0.13768620176E+02  0.24535745943E+02  0.00000000000E+00 0. -1.
        -12    1    4    4    0    0  0.23990373939E+02  0.98439792121E+02 -0.64989608761E+02  0.12037267116E+03  0.00000000000E+00 0.  1.
        -13    1    3    3    0    0 -0.23303871867E+02 -0.56768072382E+02 -0.11533647980E+03  0.13064527568E+03  0.00000000000E+00 0.  1.
         13    1    3    3    0    0  0.38659288128E+02 -0.30961872422E+02 -0.12322880576E+02  0.51039509090E+02  0.00000000000E+00 0. -1.
         -1    1    1    2    0  502 -0.20621226161E+02 -0.28473649527E+01 -0.35338846964E+01  0.21114705695E+02  0.00000000000E+00 0.  1.
<scales pt_clust_5="13000.00000" pt_clust_6="13000.00000" pt_clust_7="13000.00000" pt_clust_8="13000.00000" pt_clust_9="20.81688"></scales>
<clustering>
<clus scale="   20.817">  1  9  2 -1</clus>
<clus scale="   81.016">  5  6 -1 -1</clus>
<clus scale="   93.702">  7  8 -1 -1</clus>
<clus scale="  120.513">  1  5  2 -1</clus>
<clus scale="   20.817">  1  5  2 -1</clus>
</clustering>
</event>
<event>
 9    1  0.3197504E-005  0.1013478E+03  0.7546771E-02  0.1300831E+00
         -2   -1    0    0    0  501 -0.00000000000E+00  0.00000000000E+00  0.31952116197E+03  0.31952116197E+03  0.00000000000E+00 0.  1.
         21   -1    0    0  501  502  0.00000000000E+00 -0.00000000000E+00 -0.41129732759E+02  0.41129732759E+02  0.00000000000E+00 0. -1.
        -24    2    1    2    0    0 -0.97391525012E+01  0.11796366905E+02  0.20745863399E+03  0.21757803525E+03  0.63773907251E+02 0.  0.
         23    2    1    2    0    0 -0.10317885922E+02 -0.18943554627E+02  0.54445709495E+02  0.11614348743E+03  0.10029784324E+03 0.  0.
         11    1    3    3    0    0  0.13409375906E+02 -0.20773056285E+02  0.97437408824E+02  0.10052551849E+03  0.00000000000E+00 0. -1.
        -12    1    3    3    0    0 -0.23148528407E+02  0.32569423190E+02  0.11002122516E+03  0.11705251676E+03  0.00000000000E+00 0.  1.
        -13    1    4    4    0    0  0.27418393413E+02  0.12996929284E+02 -0.12588027420E+02  0.32850371421E+02  0.00000000000E+00 0. -1.
         13    1    4    4    0    0 -0.37736279335E+02 -0.31940483910E+02  0.67033736915E+02  0.83293116014E+02  0.00000000000E+00 0.  1.
         -1    1    1    2    0  502  0.20057038423E+02  0.71471877212E+01  0.16487085729E+02  0.26929372040E+02  0.00000000000E+00 0.  1.
<scales pt_clust_5="13000.00000" pt_clust_6="13000.00000" pt_clust_7="13000.00000" pt_clust_8="13000.00000" pt_clust_9="21.29242"></scales>
<clustering>
<clus scale="   21.292">  2  9  1 -1</clus>
<clus scale="   63.774">  5  6 -1 -1</clus>
<clus scale="   65.413">  1  5  2 -1</clus>
<clus scale="  100.298">  7  8 -1 -1</clus>
<clus scale="   21.292">  2  5  1 -1</clus>
</clustering>
</event>
<event>
 9    1  0.3197504E-005  0.1443275E+03  0.7546771E-02  0.1209894E+00
         21   -1    0    0  501  502  0.00000000000E+00  0.00000000000E+00  0.19485501338E+03  0.19485501338E+03  0.00000000000E+00 0.  1.
         -4   -1    0    0    0  501 -0.00000000000E+00 -0.00000000000E+00 -0.39238288624E+03  0.39238288624E+03  0.00000000000E+00 0.  1.
        -24    2    1    2    0    0  0.11538992843E+03  0.47800352538E+02 -0.27842016220E+03  0.31571692989E+03  0.80991874971E+02 0.  0.
         23    2    1    2    0    0 -0.85641426917E+02  0.12195263475E+02 -0.40642083144E+02  0.13275839920E+03  0.92140301607E+02 0.  0.
         13    1    3    3    0    0  0.44471146407E+02  0.28381493631E+02 -0.39970789402E+02  0.66188035542E+02  0.00000000000E+00 0. -1.
        -14    1    3    3    0    0  0.70918782025E+02  0.19418858908E+02 -0.23844937280E+03  0.24952889435E+03  0.00000000000E+00 0.  1.
        -13    1    4    4    0    0 -0.65290709840E+02 -0.19445413676E+02  0.10854216724E+02  0.68984164307E+02  0.00000000000E+00 0. -1.
         13    1    4    4    0    0 -0.20350717077E+02  0.31640677150E+02 -0.51496299868E+02  0.63774234893E+02  0.00000000000E+00 0.  1.
         -3    1    1    2    0  502 -0.29748501515E+02 -0.59995616013E+02  0.12153437249E+03  0.13876257053E+03  0.00000000000E+00 0.  1.
<scales pt_clust_5="13000.00000" pt_clust_6="13000.00000" pt_clust_7="13000.00000" pt_clust_8="13000.00000" pt_clust_9="66.96602"></scales>
<clustering>
<clus scale="   66.966">  1  9  2 -1</clus>
<clus scale="   80.992">  5  6 -1 -1</clus>
<clus scale="   92.140">  7  8 -1 -1</clus>
<clus scale="  137.478">  2  5  1 -1</clus>
<clus scale="   66.966">  1  5  2 -1</clus>
</clustering>
</event>
<event>
 9    1  0.3197504E-005  0.1849208E+03  0.7546771E-02  0.1197377E+00
         21   -1    0    0  501  502  0.00000000000E+00  0.00000000000E+00  0.62607550219E+02  0.62607550219E+02  0.00000000000E+00 0.  1.
         -4   -1    0    0    0  501 -0.00000000000E+00 -0.00000000000E+00 -0.89260268721E+03  0.89260268721E+03  0.00000000000E+00 0.  1.
        -24    2    1    2    0    0 -0.36210349062E+01  0.16005561985E+02 -0.12540389989E+03  0.15185491373E+03  0.84050501531E+02 0.  0.
         23    2    1    2    0    0  0.12374568464E+03  0.93759934502E+02 -0.55054889937E+03  0.57928516168E+03  0.91451015075E+02 0.  0.
         11    1    3    3    0    0  0.14735726561E+02 -0.20708333986E+02 -0.67434792271E+01  0.26295460556E+02  0.00000000000E+00 0. -1.
        -12    1    3    3    0    0 -0.18356761467E+02  0.36713895971E+02 -0.11866042067E+03  0.12555945318E+03  0.00000000000E+00 0.  1.
        -11    1    4    4    0    0  0.20978341489E+02  0.57690383713E+02 -0.11537637144E+03  0.13069039089E+03  0.00000000000E+00 0. -1.
         11    1    4    4    0    0  0.10276734316E+03  0.36069550789E+02 -0.43517252794E+03  0.44859477080E+03  0.00000000000E+00 0.  1.
         -3    1    1    2    0  502 -0.12012464974E+03 -0.10976549649E+03 -0.15404233772E+03  0.22407016201E+03  0.00000000000E+00 0.  1.
<scales pt_clust_5="13000.00000" pt_clust_6="13000.00000" pt_clust_7="13000.00000" pt_clust_8="13000.00000" pt_clust_9="160.72465"></scales>
<clustering>
<clus scale="   84.051">  5  6 -1 -1</clus>
<clus scale="   85.638">  2  5  1 -1</clus>
<clus scale="   91.451">  7  8 -1 -1</clus>
<clus scale="  160.725">  1  9  2 -1</clus>
<clus scale="  160.725">  1  5  2 -1</clus>
</clustering>
</event>
<event>
 9    1  0.3197504E-005  0.1061569E+03  0.7546771E-02  0.1271162E+00
          1   -1    0    0  502    0 -0.00000000000E+00  0.00000000000E+00  0.56786965316E+03  0.56786965316E+03  0.00000000000E+00 0. -1.
         21   -1    0    0  501  502  0.00000000000E+00 -0.00000000000E+00 -0.63098111025E+02  0.63098111025E+02  0.00000000000E+00 0. -1.
        -24    2    1    2    0    0  0.23311804369E+02  0.53608584793E+02  0.39990246399E+03  0.41257395260E+03  0.82933497882E+02 0.  0.
         23    2    1    2    0    0 -0.72775005510E+02  0.12533807925E+00  0.47967715660E+02  0.12581029368E+03  0.90725471147E+02 0.  0.
         13    1    3    3    0    0  0.51674565834E+02  0.20962705148E+02  0.26878524284E+03  0.27450902085E+03  0.00000000000E+00 0. -1.
        -14    1    3    3    0    0 -0.28362761465E+02  0.32645879644E+02  0.13111722115E+03  0.13806493175E+03  0.00000000000E+00 0.  1.
        -11    1    4    4    0    0 -0.20514467476E+02 -0.41735440011E+02  0.62600312229E+01  0.46924176281E+02  0.00000000000E+00 0.  1.
         11    1    4    4    0    0 -0.52260538034E+02  0.41860778090E+02  0.41707684437E+02  0.78886117404E+02  0.00000000000E+00 0. -1.
          2    1    1    2  501    0  0.49463201140E+02 -0.53733922872E+02  0.56901362482E+02  0.92583517899E+02  0.00000000000E+00 0. -1.
<scales pt_clust_5="13000.00000" pt_clust_6="13000.00000" pt_clust_7="13000.00000" pt_clust_8="13000.00000" pt_clust_9="73.03385"></scales>
<clustering>
<clus scale="   73.034">  2  9  1 -1</clus>
<clus scale="   82.933">  5  6 -1 -1</clus>
<clus scale="   90.725">  7  8 -1 -1</clus>
<clus scale="   99.580">  1  5  2 -1</clus>
<clus scale="   73.034">  2  5  1 -1</clus>
</clustering>
</event>
<event>
 9    1  0.3197504E-005  0.1003441E+03  0.7546771E-02  0.1284301E+00
         21   -1    0    0  501  502  0.00000000000E+00  0.00000000000E+00  0.72860777436E+02  0.72860777436E+02  0.00000000000E+00 0.  1.
         -2   -1    0    0    0  501 -0.00000000000E+00 -0.00000000000E+00 -0.38330130390E+03  0.38330130390E+03  0.00000000000E+00 0.  1.
        -24    2    1    2    0    0 -0.35037429110E+02  0.35960513084E+02 -0.27250521308E+03  0.28860709551E+03  0.80710497978E+02 0.  0.
         23    2    1    2    0    0 -0.39191983440E+01 -0.33441227180E+02 -0.68232589232E+02  0.11813949689E+03  0.90374657400E+02 0.  0.
         11    1    3    3    0    0  0.26392167483E+02  0.84804182953E+01 -0.83118163535E+02  0.87619022525E+02  0.00000000000E+00 0. -1.
        -12    1    3    3    0    0 -0.61429596593E+02  0.27480094789E+02 -0.18938704954E+03  0.20098807298E+03  0.00000000000E+00 0.  1.
        -11    1    4    4    0    0 -0.40251773181E+02 -0.76174988453E+01 -0.57220340169E+01  0.41363911882E+02  0.00000000000E+00 0.  1.
         11    1    4    4    0    0  0.36332574837E+02 -0.25823728334E+02 -0.62510555215E+02  0.76775585004E+02  0.00000000000E+00 0. -1.
         -1    1    1    2    0  502  0.38956627454E+02 -0.25192859041E+01  0.30297275843E+02  0.49415488944E+02  0.00000000000E+00 0.  1.
<scales pt_clust_5="13000.00000" pt_clust_6="13000.00000" pt_clust_7="13000.00000" pt_clust_8="13000.00000" pt_clust_9="39.03800"></scales>
<clustering>
<clus scale="   39.038">  1  9  2 -1</clus>
<clus scale="   80.710">  5  6 -1 -1</clus>
<clus scale="   90.375">  7  8 -1 -1</clus>
<clus scale="   91.736">  2  5  1 -1</clus>
<clus scale="   39.038">  1  5  2 -1</clus>
</clustering>
</event>
<event>
 9    1  0.3197504E-005  0.1438226E+03  0.7546771E-02  0.1211605E+00
          1   -1    0    0  502    0 -0.00000000000E+00  0.00000000000E+00  0.13798038191E+03  0.13798038191E+03  0.00000000000E+00 0. -1.
         21   -1    0    0  501  502  0.00000000000E+00 -0.00000000000E+00 -0.28533502171E+03  0.28533502171E+03  0.00000000000E+00 0.  1.
         23    2    1    2    0    0  0.24483038804E+02 -0.97087374221E+02 -0.33688630331E+02  0.13921224152E+03  0.90662820119E+02 0.  0.
        -24    2    1    2    0    0 -0.80933105353E+02  0.11586983841E+03 -0.14611021395E+03  0.21633873648E+03  0.74015317915E+02 0.  0.
         13    1    4    4    0    0 -0.67324415035E+02  0.60539095526E+02 -0.46989703795E+02  0.10200779975E+03  0.00000000000E+00 0. -1.
        -14    1    4    4    0    0 -0.13608690319E+02  0.55330742882E+02 -0.99120510158E+02  0.11433093673E+03  0.00000000000E+00 0.  1.
        -11    1    3    3    0    0  0.42498928201E+02 -0.36203447634E+02  0.16568788462E+02  0.58235498366E+02  0.00000000000E+00 0.  1.
         11    1    3    3    0    0 -0.18015889396E+02 -0.60883926587E+02 -0.50257418793E+02  0.80976743150E+02  0.00000000000E+00 0. -1.
          2    1    1    2  501    0  0.56450066549E+02 -0.18782464186E+02  0.32444204484E+02  0.67764425615E+02  0.00000000000E+00 0. -1.
<scales pt_clust_5="13000.00000" pt_clust_6="13000.00000" pt_clust_7="13000.00000" pt_clust_8="13000.00000" pt_clust_9="59.49281"></scales>
<clustering>
<clus scale="   59.493">  2  9  1 -1</clus>
<clus scale="   74.015">  5  6 -1 -1</clus>
<clus scale="   90.663">  7  8 -1 -1</clus>
<clus scale="  133.953">  2  5  1 -1</clus>
<clus scale="   59.493">  2  5  1 -1</clus>
</clustering>
</event>
<event>
 9    1  0.3197504E-005  0.1039647E+03  0.7546771E-02  0.1275882E+00
         21   -1    0    0  501  502  0.00000000000E+00  0.00000000000E+00  0.43552090098E+03  0.43552090098E+03  0.00000000000E+00 0. -1.
          1   -1    0    0  502    0 -0.00000000000E+00 -0.00000000000E+00 -0.47242868303E+02  0.47242868303E+02  0.00000000000E+00 0. -1.
        -24    2    1    2    0    0 -0.38153674181E+02 -0.39949761797E+02  0.33270765863E+02  0.10401299573E+03  0.81609270907E+02 0.  0.
         23    2    1    2    0    0  0.39403742445E+02  0.19337317933E+02  0.21424024298E+03  0.23647712697E+03  0.89977569901E+02 0.  0.
         13    1    3    3    0    0 -0.42897758551E+02 -0.36312068143E+02 -0.12728920428E+02  0.57626464379E+02  0.00000000000E+00 0. -1.
        -14    1    3    3    0    0  0.47440843703E+01 -0.36376936540E+01  0.45999686292E+02  0.46386531349E+02  0.00000000000E+00 0.  1.
        -13    1    4    4    0    0  0.19789829730E+01  0.30658071629E+02  0.16429325819E+02  0.34839007973E+02  0.00000000000E+00 0.  1.
         13    1    4    4    0    0  0.37424759472E+02 -0.11320753696E+02  0.19781091716E+03  0.20163811900E+03  0.00000000000E+00 0. -1.
          2    1    1    2  501    0 -0.12500682641E+01  0.20612443864E+02  0.14076702384E+03  0.14227364659E+03  0.00000000000E+00 0. -1.
<scales pt_clust_5="13000.00000" pt_clust_6="13000.00000" pt_clust_7="13000.00000" pt_clust_8="13000.00000" pt_clust_9="20.65032"></scales>
<clustering>
<clus scale="   20.650">  1  9  2 -1</clus>
<clus scale="   81.609">  5  6 -1 -1</clus>
<clus scale="   89.978">  7  8 -1 -1</clus>
<clus scale="   96.813">  2  5  1 -1</clus>
<clus scale="   20.650">  1  5  2 -1</clus>
</clustering>
</event>
<event>
 9    1  0.3197504E-005  0.1625496E+03  0.7546771E-02  0.1212385E+00
         21   -1    0    0  501  502  0.00000000000E+00  0.00000000000E+00  0.10644208988E+03  0.10644208988E+03  0.00000000000E+00 0. -1.
          1   -1    0    0  502    0 -0.00000000000E+00 -0.00000000000E+00 -0.63360952574E+03  0.63360952574E+03  0.00000000000E+00 0. -1.
        -24    2    1    2    0    0  0.40776027279E+02 -0.19393592647E+02 -0.39523693791E+03  0.40563528310E+03  0.79302900148E+02 0.  0.
         23    2    1    2    0    0  0.30710384004E+02  0.13722269307E+03 -0.98554949612E+02  0.19261389554E+03  0.87257317651E+02 0.  0.
         13    1    3    3    0    0  0.33127169770E+02 -0.49227516287E+02 -0.28876877071E+03  0.29480190073E+03  0.00000000000E+00 0. -1.
        -14    1    3    3    0    0  0.76488575091E+01  0.29833923639E+02 -0.10646816720E+03  0.11083338237E+03  0.00000000000E+00 0.  1.
        -13    1    4    4    0    0 -0.25681351733E+02  0.71910379315E+02 -0.28628573996E+02  0.81548940699E+02  0.00000000000E+00 0.  1.
         13    1    4    4    0    0  0.56391735737E+02  0.65312313757E+02 -0.69926375616E+02  0.11106495484E+03  0.00000000000E+00 0. -1.
          2    1    1    2  501    0 -0.71486411283E+02 -0.11782910042E+03 -0.33375548340E+02  0.14180243698E+03  0.00000000000E+00 0. -1.
<scales pt_clust_5="13000.00000" pt_clust_6="13000.00000" pt_clust_7="13000.00000" pt_clust_8="13000.00000" pt_clust_9="137.14420"></scales>
<clustering>
<clus scale="   79.303">  5  6 -1 -1</clus>
<clus scale="   87.257">  7  8 -1 -1</clus>
<clus scale="   91.256">  2  5  1 -1</clus>
<clus scale="  137.144">  1  9  2 -1</clus>
<clus scale="  137.144">  1  5  2 -1</clus>
</clustering>
</event>
<event>
 9    1  0.3197504E-005  0.1319440E+03  0.7546771E-02  0.1227085E+00
         21   -1    0    0  501  502  0.00000000000E+00  0.00000000000E+00  0.98944459266E+03  0.98944459266E+03  0.00000000000E+00 0. -1.
          1   -1    0    0  502    0 -0.00000000000E+00 -0.00000000000E+00 -0.25936175477E+02  0.25936175477E+02  0.00000000000E+00 0. -1.
         23    2    1    2    0    0  0.26254349288E+02 -0.10067333058E+03  0.42425943700E+03  0.44612698316E+03  0.90602455133E+02 0.  0.
        -24    2    1    2    0    0 -0.27453699959E+01  0.87233920456E+02  0.52572767038E+03  0.53898638221E+03  0.80619122200E+02 0.  0.
         13    1    4    4    0    0  0.33711360501E+02  0.70006254196E+02  0.37448322422E+03  0.38245916995E+03  0.00000000000E+00 0. -1.
        -14    1    4    4    0    0 -0.36456730497E+02  0.17227666260E+02  0.15124444616E+03  0.15652721226E+03  0.00000000000E+00 0.  1.
        -11    1    3    3    0    0 -0.13308540892E+01 -0.10904667866E+03  0.34152127911E+03  0.35851043693E+03  0.00000000000E+00 0. -1.
         11    1    3    3    0    0  0.27585203378E+02  0.83733480832E+01  0.82738157884E+02  0.87616546231E+02  0.00000000000E+00 0.  1.
          2    1    1    2  501    0 -0.23508979292E+02  0.13439410120E+02  0.13521309805E+02  0.30267402772E+02  0.00000000000E+00 0. -1.
<scales pt_clust_5="13000.00000" pt_clust_6="13000.00000" pt_clust_7="13000.00000" pt_clust_8="13000.00000" pt_clust_9="27.07934"></scales>
<clustering>
<clus scale="   27.079">  1  9  2 -1</clus>
<clus scale="   80.619">  5  6 -1 -1</clus>
<clus scale="   90.602">  7  8 -1 -1</clus>
<clus scale="  125.299">  1  5  2 -1</clus>
<clus scale="   27.079">  1  5  2 -1</clus>
</clustering>
</event>
<event>
 9    1  0.3197504E-005  0.9434366E+02  0.7546771E-02  0.1297209E+00
          1   -1    0    0  502    0 -0.00000000000E+00  0.00000000000E+00  0.33435384853E+03  0.33435384853E+03  0.00000000000E+00 0. -1.
         21   -1    0    0  501  502  0.00000000000E+00 -0.00000000000E+00 -0.56105006487E+02  0.56105006487E+02  0.00000000000E+00 0.  1.
         23    2    1    2    0    0 -0.18811892586E+02 -0.11589441543E+02  0.94117549782E+02  0.13288100837E+03  0.91164942551E+02 0.  0.
        -24    2    1    2    0    0 -0.99741531271E+01  0.42412111491E+02  0.31277610434E+02  0.99012650407E+02  0.83228271004E+02 0.  0.
         13    1    4    4    0    0  0.28553429020E+02  0.16414062214E+02 -0.12438236125E+02  0.35205531739E+02  0.00000000000E+00 0. -1.
        -14    1    4    4    0    0 -0.38527582147E+02  0.25998049277E+02  0.43715846559E+02  0.63807118667E+02  0.00000000000E+00 0.  1.
        -11    1    3    3    0    0  0.15912983820E+02 -0.37361136180E+02  0.75647701368E+02  0.85858326753E+02  0.00000000000E+00 0.  1.
         11    1    3    3    0    0 -0.34724876406E+02  0.25771694637E+02  0.18469848414E+02  0.47022681616E+02  0.00000000000E+00 0. -1.
          2    1    1    2  501    0  0.28786045713E+02 -0.30822669948E+02  0.15285368182E+03  0.15856519624E+03  0.00000000000E+00 0. -1.
<scales pt_clust_5="13000.00000" pt_clust_6="13000.00000" pt_clust_7="13000.00000" pt_clust_8="13000.00000" pt_clust_9="42.17434"></scales>
<clustering>
<clus scale="   42.174">  2  9  1 -1</clus>
<clus scale="   83.228">  5  6 -1 -1</clus>
<clus scale="   86.698">  2  5  1 -1</clus>
<clus scale="   91.165">  7  8 -1 -1</clus>
<clus scale="   42.174">  2  5  1 -1</clus>
</clustering>
</event>
<event>
 9    1  0.3197504E-005  0.1396864E+03  0.7546771E-02  0.1234977E+00
         21   -1    0    0  501  502  0.00000000000E+00  0.00000000000E+00  0.44059511450E+02  0.44059511450E+02  0.00000000000E+00 0.  1.
          1   -1    0    0  502    0 -0.00000000000E+00 -0.00000000000E+00 -0.81852666744E+03  0.81852666744E+03  0.00000000000E+00 0. -1.
        -24    2    1    2    0    0  0.33640665657E+02  0.21652945116E+02 -0.10627675072E+03  0.13909825511E+03  0.80330768791E+02 0.  0.
         23    2    1    2    0    0  0.92393325297E+02 -0.11028638053E+02 -0.20949716461E+03  0.24767605780E+03  0.93788113370E+02 0.  0.
         13    1    3    3    0    0  0.47149049037E+01  0.35248106607E+02 -0.10051662370E+03  0.10662200049E+03  0.00000000000E+00 0. -1.
        -14    1    3    3    0    0  0.28925760753E+02 -0.13595161492E+02 -0.57601270121E+01  0.32476254623E+02  0.00000000000E+00 0.  1.
        -11    1    4    4    0    0  0.84055615020E+02  0.27529022773E+02 -0.11353263784E+03  0.14391960730E+03  0.00000000000E+00 0.  1.
         11    1    4    4    0    0  0.83377102780E+01 -0.38557660826E+02 -0.95964526772E+02  0.10375645050E+03  0.00000000000E+00 0. -1.
          2    1    1    2  501    0 -0.12603399095E+03 -0.10624307062E+02 -0.45869324066E+03  0.47581186597E+03  0.00000000000E+00 0. -1.
<scales pt_clust_5="13000.00000" pt_clust_6="13000.00000" pt_clust_7="13000.00000" pt_clust_8="13000.00000" pt_clust_9="103.51858"></scales>
<clustering>
<clus scale="   80.331">  5  6 -1 -1</clus>
<clus scale="   89.742">  2  5  1 -1</clus>
<clus scale="   93.788">  7  8 -1 -1</clus>
<clus scale="  103.519">  1  9  2 -1</clus>
<clus scale="  103.519">  1  5  2 -1</clus>
</clustering>
</event>
<event>
 9    1  0.3365351E-005  0.9877483E+02  0.7546771E-02  0.1296055E+00
          1   -1    0    0  502    0 -0.00000000000E+00  0.00000000000E+00  0.34239465206E+03  0.34239465206E+03  0.00000000000E+00 0. -1.
         21   -1    0    0  501  502  0.00000000000E+00 -0.00000000000E+00 -0.21698111153E+03  0.21698111153E+03  0.00000000000E+00 0. -1.
         23    2    1    2    0    0 -0.38292682608E+02  0.59497732903E+01  0.29884658817E+03  0.31492338545E+03  0.91464343337E+02 0.  0.
        -24    2    1    2    0    0 -0.30583056087E+01 -0.42598326163E+02 -0.17144279789E+03  0.18916239940E+03  0.67570776027E+02 0.  0.
         11    1    4    4    0    0  0.43230888517E+01 -0.57273300420E+02 -0.15739747445E+03  0.16754964936E+03  0.00000000000E+00 0. -1.
        -12    1    4    4    0    0 -0.73813944604E+01  0.14674974257E+02 -0.14045323441E+02  0.21612750038E+02  0.00000000000E+00 0.  1.
        -13    1    3    3    0    0  0.24649694393E+02 -0.15694382061E+02  0.13394502530E+03  0.13709555377E+03  0.00000000000E+00 0.  1.
         13    1    3    3    0    0 -0.62942377001E+02  0.21644155351E+02  0.16490156287E+03  0.17782783168E+03  0.00000000000E+00 0. -1.
          2    1    1    2  501    0  0.41350988217E+02  0.36648552873E+02 -0.19902497524E+01  0.55289978732E+02  0.00000000000E+00 0. -1.
<scales pt_clust_5="13000.00000" pt_clust_6="13000.00000" pt_clust_7="13000.00000" pt_clust_8="13000.00000" pt_clust_9="55.25415"></scales>
<clustering>
<clus scale="   55.254">  2  9  1 -1</clus>
<clus scale="   67.571">  5  6 -1 -1</clus>
<clus scale="   77.179">  2  5  1 -1</clus>
<clus scale="   91.464">  7  8 -1 -1</clus>
<clus scale="   55.254">  2  5  1 -1</clus>
</clustering>
</event>
<event>
 9    1  0.3197504E-005  0.1142704E+03  0.7546771E-02  0.1264652E+00
         21   -1    0    0  501  502  0.00000000000E+00  0.00000000000E+00  0.18545997543E+03  0.18545997543E+03  0.00000000000E+00 0. -1.
          1   -1    0    0  502    0 -0.00000000000E+00 -0.00000000000E+00 -0.10102539333E+03  0.10102539333E+03  0.00000000000E+00 0. -1.
        -24    2    1    2    0    0 -0.44071122909E+02 -0.26899348339E+02 -0.50712034070E+01  0.95912517359E+02  0.80670038221E+02 0.  0.
         23    2    1    2    0    0  0.22481037371E+02 -0.13697484042E+02  0.93792773670E+02  0.14439262987E+03  0.10657921494E+03 0.  0.
         13    1    3    3    0    0 -0.26041110609E+01 -0.23745200679E+02 -0.36613552329E+02  0.43716909358E+02  0.00000000000E+00 0. -1.
        -14    1    3    3    0    0 -0.41467011848E+02 -0.31541476602E+01  0.31542348922E+02  0.52195608001E+02  0.00000000000E+00 0.  1.
        -13    1    4    4    0    0  0.16976530591E+02  0.29028589110E+02  0.95532391143E+02  0.10127832608E+03  0.00000000000E+00 0. -1.
         13    1    4    4    0    0  0.55045067802E+01 -0.42726073152E+02 -0.17396174727E+01  0.43114303785E+02  0.00000000000E+00 0.  1.
          2    1    1    2  501    0  0.21590085538E+02  0.40596832381E+02 -0.42869881641E+01  0.46180221528E+02  0.00000000000E+00 0. -1.
<scales pt_clust_5="13000.00000" pt_clust_6="13000.00000" pt_clust_7="13000.00000" pt_clust_8="13000.00000" pt_clust_9="45.98083"></scales>
<clustering>
<clus scale="   45.981">  1  9  2 -1</clus>
<clus scale="   80.670">  5  6 -1 -1</clus>
<clus scale="   90.588">  2  5  1 -1</clus>
<clus scale="  106.579">  7  8 -1 -1</clus>
<clus scale="   45.981">  1  5  2 -1</clus>
</clustering>
</event>
<event>
 9    1  0.3197504E-005  0.9473073E+02  0.7546771E-02  0.1296395E+00
         -2   -1    0    0    0  501 -0.00000000000E+00  0.00000000000E+00  0.26042317315E+03  0.26042317315E+03  0.00000000000E+00 0.  1.
         21   -1    0    0  501  502  0.00000000000E+00 -0.00000000000E+00 -0.95275747191E+02  0.95275747191E+02  0.00000000000E+00 0. -1.
         23    2    1    2    0    0  0.35461477004E+02 -0.21741159801E+02  0.16667910509E+03  0.19451424122E+03  0.91234157993E+02 0.  0.
        -24    2    1    2    0    0  0.12660458890E+02 -0.31060015937E+02  0.20706812133E+01  0.89653833509E+02  0.83117449028E+02 0.  0.
         13    1    4    4    0    0  0.14969538705E+02 -0.22640328711E+02 -0.39083642087E+02  0.47583638491E+02  0.00000000000E+00 0. -1.
        -14    1    4    4    0    0 -0.23090798152E+01 -0.84196872259E+01  0.41154323301E+02  0.42070195019E+02  0.00000000000E+00 0.  1.
        -13    1    3    3    0    0 -0.21860007145E+02 -0.71008491381E+01  0.11071875676E+03  0.11307928665E+03  0.00000000000E+00 0. -1.
         13    1    3    3    0    0  0.57321484149E+02 -0.14640310663E+02  0.55960348330E+02  0.81434954575E+02  0.00000000000E+00 0.  1.
         -1    1    1    2    0  502 -0.48121935894E+02  0.52801175739E+02 -0.36023603413E+01  0.71530845609E+02  0.00000000000E+00 0.  1.
<scales pt_clust_5="13000.00000" pt_clust_6="13000.00000" pt_clust_7="13000.00000" pt_clust_8="13000.00000" pt_clust_9="71.44008"></scales>
<clustering>
<clus scale="   71.440">  2  9  1 -1</clus>
<clus scale="   83.117">  5  6 -1 -1</clus>
<clus scale="   86.941">  2  5  1 -1</clus>
<clus scale="   91.234">  7  8 -1 -1</clus>
<clus scale="   71.440">  2  5  1 -1</clus>
</clustering>
</event>
<event>
 9    1  0.3197504E-005  0.1089388E+03  0.7546771E-02  0.1272576E+00
          1   -1    0    0  502    0 -0.00000000000E+00  0.00000000000E+00  0.26495268128E+03  0.26495268128E+03  0.00000000000E+00 0. -1.
         21   -1    0    0  501  502  0.00000000000E+00 -0.00000000000E+00 -0.12107057372E+03  0.12107057372E+03  0.00000000000E+00 0. -1.
        -24    2    1    2    0    0  0.37114138508E+02 -0.40357420009E+02  0.16963997750E+03  0.19037929685E+03  0.66786032046E+02 0.  0.
         23    2    1    2    0    0 -0.80601710588E+02  0.40303575567E+02  0.23176468437E+02  0.13017838479E+03  0.91039822182E+02 0.  0.
         11    1    3    3    0    0  0.30481915281E+02  0.12347095051E+02  0.56142081893E+02  0.65065592095E+02  0.00000000000E+00 0. -1.
        -12    1    3    3    0    0  0.66322232268E+01 -0.52704515059E+02  0.11349789561E+03  0.12531370476E+03  0.00000000000E+00 0.  1.
        -11    1    4    4    0    0 -0.57820007117E+01  0.39773992430E+02  0.36367045610E+02  0.54202988962E+02  0.00000000000E+00 0.  1.
         11    1    4    4    0    0 -0.74819709877E+02  0.52958313777E+00 -0.13190577174E+02  0.75975395823E+02  0.00000000000E+00 0. -1.
          2    1    1    2  501    0  0.43487572081E+02  0.53844441110E-01 -0.48934338375E+02  0.65465573372E+02  0.00000000000E+00 0. -1.
<scales pt_clust_5="13000.00000" pt_clust_6="13000.00000" pt_clust_7="13000.00000" pt_clust_8="13000.00000" pt_clust_9="43.48761"></scales>
<clustering>
<clus scale="   43.488">  2  9  1 -1</clus>
<clus scale="   66.786">  5  6 -1 -1</clus>
<clus scale="   89.665">  1  5  2 -1</clus>
<clus scale="   91.040">  7  8 -1 -1</clus>
<clus scale="   43.488">  2  5  1 -1</clus>
</clustering>
</event>
<event>
 9    1  0.3197504E-005  0.1284834E+03  0.7546771E-02  0.1243213E+00
         21   -1    0    0  501  502  0.00000000000E+00  0.00000000000E+00  0.68037698433E+02  0.68037698433E+02  0.00000000000E+00 0.  1.
          1   -1    0    0  502    0 -0.00000000000E+00 -0.00000000000E+00 -0.95001066111E+03  0.95001066111E+03  0.00000000000E+00 0. -1.
         23    2    1    2    0    0 -0.29850330112E+02 -0.14160451043E+02 -0.74384662232E+01  0.97819608912E+02  0.91770281281E+02 0.  0.
        -24    2    1    2    0    0  0.11472668073E+02 -0.87570267691E+02 -0.74499621181E+03  0.75449690462E+03  0.80287293896E+02 0.  0.
         13    1    4    4    0    0  0.29932937794E+02 -0.81953191157E+02 -0.42200583324E+03  0.43093065520E+03  0.00000000000E+00 0. -1.
        -14    1    4    4    0    0 -0.18460269721E+02 -0.56170765335E+01 -0.32299037858E+03  0.32356624941E+03  0.00000000000E+00 0.  1.
        -13    1    3    3    0    0  0.53612816558E+01 -0.19606716476E+02 -0.42948517586E+02  0.47515700930E+02  0.00000000000E+00 0. -1.
         13    1    3    3    0    0 -0.35211611768E+02  0.54462654335E+01  0.35510051363E+02  0.50303907982E+02  0.00000000000E+00 0.  1.
          2    1    1    2  501    0  0.18377662039E+02  0.10173071873E+03 -0.12953828464E+03  0.16573184602E+03  0.00000000000E+00 0. -1.
<scales pt_clust_5="13000.00000" pt_clust_6="13000.00000" pt_clust_7="13000.00000" pt_clust_8="13000.00000" pt_clust_9="100.30916"></scales>
<clustering>
<clus scale="   80.287">  5  6 -1 -1</clus>
<clus scale="   91.770">  7  8 -1 -1</clus>
<clus scale="   97.536">  2  7  1 -1</clus>
<clus scale="  100.309">  1  9  2 -1</clus>
<clus scale="  100.309">  1  5  2 -1</clus>
</clustering>
</event>
<event>
 9    1  0.3197504E-005  0.2827701E+03  0.7546771E-02  0.1094524E+00
          1   -1    0    0  502    0 -0.00000000000E+00  0.00000000000E+00  0.18391536404E+04  0.18391536404E+04  0.00000000000E+00 0. -1.
         21   -1    0    0  501  502  0.00000000000E+00 -0.00000000000E+00 -0.64808991374E+02  0.64808991374E+02  0.00000000000E+00 0.  1.
         23    2    1    2    0    0  0.26842115305E+03 -0.67424395768E+02  0.13650216056E+04  0.13955346594E+04  0.87390144532E+02 0.  0.
        -24    2    1    2    0    0 -0.24000194895E+03  0.66611130712E+02  0.40133842701E+03  0.47889719752E+03  0.78943109663E+02 0.  0.
         13    1    4    4    0    0 -0.16191628583E+03  0.14794426044E+02  0.20767580206E+03  0.26375177235E+03  0.00000000000E+00 0. -1.
        -14    1    4    4    0    0 -0.78085663125E+02  0.51816704668E+02  0.19366262495E+03  0.21514542517E+03  0.00000000000E+00 0.  1.
        -11    1    3    3    0    0  0.10218079097E+03 -0.11699068909E+02  0.32647202908E+03  0.34228901242E+03  0.00000000000E+00 0.  1.
         11    1    3    3    0    0  0.16624036208E+03 -0.55725326859E+02  0.10385495765E+04  0.10532456470E+04  0.00000000000E+00 0. -1.
          2    1    1    2  501    0 -0.28419204099E+02  0.81326505538E+00  0.79846164002E+01  0.29530774808E+02  0.00000000000E+00 0. -1.
<scales pt_clust_5="13000.00000" pt_clust_6="13000.00000" pt_clust_7="13000.00000" pt_clust_8="13000.00000" pt_clust_9="28.43084"></scales>
<clustering>
<clus scale="   28.431">  2  9  1 -1</clus>
<clus scale="   78.943">  5  6 -1 -1</clus>
<clus scale="   87.390">  7  8 -1 -1</clus>
<clus scale="  280.275">  2  5  1 -1</clus>
<clus scale="   28.431">  2  5  1 -1</clus>
</clustering>
</event>
<event>
 9    1  0.3197504E-005  0.9737939E+02  0.7546771E-02  0.1291258E+00
         -2   -1    0    0    0  501 -0.00000000000E+00  0.00000000000E+00  0.10930978016E+04  0.10930978016E+04  0.00000000000E+00 0.  1.
         21   -1    0    0  501  502  0.00000000000E+00 -0.00000000000E+00 -0.19185032423E+02  0.19185032423E+02  0.00000000000E+00 0.  1.
        -24    2    1    2    0    0 -0.34860864677E+02 -0.20986677654E+02  0.88203833657E+03  0.88656792115E+03  0.79720330526E+02 0.  0.
         23    2    1    2    0    0  0.11107378444E+02  0.20237718195E+02  0.16855032022E+03  0.19241621521E+03  0.89899111981E+02 0.  0.
         11    1    3    3    0    0  0.20004407704E+02 -0.18356395134E+01  0.82112545110E+02  0.84534111248E+02  0.00000000000E+00 0. -1.
        -12    1    3    3    0    0 -0.54865272381E+02 -0.19151038141E+02  0.79992579146E+03  0.80203380990E+03  0.00000000000E+00 0.  1.
        -13    1    4    4    0    0  0.35499091865E+02  0.18857723132E+02  0.16229293588E+03  0.16719687880E+03  0.00000000000E+00 0. -1.
         13    1    4    4    0    0 -0.24391713421E+02  0.13799950627E+01  0.62573843422E+01  0.25219336407E+02  0.00000000000E+00 0.  1.
         -1    1    1    2    0  502  0.23753486233E+02  0.74895945910E+00  0.23324112414E+02  0.33298697698E+02  0.00000000000E+00 0.  1.
<scales pt_clust_5="13000.00000" pt_clust_6="13000.00000" pt_clust_7="13000.00000" pt_clust_8="13000.00000" pt_clust_9="23.76529"></scales>
<clustering>
<clus scale="   23.765">  2  9  1 -1</clus>
<clus scale="   79.720">  5  6 -1 -1</clus>
<clus scale="   88.069">  1  5  2 -1</clus>
<clus scale="   89.899">  7  8 -1 -1</clus>
<clus scale="   23.765">  2  5  1 -1</clus>
</clustering>
</event>
<event>
 9    1  0.3197504E-005  0.1288156E+03  0.7546771E-02  0.1246941E+00
         21   -1    0    0  501  502  0.00000000000E+00  0.00000000000E+00  0.18319279866E+03  0.18319279866E+03  0.00000000000E+00 0.  1.
          1   -1    0    0  502    0 -0.00000000000E+00 -0.00000000000E+00 -0.15249794140E+03  0.15249794140E+03  0.00000000000E+00 0. -1.
        -24    2    1    2    0    0  0.66715695326E+02 -0.31156245095E+02 -0.68211416685E+00  0.10629350360E+03  0.76656037054E+02 0.  0.
         23    2    1    2    0    0  0.69082279185E+01 -0.15128814154E+01  0.70990187837E+02  0.13963666151E+03  0.12003656962E+03 0.  0.
         11    1    3    3    0    0  0.52158846804E+02  0.11616446719E+02  0.19400396191E+02  0.56849472352E+02  0.00000000000E+00 0. -1.
        -12    1    3    3    0    0  0.14556848522E+02 -0.42772691814E+02 -0.20082510358E+02  0.49444031249E+02  0.00000000000E+00 0.  1.
        -11    1    4    4    0    0 -0.13159121670E+02 -0.45888162255E+02 -0.64334854453E+01  0.48169239699E+02  0.00000000000E+00 0. -1.
         11    1    4    4    0    0  0.20067349589E+02  0.44375280839E+02  0.77423673282E+02  0.91467421815E+02  0.00000000000E+00 0.  1.
          2    1    1    2  501    0 -0.73623923245E+02  0.32669126511E+02 -0.39613216411E+02  0.89760574950E+02  0.00000000000E+00 0. -1.
<scales pt_clust_5="13000.00000" pt_clust_6="13000.00000" pt_clust_7="13000.00000" pt_clust_8="13000.00000" pt_clust_9="80.54663"></scales>
<clustering>
<clus scale="   76.656">  5  6 -1 -1</clus>
<clus scale="   80.547">  1  9  2 -1</clus>
<clus scale="   89.782">  2  5  1 -1</clus>
<clus scale="  120.037">  7  8 -1 -1</clus>
<clus scale="   80.547">  1  5  2 -1</clus>
</clustering>
</event>
<event>
 9    1  0.3197504E-005  0.1073457E+03  0.7546771E-02  0.1270060E+00
         21   -1    0    0  501  502  0.00000000000E+00  0.00000000000E+00  0.16220793078E+03  0.16220793078E+03  0.00000000000E+00 0. -1.
         -2   -1    0    0    0  501 -0.00000000000E+00 -0.00000000000E+00 -0.75756105076E+03  0.75756105076E+03  0.00000000000E+00 0.  1.
        -24    2    1    2    0    0  0.22009571822E+02  0.54392857764E+02 -0.72315216811E+03  0.72980469657E+03  0.78884933047E+02 0.  0.
         23    2    1    2    0    0 -0.42683492412E+02 -0.51207228485E+02  0.12671056009E+03  0.16901806736E+03  0.89819153201E+02 0.  0.
         13    1    3    3    0    0  0.17149736638E+02  0.26441146444E+02 -0.79376722890E+02  0.85404401694E+02  0.00000000000E+00 0. -1.
        -14    1    3    3    0    0  0.48598351845E+01  0.27951711319E+02 -0.64377544522E+03  0.64440029487E+03  0.00000000000E+00 0.  1.
        -11    1    4    4    0    0  0.86628887140E+01 -0.28808233039E+02 -0.42742744265E+00  0.30085588343E+02  0.00000000000E+00 0.  1.
         11    1    4    4    0    0 -0.51346381126E+02 -0.22398995446E+02  0.12713798753E+03  0.13893247901E+03  0.00000000000E+00 0. -1.
         -1    1    1    2    0  502  0.20673920590E+02 -0.31856292788E+01  0.10884880449E+01  0.20946217622E+02  0.00000000000E+00 0.  1.
<scales pt_clust_5="13000.00000" pt_clust_6="13000.00000" pt_clust_7="13000.00000" pt_clust_8="13000.00000" pt_clust_9="20.91792"></scales>
<clustering>
<clus scale="   20.918">  1  9  2 -1</clus>
<clus scale="   78.885">  5  6 -1 -1</clus>
<clus scale="   89.819">  7  8 -1 -1</clus>
<clus scale="   98.379">  2  5  1 -1</clus>
<clus scale="   20.918">  1  5  2 -1</clus>
</clustering>
</event>
<event>
 9    1  0.3197504E-005  0.2685432E+03  0.7546771E-02  0.1148960E+00
         21   -1    0    0  501  502  0.00000000000E+00  0.00000000000E+00  0.57484348915E+02  0.57484348915E+02  0.00000000000E+00 0. -1.
          1   -1    0    0  502    0 -0.00000000000E+00 -0.00000000000E+00 -0.18400291764E+04  0.18400291764E+04  0.00000000000E+00 0. -1.
        -24    2    1    2    0    0 -0.75588973818E+01  0.21406910804E+02 -0.27863621364E+03  0.29106857919E+03  0.81039406970E+02 0.  0.
         23    2    1    2    0    0  0.24198705262E+03 -0.87330494454E+02 -0.46282406385E+03  0.53725856429E+03  0.90864194975E+02 0.  0.
         13    1    3    3    0    0  0.35540217158E+02  0.23186575366E+01 -0.14681076825E+03  0.15106913941E+03  0.00000000000E+00 0. -1.
        -14    1    3    3    0    0 -0.43099114539E+02  0.19088253267E+02 -0.13182544539E+03  0.13999943978E+03  0.00000000000E+00 0.  1.
        -13    1    4    4    0    0  0.82578022363E+02 -0.28802338940E+02 -0.25081424586E+03  0.26562471729E+03  0.00000000000E+00 0.  1.
         13    1    4    4    0    0  0.15940903026E+03 -0.58528155514E+02 -0.21200981798E+03  0.27163384700E+03  0.00000000000E+00 0. -1.
          2    1    1    2  501    0 -0.23442815524E+03  0.65923583650E+02 -0.10410845500E+04  0.10691863818E+04  0.00000000000E+00 0. -1.
<scales pt_clust_5="13000.00000" pt_clust_6="13000.00000" pt_clust_7="13000.00000" pt_clust_8="13000.00000" pt_clust_9="252.70384"></scales>
<clustering>
<clus scale="   81.039">  5  6 -1 -1</clus>
<clus scale="   84.159">  2  5  1 -1</clus>
<clus scale="   90.864">  7  8 -1 -1</clus>
<clus scale="  252.704">  1  9  2 -1</clus>
<clus scale="  252.704">  1  5  2 -1</clus>
</clustering>
</event>
<event>
 9    1  0.3197504E-005  0.2259926E+03  0.7546771E-02  0.1133210E+00
         -2   -1    0    0    0  501 -0.00000000000E+00  0.00000000000E+00  0.10429711171E+04  0.10429711171E+04  0.00000000000E+00 0.  1.
         21   -1    0    0  501  502  0.00000000000E+00 -0.00000000000E+00 -0.13269449745E+03  0.13269449745E+03  0.00000000000E+00 0.  1.
        -24    2    1    2    0    0  0.12066920606E+03  0.14859672464E+03  0.82342139899E+03  0.84913882520E+03  0.79824183562E+02 0.  0.
         23    2    1    2    0    0 -0.59140246984E+02 -0.18583276037E+03  0.10424175463E+03  0.25253606882E+03  0.12197023819E+03 0.  0.
         11    1    3    3    0    0  0.81723975048E+02  0.39256040575E+02  0.32771613695E+03  0.34002604494E+03  0.00000000000E+00 0. -1.
        -12    1    3    3    0    0  0.38945231010E+02  0.10934068407E+03  0.49570526204E+03  0.50911278026E+03  0.00000000000E+00 0.  1.
        -11    1    4    4    0    0  0.78816206306E+01 -0.12784026533E+03  0.10223959470E+03  0.16388467929E+03  0.00000000000E+00 0.  1.
         11    1    4    4    0    0 -0.67021867614E+02 -0.57992495048E+02  0.20021599319E+01  0.88651389525E+02  0.00000000000E+00 0. -1.
         -1    1    1    2    0  502 -0.61528959074E+02  0.37236035734E+02 -0.17386533970E+02  0.73990720536E+02  0.00000000000E+00 0.  1.
<scales pt_clust_5="13000.00000" pt_clust_6="13000.00000" pt_clust_7="13000.00000" pt_clust_8="13000.00000" pt_clust_9="71.91895"></scales>
<clustering>
<clus scale="   71.919">  2  9  1 -1</clus>
<clus scale="   79.824">  5  6 -1 -1</clus>
<clus scale="  121.970">  7  8 -1 -1</clus>
<clus scale="  206.320">  1  5  2 -1</clus>
<clus scale="   71.919">  2  5  1 -1</clus>
</clustering>
</event>
<event>
 9    1  0.3197504E-005  0.1806176E+03  0.7546771E-02  0.1167221E+00
         -2   -1    0    0    0  501 -0.00000000000E+00  0.00000000000E+00  0.16207098775E+03  0.16207098775E+03  0.00000000000E+00 0.  1.
         21   -1    0    0  501  502  0.00000000000E+00 -0.00000000000E+00 -0.73931687804E+03  0.73931687804E+03  0.00000000000E+00 0. -1.
         23    2    1    2    0    0 -0.88628935232E+02 -0.14822009679E+03 -0.27324344311E+02  0.19219615712E+03  0.79802617559E+02 0.  0.
        -24    2    1    2    0    0  0.43177591070E+02  0.93109207132E+02 -0.60510059748E+03  0.61892675107E+03  0.79937233478E+02 0.  0.
         11    1    4    4    0    0  0.61199481705E+02  0.65186261527E+02 -0.51879451449E+03  0.52644313417E+03  0.00000000000E+00 0. -1.
        -12    1    4    4    0    0 -0.18021890635E+02  0.27922945605E+02 -0.86306082991E+02  0.92483616899E+02  0.00000000000E+00 0.  1.
        -13    1    3    3    0    0 -0.30540366465E+02 -0.80708560760E+00  0.35966325924E+01  0.30762008013E+02  0.00000000000E+00 0.  1.
         13    1    3    3    0    0 -0.58088568767E+02 -0.14741301118E+03 -0.30920976903E+02  0.16143414911E+03  0.00000000000E+00 0. -1.
         -1    1    1    2    0  502  0.45451344162E+02  0.55110889656E+02  0.55179051501E+02  0.90264957593E+02  0.00000000000E+00 0.  1.
<scales pt_clust_5="13000.00000" pt_clust_6="13000.00000" pt_clust_7="13000.00000" pt_clust_8="13000.00000" pt_clust_9="71.43557"></scales>
<clustering>
<clus scale="   71.436">  2  9  1 -1</clus>
<clus scale="   79.803">  7  8 -1 -1</clus>
<clus scale="   79.937">  5  6 -1 -1</clus>
<clus scale="  180.558">  1  7  2 -1</clus>
<clus scale="   71.436">  2  5  1 -1</clus>
</clustering>
</event>
<event>
 9    1  0.3197504E-005  0.9793114E+02  0.7546771E-02  0.1289113E+00
         21   -1    0    0  501  502  0.00000000000E+00  0.00000000000E+00  0.12995951454E+03  0.12995951454E+03  0.00000000000E+00 0.  1.
         -4   -1    0    0    0  501 -0.00000000000E+00 -0.00000000000E+00 -0.12704033461E+03  0.12704033461E+03  0.00000000000E+00 0.  1.
         23    2    1    2    0    0  0.31158556123E+02 -0.36592761100E+02 -0.61765589443E+02  0.11906524817E+03  0.89731039768E+02 0.  0.
        -24    2    1    2    0    0 -0.19326244399E+02  0.12913262058E+02  0.21219408985E+02  0.87042953039E+02  0.81153904998E+02 0.  0.
         11    1    4    4    0    0 -0.42263447509E+02  0.21543905983E+02 -0.88451466322E+01  0.48255315762E+02  0.00000000000E+00 0. -1.
        -12    1    4    4    0    0  0.22937203110E+02 -0.86306439254E+01  0.30064555617E+02  0.38787637277E+02  0.00000000000E+00 0.  1.
        -13    1    3    3    0    0 -0.22195534861E+02 -0.27201749022E+02  0.22778873468E+01  0.35181894326E+02  0.00000000000E+00 0. -1.
         13    1    3    3    0    0  0.53354090984E+02 -0.93910120781E+01 -0.64043476790E+02  0.83883353843E+02  0.00000000000E+00 0.  1.
         -3    1    1    2    0  502 -0.11832311724E+02  0.23679499042E+02  0.43465360389E+02  0.50891647933E+02  0.00000000000E+00 0.  1.
<scales pt_clust_5="13000.00000" pt_clust_6="13000.00000" pt_clust_7="13000.00000" pt_clust_8="13000.00000" pt_clust_9="26.47116"></scales>
<clustering>
<clus scale="   26.471">  1  9  2 -1</clus>
<clus scale="   81.154">  5  6 -1 -1</clus>
<clus scale="   89.731">  7  8 -1 -1</clus>
<clus scale="   90.138">  1  5  2 -1</clus>
<clus scale="   26.471">  1  5  2 -1</clus>
</clustering>
</event>
<event>
 9    1  0.3197504E-005  0.9505622E+02  0.7546771E-02  0.1296774E+00
          1   -1    0    0  502    0 -0.00000000000E+00  0.00000000000E+00  0.33898566713E+03  0.33898566713E+03  0.00000000000E+00 0. -1.
         21   -1    0    0  501  502  0.00000000000E+00 -0.00000000000E+00 -0.62899469416E+02  0.62899469416E+02  0.00000000000E+00 0. -1.
        -24    2    1    2    0    0  0.70363143623E+01  0.25059336825E+02  0.21413213642E+03  0.23001134206E+03  0.79844633811E+02 0.  0.
         23    2    1    2    0    0  0.14213667520E+01 -0.43947581074E+02  0.91565953546E+02  0.13574676439E+03  0.90052484846E+02 0.  0.
         11    1    3    3    0    0 -0.31413854894E+02  0.32048571135E+02  0.11177875800E+03  0.12045095239E+03  0.00000000000E+00 0. -1.
        -12    1    3    3    0    0  0.38450169256E+02 -0.69892343104E+01  0.10235337842E+03  0.10956038967E+03  0.00000000000E+00 0.  1.
        -13    1    4    4    0    0 -0.32612020368E+02 -0.15980487845E+02  0.83375195895E+02  0.90941427054E+02  0.00000000000E+00 0. -1.
         13    1    4    4    0    0  0.34033387120E+02 -0.27967093229E+02  0.81907576511E+01  0.44805337332E+02  0.00000000000E+00 0.  1.
          2    1    1    2  501    0 -0.84576811143E+01  0.18888244249E+02 -0.29611892253E+02  0.36127030094E+02  0.00000000000E+00 0. -1.
<scales pt_clust_5="13000.00000" pt_clust_6="13000.00000" pt_clust_7="13000.00000" pt_clust_8="13000.00000" pt_clust_9="20.69537"></scales>
<clustering>
<clus scale="   20.695">  2  9  1 -1</clus>
<clus scale="   79.845">  5  6 -1 -1</clus>
<clus scale="   85.448">  1  5  2 -1</clus>
<clus scale="   90.052">  7  8 -1 -1</clus>
<clus scale="   20.695">  2  5  1 -1</clus>
</clustering>
</event>
<event>
 9    1  0.3197504E-005  0.1096675E+03  0.7546771E-02  0.1264165E+00
         21   -1    0    0  501  502  0.00000000000E+00  0.00000000000E+00  0.89021275924E+02  0.89021275924E+02  0.00000000000E+00 0.  1.
          1   -1    0    0  502    0 -0.00000000000E+00 -0.00000000000E+00 -0.35060142355E+03  0.35060142355E+03  0.00000000000E+00 0. -1.
        -24    2    1    2    0    0 -0.38142390317E+02 -0.37395619206E+02 -0.27361724069E+03  0.29221099481E+03  0.87564814909E+02 0.  0.
         23    2    1    2    0    0  0.32358886373E+02  0.63021009031E+02  0.19824902942E+02  0.12001171372E+03  0.94821092305E+02 0.  0.
         13    1    3    3    0    0 -0.16133125215E+01 -0.56875067894E+02 -0.19788204964E+03  0.20589968843E+03  0.00000000000E+00 0. -1.
        -14    1    3    3    0    0 -0.36529077796E+02  0.19479448688E+02 -0.75735191046E+02  0.86311306378E+02  0.00000000000E+00 0.  1.
        -11    1    4    4    0    0  0.92844941169E+01  0.29321332984E+02  0.57010157330E+02  0.64777314221E+02  0.00000000000E+00 0.  1.
         11    1    4    4    0    0  0.23074392257E+02  0.33699676047E+02 -0.37185254388E+02  0.55234399495E+02  0.00000000000E+00 0. -1.
          2    1    1    2  501    0  0.57835039437E+01 -0.25625389825E+02 -0.77878098857E+01  0.27399990956E+02  0.00000000000E+00 0. -1.
<scales pt_clust_5="13000.00000" pt_clust_6="13000.00000" pt_clust_7="13000.00000" pt_clust_8="13000.00000" pt_clust_9="26.26994"></scales>
<clustering>
<clus scale="   26.270">  1  9  2 -1</clus>
<clus scale="   87.565">  5  6 -1 -1</clus>
<clus scale="   94.821">  7  8 -1 -1</clus>
<clus scale="  103.458">  2  5  1 -1</clus>
<clus scale="   26.270">  1  5  2 -1</clus>
</clustering>
</event>
<event>
 9    1  0.3197504E-005  0.1030974E+03  0.7546771E-02  0.1279448E+00
         21   -1    0    0  501  502  0.00000000000E+00  0.00000000000E+00  0.17396623222E+03  0.17396623222E+03  0.00000000000E+00 0.  1.
          1   -1    0    0  502    0 -0.00000000000E+00 -0.00000000000E+00 -0.11635092591E+03  0.11635092591E+03  0.00000000000E+00 0. -1.
         23    2    1    2    0    0  0.26505476665E+02  0.22678220430E+00  0.32430677248E+02  0.10211821520E+03  0.93133180577E+02 0.  0.
        -24    2    1    2    0    0 -0.17482175790E+02  0.74079218336E+02  0.11688877623E+02  0.11214016973E+03  0.81519511450E+02 0.  0.
         11    1    4    4    0    0 -0.41757553671E+02  0.13882521583E+02  0.16636909212E+02  0.47044706846E+02  0.00000000000E+00 0. -1.
        -12    1    4    4    0    0  0.24275377882E+02  0.60196696753E+02 -0.49480315890E+01  0.65095462883E+02  0.00000000000E+00 0.  1.
        -13    1    3    3    0    0  0.43591803629E+02  0.18057368043E+02 -0.14266130622E+02  0.49293370418E+02  0.00000000000E+00 0. -1.
         13    1    3    3    0    0 -0.17086326964E+02 -0.17830585838E+02  0.46696807870E+02  0.52824844777E+02  0.00000000000E+00 0.  1.
          2    1    1    2  501    0 -0.90233008754E+01 -0.74306000541E+02  0.13495751439E+02  0.76058773208E+02  0.00000000000E+00 0. -1.
<scales pt_clust_5="13000.00000" pt_clust_6="13000.00000" pt_clust_7="13000.00000" pt_clust_8="13000.00000" pt_clust_9="74.85190"></scales>
<clustering>
<clus scale="   74.852">  1  9  2 -1</clus>
<clus scale="   81.520">  5  6 -1 -1</clus>
<clus scale="   92.740">  1  5  2 -1</clus>
<clus scale="   93.133">  7  8 -1 -1</clus>
<clus scale="   74.852">  1  5  2 -1</clus>
</clustering>
</event>
<event>
 9    1  0.3197504E-005  0.1062897E+03  0.7546771E-02  0.1273112E+00
          1   -1    0    0  502    0 -0.00000000000E+00  0.00000000000E+00  0.12831010945E+03  0.12831010945E+03  0.00000000000E+00 0. -1.
         21   -1    0    0  501  502  0.00000000000E+00 -0.00000000000E+00 -0.28757654151E+03  0.28757654151E+03  0.00000000000E+00 0. -1.
         23    2    1    2    0    0  0.20901422885E+02 -0.46553202454E+02  0.59433017844E+02  0.12168669327E+03  0.93119802247E+02 0.  0.
        -24    2    1    2    0    0 -0.82917271005E+02  0.13128731053E+02 -0.17845476496E+03  0.21306552990E+03  0.80642293399E+02 0.  0.
         11    1    4    4    0    0 -0.53709082165E+02 -0.31873628500E+02 -0.88297037054E+02  0.10815248704E+03  0.00000000000E+00 0. -1.
        -12    1    4    4    0    0 -0.29208188839E+02  0.45002359553E+02 -0.90157727908E+02  0.10491304286E+03  0.00000000000E+00 0.  1.
        -11    1    3    3    0    0 -0.33606110053E+02 -0.23517312697E+02  0.50678185752E+01  0.41329377136E+02  0.00000000000E+00 0.  1.
         11    1    3    3    0    0  0.54507532938E+02 -0.23035889757E+02  0.54365199269E+02  0.80357316129E+02  0.00000000000E+00 0. -1.
          2    1    1    2  501    0  0.62015848120E+02  0.33424471401E+02 -0.40244684948E+02  0.81134427791E+02  0.00000000000E+00 0. -1.
<scales pt_clust_5="13000.00000" pt_clust_6="13000.00000" pt_clust_7="13000.00000" pt_clust_8="13000.00000" pt_clust_9="70.44970"></scales>
<clustering>
<clus scale="   70.450">  2  9  1 -1</clus>
<clus scale="   80.642">  5  6 -1 -1</clus>
<clus scale="   93.120">  7  8 -1 -1</clus>
<clus scale="   95.548">  2  5  1 -1</clus>
<clus scale="   70.450">  2  5  1 -1</clus>
</clustering>
</event>
<event>
 9    1  0.3197504E-005  0.1059719E+03  0.7546771E-02  0.1272250E+00
         -4   -1    0    0    0  501 -0.00000000000E+00  0.00000000000E+00  0.42506875236E+03  0.42506875236E+03  0.00000000000E+00 0.  1.
         21   -1    0    0  501  502  0.00000000000E+00 -0.00000000000E+00 -0.58106014087E+02  0.58106014087E+02  0.00000000000E+00 0. -1.
         23    2    1    2    0    0 -0.67615309708E+01  0.39890676313E+02  0.88571173072E+02  0.13186334663E+03  0.88916281569E+02 0.  0.
        -24    2    1    2    0    0 -0.63702561187E+02 -0.69222566336E+02  0.10452818795E+03  0.16143245308E+03  0.79274931986E+02 0.  0.
         11    1    4    4    0    0 -0.27528680375E+02 -0.69321219369E+02  0.10032733458E+03  0.12501533411E+03  0.00000000000E+00 0. -1.
        -12    1    4    4    0    0 -0.36173880812E+02  0.98653033205E-01  0.42008533638E+01  0.36417118975E+02  0.00000000000E+00 0.  1.
        -11    1    3    3    0    0  0.29855713763E+02 -0.27876441304E+01  0.63640208737E+02  0.70350627376E+02  0.00000000000E+00 0.  1.
         11    1    3    3    0    0 -0.36617244733E+02  0.42678320443E+02  0.24930964335E+02  0.61512719257E+02  0.00000000000E+00 0. -1.
         -3    1    1    2    0  502  0.70464092158E+02  0.29331890023E+02  0.17386337726E+03  0.18987896674E+03  0.00000000000E+00 0.  1.
<scales pt_clust_5="13000.00000" pt_clust_6="13000.00000" pt_clust_7="13000.00000" pt_clust_8="13000.00000" pt_clust_9="76.32532"></scales>
<clustering>
<clus scale="   76.325">  2  9  1 -1</clus>
<clus scale="   79.275">  5  6 -1 -1</clus>
<clus scale="   88.916">  7  8 -1 -1</clus>
<clus scale="   98.023">  2  5  1 -1</clus>
<clus scale="   76.325">  2  5  1 -1</clus>
</clustering>
</event>
<event>
 9    1  0.3197504E-005  0.9297390E+02  0.7546771E-02  0.1303362E+00
         21   -1    0    0  501  502  0.00000000000E+00  0.00000000000E+00  0.13153798610E+03  0.13153798610E+03  0.00000000000E+00 0.  1.
         -2   -1    0    0    0  501 -0.00000000000E+00 -0.00000000000E+00 -0.22903957654E+03  0.22903957654E+03  0.00000000000E+00 0.  1.
        -24    2    1    2    0    0  0.49529814806E+01 -0.10214115300E+02 -0.10885972852E+03  0.13533342876E+03  0.79597966490E+02 0.  0.
         23    2    1    2    0    0  0.39295432645E+02  0.89293485128E+01 -0.76972040586E+02  0.12644234623E+03  0.91864615589E+02 0.  0.
         13    1    3    3    0    0  0.30231121378E+02  0.15101383867E+02 -0.19354013519E+02  0.38942911214E+02  0.00000000000E+00 0. -1.
        -14    1    3    3    0    0 -0.25278139898E+02 -0.25315499167E+02 -0.89505715003E+02  0.96390517547E+02  0.00000000000E+00 0.  1.
        -13    1    4    4    0    0 -0.26173740082E+02  0.16386815048E+02 -0.41130964632E+02  0.51432952753E+02  0.00000000000E+00 0.  1.
         13    1    4    4    0    0  0.65469172727E+02 -0.74574665353E+01 -0.35841075954E+02  0.75009393480E+02  0.00000000000E+00 0. -1.
         -1    1    1    2    0  502 -0.44248414125E+02  0.12847667873E+01  0.88330178672E+02  0.98801787649E+02  0.00000000000E+00 0.  1.
<scales pt_clust_5="13000.00000" pt_clust_6="13000.00000" pt_clust_7="13000.00000" pt_clust_8="13000.00000" pt_clust_9="44.26706"></scales>
<clustering>
<clus scale="   44.267">  1  9  2 -1</clus>
<clus scale="   79.598">  5  6 -1 -1</clus>
<clus scale="   80.876">  2  5  1 -1</clus>
<clus scale="   91.865">  7  8 -1 -1</clus>
<clus scale="   44.267">  1  5  2 -1</clus>
</clustering>
</event>
<event>
 9    1  0.3197504E-005  0.1387678E+03  0.7546771E-02  0.1216512E+00
         21   -1    0    0  501  502  0.00000000000E+00  0.00000000000E+00  0.10141346290E+04  0.10141346290E+04  0.00000000000E+00 0.  1.
          1   -1    0    0  502    0 -0.00000000000E+00 -0.00000000000E+00 -0.26057268247E+02  0.26057268247E+02  0.00000000000E+00 0. -1.
        -24    2    1    2    0    0  0.14022367489E+02 -0.12306865176E+03  0.33734933138E+03  0.36816131753E+03  0.79972898541E+02 0.  0.
         23    2    1    2    0    0 -0.24582086967E+02  0.85940388549E+02  0.42220778751E+03  0.44027312774E+03  0.87126240593E+02 0.  0.
         13    1    3    3    0    0 -0.17757772181E+02 -0.62001741056E+02  0.85647010382E+02  0.10721457342E+03  0.00000000000E+00 0. -1.
        -14    1    3    3    0    0  0.31780139670E+02 -0.61066910706E+02  0.25170232100E+03  0.26094674410E+03  0.00000000000E+00 0.  1.
        -13    1    4    4    0    0 -0.42101159498E+02  0.95661715074E+02  0.36436085376E+03  0.37905474950E+03  0.00000000000E+00 0.  1.
         13    1    4    4    0    0  0.17519072531E+02 -0.97213265250E+01  0.57846933745E+02  0.61218378249E+02  0.00000000000E+00 0. -1.
          2    1    1    2  501    0  0.10559719478E+02  0.37128263213E+02  0.22852024183E+03  0.23175745195E+03  0.00000000000E+00 0. -1.
<scales pt_clust_5="13000.00000" pt_clust_6="13000.00000" pt_clust_7="13000.00000" pt_clust_8="13000.00000" pt_clust_9="38.60072"></scales>
<clustering>
<clus scale="   38.601">  1  9  2 -1</clus>
<clus scale="   79.973">  5  6 -1 -1</clus>
<clus scale="   87.126">  7  8 -1 -1</clus>
<clus scale="  134.392">  2  5  1 -1</clus>
<clus scale="   38.601">  1  5  2 -1</clus>
</clustering>
</event>
<event>
 9    1  0.3197504E-005  0.1382132E+03  0.7546771E-02  0.1229115E+00
          1   -1    0    0  502    0 -0.00000000000E+00  0.00000000000E+00  0.56433483324E+02  0.56433483324E+02  0.00000000000E+00 0. -1.
         21   -1    0    0  501  502  0.00000000000E+00 -0.00000000000E+00 -0.61896614076E+03  0.61896614076E+03  0.00000000000E+00 0. -1.
        -24    2    1    2    0    0 -0.19279259164E+02  0.63430411118E+02 -0.93783043488E+02  0.14042771459E+03  0.80805797375E+02 0.  0.
         23    2    1    2    0    0  0.38786093342E+02  0.53125155736E+02 -0.11714361357E+03  0.16403728420E+03  0.94122054794E+02 0.  0.
         13    1    3    3    0    0 -0.29148228627E+02  0.72981832318E+02 -0.46774445017E+02  0.91453899793E+02  0.00000000000E+00 0. -1.
        -14    1    3    3    0    0  0.98689694628E+01 -0.95514212004E+01 -0.47008598471E+02  0.48973814794E+02  0.00000000000E+00 0.  1.
        -13    1    4    4    0    0 -0.24678495001E+02 -0.86959467467E+01 -0.24431517731E+02  0.35798696400E+02  0.00000000000E+00 0.  1.
         13    1    4    4    0    0  0.63464588343E+02  0.61821102482E+02 -0.92712095844E+02  0.12823858780E+03  0.00000000000E+00 0. -1.
          2    1    1    2  501    0 -0.19506834178E+02 -0.11655556685E+03 -0.35160600037E+03  0.37093462530E+03  0.00000000000E+00 0. -1.
<scales pt_clust_5="13000.00000" pt_clust_6="13000.00000" pt_clust_7="13000.00000" pt_clust_8="13000.00000" pt_clust_9="101.21223"></scales>
<clustering>
<clus scale="   80.806">  5  6 -1 -1</clus>
<clus scale="   94.122">  7  8 -1 -1</clus>
<clus scale="  104.521">  1  5  2 -1</clus>
<clus scale="  101.212">  2  9  1 -1</clus>
<clus scale="  101.212">  2  5  1 -1</clus>
</clustering>
</event>
<event>
 9    1  0.3197504E-005  0.2223429E+03  0.7546771E-02  0.1132148E+00
         21   -1    0    0  501  502  0.00000000000E+00  0.00000000000E+00  0.44374103341E+02  0.44374103341E+02  0.00000000000E+00 0. -1.
         -2   -1    0    0    0  501 -0.00000000000E+00 -0.00000000000E+00 -0.76711926289E+03  0.76711926289E+03  0.00000000000E+00 0.  1.
        -24    2    1    2    0    0 -0.50231139728E+02 -0.47162685592E+02 -0.13412844827E+03  0.17047031092E+03  0.79512262940E+02 0.  0.
         23    2    1    2    0    0 -0.29888410147E+02 -0.62165605468E+02 -0.21363010386E+03  0.24229160027E+03  0.91156561596E+02 0.  0.
         11    1    3    3    0    0 -0.50852286062E+02 -0.51454189858E+02 -0.54124773588E+02  0.90349210111E+02  0.00000000000E+00 0. -1.
        -12    1    3    3    0    0  0.62114633398E+00  0.42915042663E+01 -0.80003674682E+02  0.80121100805E+02  0.00000000000E+00 0.  1.
        -11    1    4    4    0    0  0.16923106499E+02 -0.22562053324E+02 -0.10476975591E+02  0.30086621633E+02  0.00000000000E+00 0.  1.
         11    1    4    4    0    0 -0.46811516646E+02 -0.39603552145E+02 -0.20315312827E+03  0.21220497864E+03  0.00000000000E+00 0. -1.
         -1    1    1    2    0  502  0.80119549875E+02  0.10932829106E+03 -0.37498660742E+03  0.39873145505E+03  0.00000000000E+00 0.  1.
<scales pt_clust_5="13000.00000" pt_clust_6="13000.00000" pt_clust_7="13000.00000" pt_clust_8="13000.00000" pt_clust_9="135.54275"></scales>
<clustering>
<clus scale="   79.512">  5  6 -1 -1</clus>
<clus scale="   91.157">  7  8 -1 -1</clus>
<clus scale="  100.069">  5  7 -1 -1</clus>
<clus scale="  135.543">  1  9  2 -1</clus>
<clus scale="  135.543">  1  5  2 -1</clus>
</clustering>
</event>
<event>
 9    1  0.3197504E-005  0.9374537E+02  0.7546771E-02  0.1299330E+00
          3   -1    0    0  502    0 -0.00000000000E+00  0.00000000000E+00  0.79001419173E+03  0.79001419173E+03  0.00000000000E+00 0. -1.
         21   -1    0    0  501  502  0.00000000000E+00 -0.00000000000E+00 -0.24724974595E+02  0.24724974595E+02  0.00000000000E+00 0. -1.
        -24    2    1    2    0    0  0.26775222766E+02  0.45927591400E+02  0.41628017759E+03  0.42705604340E+03  0.79129145938E+02 0.  0.
         23    2    1    2    0    0  0.21032363237E+02  0.11368571130E+02  0.15870018734E+03  0.18326718728E+03  0.88484505761E+02 0.  0.
         11    1    3    3    0    0  0.34350294816E+02  0.24572098680E+02  0.84150633792E+02  0.94154447346E+02  0.00000000000E+00 0. -1.
        -12    1    3    3    0    0 -0.75750720499E+01  0.21355492720E+02  0.33212954380E+03  0.33290159605E+03  0.00000000000E+00 0.  1.
        -11    1    4    4    0    0  0.43572998791E+02 -0.22970379408E+02  0.10179025679E+03  0.11308183289E+03  0.00000000000E+00 0.  1.
         11    1    4    4    0    0 -0.22540635554E+02  0.34338950537E+02  0.56909930553E+02  0.70185354389E+02  0.00000000000E+00 0. -1.
          4    1    1    2  501    0 -0.47807586004E+02 -0.57296162530E+02  0.19030885220E+03  0.20441593565E+03  0.00000000000E+00 0. -1.
<scales pt_clust_5="13000.00000" pt_clust_6="13000.00000" pt_clust_7="13000.00000" pt_clust_8="13000.00000" pt_clust_9="74.62182"></scales>
<clustering>
<clus scale="   74.622">  2  9  1 -1</clus>
<clus scale="   79.129">  5  6 -1 -1</clus>
<clus scale="   84.971">  1  5  2 -1</clus>
<clus scale="   88.485">  7  8 -1 -1</clus>
<clus scale="   74.622">  2  5  1 -1</clus>
</clustering>
</event>
<event>
 9    1  0.3197504E-005  0.1045479E+03  0.7546771E-02  0.1276134E+00
          1   -1    0    0  502    0 -0.00000000000E+00  0.00000000000E+00  0.61012146667E+03  0.61012146667E+03  0.00000000000E+00 0. -1.
         21   -1    0    0  501  502  0.00000000000E+00 -0.00000000000E+00 -0.49415380670E+02  0.49415380670E+02  0.00000000000E+00 0.  1.
        -24    2    1    2    0    0  0.23782711214E+02  0.41903105455E+02  0.43554499984E+03  0.44551186101E+03  0.80373402387E+02 0.  0.
         23    2    1    2    0    0 -0.18463699218E+02 -0.66426518560E+02  0.34303120446E+02  0.11976545306E+03  0.91726054740E+02 0.  0.
         11    1    3    3    0    0  0.50922974522E+02  0.42574958077E+02  0.29607084903E+03  0.30342004554E+03  0.00000000000E+00 0. -1.
        -12    1    3    3    0    0 -0.27140263308E+02 -0.67185262162E+00  0.13947415081E+03  0.14209181547E+03  0.00000000000E+00 0.  1.
        -13    1    4    4    0    0  0.30430681785E+02 -0.34714670677E+02 -0.91610878878E+01  0.47064426964E+02  0.00000000000E+00 0.  1.
         13    1    4    4    0    0 -0.48894381003E+02 -0.31711847882E+02  0.43464208334E+02  0.72701026099E+02  0.00000000000E+00 0. -1.
          2    1    1    2  501    0 -0.53190119959E+01  0.24523413104E+02  0.90857965709E+02  0.94259533267E+02  0.00000000000E+00 0. -1.
<scales pt_clust_5="13000.00000" pt_clust_6="13000.00000" pt_clust_7="13000.00000" pt_clust_8="13000.00000" pt_clust_9="25.09363"></scales>
<clustering>
<clus scale="   25.094">  2  9  1 -1</clus>
<clus scale="   80.373">  5  6 -1 -1</clus>
<clus scale="   91.726">  7  8 -1 -1</clus>
<clus scale="   94.744">  1  5  2 -1</clus>
<clus scale="   25.094">  2  5  1 -1</clus>
</clustering>
</event>
<event>
 9    1  0.3197504E-005  0.1607753E+03  0.7546771E-02  0.1217218E+00
         21   -1    0    0  501  502  0.00000000000E+00  0.00000000000E+00  0.44138711332E+03  0.44138711332E+03  0.00000000000E+00 0.  1.
         -2   -1    0    0    0  501 -0.00000000000E+00 -0.00000000000E+00 -0.12716613785E+03  0.12716613785E+03  0.00000000000E+00 0.  1.
        -24    2    1    2    0    0 -0.26465057484E+02  0.15520851090E+02  0.16074401500E+03  0.18189689589E+03  0.79413766388E+02 0.  0.
         23    2    1    2    0    0  0.13378124817E+03  0.59937868902E+02 -0.15975804644E+02  0.17235511214E+03  0.89224928450E+02 0.  0.
         13    1    3    3    0    0 -0.42224428667E+02  0.16686490503E+02  0.41187324283E+02  0.61300383548E+02  0.00000000000E+00 0. -1.
        -14    1    3    3    0    0  0.15759371182E+02 -0.11656394137E+01  0.11955669071E+03  0.12059651234E+03  0.00000000000E+00 0.  1.
        -11    1    4    4    0    0  0.29595579093E+02  0.11329643646E+02 -0.43806723306E+02  0.54067440607E+02  0.00000000000E+00 0. -1.
         11    1    4    4    0    0  0.10418566908E+03  0.48608225256E+02  0.27830918662E+02  0.11828767153E+03  0.00000000000E+00 0.  1.
         -1    1    1    2    0  502 -0.10731619069E+03 -0.75458719992E+02  0.16945276512E+03  0.21430124314E+03  0.00000000000E+00 0.  1.
<scales pt_clust_5="13000.00000" pt_clust_6="13000.00000" pt_clust_7="13000.00000" pt_clust_8="13000.00000" pt_clust_9="133.74452"></scales>
<clustering>
<clus scale="   79.414">  5  6 -1 -1</clus>
<clus scale="   85.134">  2  5  1 -1</clus>
<clus scale="   89.225">  7  8 -1 -1</clus>
<clus scale="  133.745">  1  9  2 -1</clus>
<clus scale="  133.745">  1  5  2 -1</clus>
</clustering>
</event>
<event>
 9    1  0.3197504E-005  0.1141565E+03  0.7546771E-02  0.1257176E+00
         21   -1    0    0  501  502  0.00000000000E+00  0.00000000000E+00  0.12015928806E+03  0.12015928806E+03  0.00000000000E+00 0. -1.
         -2   -1    0    0    0  501 -0.00000000000E+00 -0.00000000000E+00 -0.21070189439E+03  0.21070189439E+03  0.00000000000E+00 0.  1.
        -24    2    1    2    0    0  0.83040280905E+01 -0.94396793688E+02 -0.32917182270E+02  0.12786304197E+03  0.79282438603E+02 0.  0.
         23    2    1    2    0    0  0.36593111031E+02  0.36832585790E+02  0.78981951097E+01  0.10490259623E+03  0.90810120908E+02 0.  0.
         13    1    3    3    0    0 -0.30131718005E+02 -0.66640391129E+02 -0.33514136699E+02  0.80449111358E+02  0.00000000000E+00 0. -1.
        -14    1    3    3    0    0  0.38435746096E+02 -0.27756402560E+02  0.59695442884E+00  0.47413930607E+02  0.00000000000E+00 0.  1.
        -13    1    4    4    0    0  0.61991705625E+02  0.46420346513E+02  0.51732477684E+01  0.77618184913E+02  0.00000000000E+00 0.  1.
         13    1    4    4    0    0 -0.25398594594E+02 -0.95877607226E+01  0.27249473414E+01  0.27284411319E+02  0.00000000000E+00 0. -1.
         -1    1    1    2    0  502 -0.44897139122E+02  0.57564207898E+02 -0.65523619167E+02  0.98095544247E+02  0.00000000000E+00 0.  1.
<scales pt_clust_5="13000.00000" pt_clust_6="13000.00000" pt_clust_7="13000.00000" pt_clust_8="13000.00000" pt_clust_9="73.00272"></scales>
<clustering>
<clus scale="   73.003">  1  9  2 -1</clus>
<clus scale="   79.282">  5  6 -1 -1</clus>
<clus scale="   90.810">  7  8 -1 -1</clus>
<clus scale="  105.219">  2  5  1 -1</clus>
<clus scale="   73.003">  1  5  2 -1</clus>
</clustering>
</event>
<event>
 9    1  0.3197504E-005  0.1121059E+03  0.7546771E-02  0.1261908E+00
         21   -1    0    0  501  502  0.00000000000E+00  0.00000000000E+00  0.36454495511E+02  0.36454495511E+02  0.00000000000E+00 0. -1.
         -2   -1    0    0    0  501 -0.00000000000E+00 -0.00000000000E+00 -0.95923396434E+03  0.95923396434E+03  0.00000000000E+00 0.  1.
        -24    2    1    2    0    0 -0.29348878403E+02  0.58736018355E+02 -0.78473548378E+03  0.79139413155E+03  0.78635967809E+02 0.  0.
         23    2    1    2    0    0  0.42187051428E+02 -0.37873980092E+02 -0.14294773942E+03  0.17931253224E+03  0.92221159925E+02 0.  0.
         13    1    3    3    0    0 -0.34721161948E+02  0.17546190304E+02 -0.13949910954E+03  0.14482206131E+03  0.00000000000E+00 0. -1.
        -14    1    3    3    0    0  0.53722835459E+01  0.41189828051E+02 -0.64523637424E+03  0.64657207023E+03  0.00000000000E+00 0.  1.
        -13    1    4    4    0    0 -0.73869068022E+01 -0.22920949457E+02 -0.12048846794E+03  0.12287150696E+03  0.00000000000E+00 0.  1.
         13    1    4    4    0    0  0.49573958230E+02 -0.14953030635E+02 -0.22459271484E+02  0.56441025286E+02  0.00000000000E+00 0. -1.
         -1    1    1    2    0  502 -0.12838173025E+02 -0.20862038263E+02  0.49037543742E+01  0.24981796054E+02  0.00000000000E+00 0.  1.
<scales pt_clust_5="13000.00000" pt_clust_6="13000.00000" pt_clust_7="13000.00000" pt_clust_8="13000.00000" pt_clust_9="24.49578"></scales>
<clustering>
<clus scale="   24.496">  1  9  2 -1</clus>
<clus scale="   78.636">  5  6 -1 -1</clus>
<clus scale="   92.221">  7  8 -1 -1</clus>
<clus scale="  101.226">  2  5  1 -1</clus>
<clus scale="   24.496">  1  5  2 -1</clus>
</clustering>
</event>
<event>
 9    1  0.3197504E-005  0.1771996E+03  0.7546771E-02  0.1190474E+00
         21   -1    0    0  501  502  0.00000000000E+00  0.00000000000E+00  0.14685434822E+03  0.14685434822E+03  0.00000000000E+00 0.  1.
         -2   -1    0    0    0  501 -0.00000000000E+00 -0.00000000000E+00 -0.92018371461E+03  0.92018371461E+03  0.00000000000E+00 0.  1.
        -24    2    1    2    0    0  0.46990764104E+02  0.55563937106E+02 -0.46461691100E+03  0.47821947445E+03  0.86772741868E+02 0.  0.
         23    2    1    2    0    0 -0.13022743069E+03  0.42086802836E+02 -0.39392269565E+03  0.43479003673E+03  0.12303171630E+03 0.  0.
         11    1    3    3    0    0  0.67210310954E+02  0.19127826949E+02 -0.32925631919E+03  0.33658999300E+03  0.00000000000E+00 0. -1.
        -12    1    3    3    0    0 -0.20219546849E+02  0.36436110157E+02 -0.13536059182E+03  0.14162948145E+03  0.00000000000E+00 0.  1.
        -13    1    4    4    0    0  0.23210031489E+02 -0.44382578743E+01 -0.46860790525E+02  0.52481781441E+02  0.00000000000E+00 0.  1.
         13    1    4    4    0    0 -0.15343746218E+03  0.46525060710E+02 -0.34706190513E+03  0.38230825529E+03  0.00000000000E+00 0. -1.
         -1    1    1    2    0  502  0.83236666584E+02 -0.97650739942E+02  0.85210240264E+02  0.15402855164E+03  0.00000000000E+00 0.  1.
<scales pt_clust_5="13000.00000" pt_clust_6="13000.00000" pt_clust_7="13000.00000" pt_clust_8="13000.00000" pt_clust_9="127.52605"></scales>
<clustering>
<clus scale="   86.773">  5  6 -1 -1</clus>
<clus scale="  113.247">  2  5  1 -1</clus>
<clus scale="  123.032">  7  8 -1 -1</clus>
<clus scale="  127.526">  1  9  2 -1</clus>
<clus scale="  127.526">  1  5  2 -1</clus>
</clustering>
</event>
<event>
 9    1  0.3197504E-005  0.1550336E+03  0.7546771E-02  0.1213939E+00
         21   -1    0    0  501  502  0.00000000000E+00  0.00000000000E+00  0.46456111941E+02  0.46456111941E+02  0.00000000000E+00 0.  1.
          1   -1    0    0  502    0 -0.00000000000E+00 -0.00000000000E+00 -0.95460803188E+03  0.95460803188E+03  0.00000000000E+00 0. -1.
         23    2    1    2    0    0 -0.43243965147E+02  0.57030444292E+01 -0.10521171496E+03  0.14637726622E+03  0.91946907850E+02 0.  0.
        -24    2    1    2    0    0  0.72546079947E+02 -0.12751576614E+03 -0.47982171677E+03  0.50812878648E+03  0.80266926121E+02 0.  0.
         11    1    4    4    0    0  0.36052195946E+02 -0.28567076317E+01 -0.81505206711E+02  0.89168494055E+02  0.00000000000E+00 0. -1.
        -12    1    4    4    0    0  0.36493884001E+02 -0.12465905851E+03 -0.39831651006E+03  0.41896029242E+03  0.00000000000E+00 0.  1.
        -11    1    3    3    0    0 -0.25169739073E+02  0.18903342627E+02  0.67559062457E+01  0.32194633041E+02  0.00000000000E+00 0.  1.
         11    1    3    3    0    0 -0.18074226074E+02 -0.13200298197E+02 -0.11196762121E+03  0.11418263318E+03  0.00000000000E+00 0. -1.
          2    1    1    2  501    0 -0.29302114800E+02  0.12181272172E+03 -0.32311848820E+03  0.34655809112E+03  0.00000000000E+00 0. -1.
<scales pt_clust_5="13000.00000" pt_clust_6="13000.00000" pt_clust_7="13000.00000" pt_clust_8="13000.00000" pt_clust_9="132.63723"></scales>
<clustering>
<clus scale="   80.267">  5  6 -1 -1</clus>
<clus scale="   91.947">  7  8 -1 -1</clus>
<clus scale="  101.768">  2  7  1 -1</clus>
<clus scale="  132.637">  1  9  2 -1</clus>
<clus scale="  132.637">  1  5  2 -1</clus>
</clustering>
</event>
<event>
 9    1  0.3197504E-005  0.1113058E+03  0.7546771E-02  0.1262589E+00
          1   -1    0    0  502    0 -0.00000000000E+00  0.00000000000E+00  0.95098357753E+03  0.95098357753E+03  0.00000000000E+00 0. -1.
         21   -1    0    0  501  502  0.00000000000E+00 -0.00000000000E+00 -0.19036056376E+02  0.19036056376E+02  0.00000000000E+00 0. -1.
         23    2    1    2    0    0 -0.61622467792E+02 -0.15936523743E+02  0.51409562303E+03  0.52586832623E+03  0.90509035957E+02 0.  0.
        -24    2    1    2    0    0  0.56747906515E+02  0.41850726624E+02  0.21522218664E+03  0.23981308992E+03  0.78853790408E+02 0.  0.
         11    1    4    4    0    0  0.59006035748E+02  0.93756503203E+01  0.18835714703E+03  0.19760574361E+03  0.00000000000E+00 0. -1.
        -12    1    4    4    0    0 -0.22581292323E+01  0.32475076304E+02  0.26865039611E+02  0.42207346303E+02  0.00000000000E+00 0.  1.
        -13    1    3    3    0    0  0.14688520386E+02  0.15137440188E+02  0.46384890653E+02  0.50955400180E+02  0.00000000000E+00 0.  1.
         13    1    3    3    0    0 -0.76310988179E+02 -0.31073963931E+02  0.46771073238E+03  0.47491292605E+03  0.00000000000E+00 0. -1.
          2    1    1    2  501    0  0.48745612772E+01 -0.25914202881E+02  0.20262971149E+03  0.20433821776E+03  0.00000000000E+00 0. -1.
<scales pt_clust_5="13000.00000" pt_clust_6="13000.00000" pt_clust_7="13000.00000" pt_clust_8="13000.00000" pt_clust_9="26.36869"></scales>
<clustering>
<clus scale="   26.369">  2  9  1 -1</clus>
<clus scale="   78.854">  5  6 -1 -1</clus>
<clus scale="   90.509">  7  8 -1 -1</clus>
<clus scale="  102.054">  2  5  1 -1</clus>
<clus scale="   26.369">  2  5  1 -1</clus>
</clustering>
</event>
<event>
 9    1  0.3197504E-005  0.9219248E+02  0.7546771E-02  0.1304100E+00
          1   -1    0    0  502    0 -0.00000000000E+00  0.00000000000E+00  0.13708170657E+03  0.13708170657E+03  0.00000000000E+00 0. -1.
         21   -1    0    0  501  502  0.00000000000E+00 -0.00000000000E+00 -0.10639121367E+03  0.10639121367E+03  0.00000000000E+00 0. -1.
        -24    2    1    2    0    0 -0.13616981345E+02 -0.18493686267E+02  0.63520363492E+02  0.10515274792E+03  0.80590478372E+02 0.  0.
         23    2    1    2    0    0  0.73601486308E+01 -0.20822094378E+02 -0.15934781700E+02  0.95072945911E+02  0.91089057379E+02 0.  0.
         11    1    3    3    0    0 -0.21305406165E+02 -0.25054394894E+02  0.79619043348E+02  0.86144269101E+02  0.00000000000E+00 0. -1.
        -12    1    3    3    0    0  0.76884248195E+01  0.65607086267E+01 -0.16098679856E+02  0.19008478819E+02  0.00000000000E+00 0.  1.
        -11    1    4    4    0    0 -0.39238472285E+02 -0.12722958858E+02  0.80718461195E+01  0.42031965088E+02  0.00000000000E+00 0.  1.
         11    1    4    4    0    0  0.46598620916E+02 -0.80991355195E+01 -0.24006627820E+02  0.53040980823E+02  0.00000000000E+00 0. -1.
          2    1    1    2  501    0  0.62568327145E+01  0.39315780645E+02 -0.16895088889E+02  0.43247226407E+02  0.00000000000E+00 0. -1.
<scales pt_clust_5="13000.00000" pt_clust_6="13000.00000" pt_clust_7="13000.00000" pt_clust_8="13000.00000" pt_clust_9="39.81053"></scales>
<clustering>
<clus scale="   39.811">  2  9  1 -1</clus>
<clus scale="   80.590">  5  6 -1 -1</clus>
<clus scale="   81.836">  1  5  2 -1</clus>
<clus scale="   91.089">  7  8 -1 -1</clus>
<clus scale="   39.811">  2  5  1 -1</clus>
</clustering>
</event>
<event>
 9    1  0.3197504E-005  0.9460340E+02  0.7546771E-02  0.1301303E+00
         -2   -1    0    0    0  501 -0.00000000000E+00  0.00000000000E+00  0.42015879793E+02  0.42015879793E+02  0.00000000000E+00 0.  1.
         21   -1    0    0  501  502  0.00000000000E+00 -0.00000000000E+00 -0.41659117681E+03  0.41659117681E+03  0.00000000000E+00 0.  1.
         23    2    1    2    0    0 -0.11035408444E+02  0.25039187454E+02 -0.12038642147E+03  0.15324730039E+03  0.90791538439E+02 0.  0.
        -24    2    1    2    0    0  0.47837596057E+02  0.34922060001E+02 -0.17481452542E+03  0.19929355205E+03  0.75165256062E+02 0.  0.
         11    1    4    4    0    0 -0.19665444266E+02  0.11844330569E+02 -0.29207511677E+02  0.37149651455E+02  0.00000000000E+00 0. -1.
        -12    1    4    4    0    0  0.67503040323E+02  0.23077729432E+02 -0.14560701375E+03  0.16214390060E+03  0.00000000000E+00 0.  1.
        -13    1    3    3    0    0  0.31893369792E+02  0.36895532206E+02 -0.76487523249E+02  0.90712780501E+02  0.00000000000E+00 0.  1.
         13    1    3    3    0    0 -0.42928778237E+02 -0.11856344752E+02 -0.43898898226E+02  0.62534519885E+02  0.00000000000E+00 0. -1.
         -1    1    1    2    0  502 -0.36802187612E+02 -0.59961247455E+02 -0.79374350118E+02  0.10606620417E+03  0.00000000000E+00 0.  1.
<scales pt_clust_5="13000.00000" pt_clust_6="13000.00000" pt_clust_7="13000.00000" pt_clust_8="13000.00000" pt_clust_9="70.35451"></scales>
<clustering>
<clus scale="   70.355">  2  9  1 -1</clus>
<clus scale="   75.165">  5  6 -1 -1</clus>
<clus scale="   79.728">  2  5  1 -1</clus>
<clus scale="   90.792">  7  8 -1 -1</clus>
<clus scale="   70.355">  2  5  1 -1</clus>
</clustering>
</event>
<event>
 9    1  0.3197504E-005  0.8945214E+02  0.7546771E-02  0.1309369E+00
         -2   -1    0    0    0  501 -0.00000000000E+00  0.00000000000E+00  0.86509670147E+02  0.86509670147E+02  0.00000000000E+00 0.  1.
         21   -1    0    0  501  502  0.00000000000E+00 -0.00000000000E+00 -0.22134843734E+03  0.22134843734E+03  0.00000000000E+00 0.  1.
        -24    2    1    2    0    0  0.63777920682E+01 -0.35764905462E+01 -0.50176994654E+01  0.80635927515E+02  0.80146790217E+02 0.  0.
         23    2    1    2    0    0  0.43379308695E+01  0.50700542192E+02 -0.14438781338E+03  0.17674750275E+03  0.88331627689E+02 0.  0.
         11    1    3    3    0    0  0.10304523700E+02  0.36433645985E+02  0.73593963270E+01  0.38571420543E+02  0.00000000000E+00 0. -1.
        -12    1    3    3    0    0 -0.39267316314E+01 -0.40010136531E+02 -0.12377095792E+02  0.42064506972E+02  0.00000000000E+00 0.  1.
        -11    1    4    4    0    0 -0.73636178435E+01  0.28133986133E+02  0.10541995504E+01  0.29100779717E+02  0.00000000000E+00 0. -1.
         11    1    4    4    0    0  0.11701548713E+02  0.22566556060E+02 -0.14544201293E+03  0.14764672303E+03  0.00000000000E+00 0.  1.
         -1    1    1    2    0  502 -0.10715722938E+02 -0.47124051646E+02  0.14566745660E+02  0.50474677223E+02  0.00000000000E+00 0.  1.
<scales pt_clust_5="13000.00000" pt_clust_6="13000.00000" pt_clust_7="13000.00000" pt_clust_8="13000.00000" pt_clust_9="48.32707"></scales>
<clustering>
<clus scale="   48.327">  2  9  1 -1</clus>
<clus scale="   80.147">  5  6 -1 -1</clus>
<clus scale="   81.380">  1  5  2 -1</clus>
<clus scale="   88.332">  7  8 -1 -1</clus>
<clus scale="   48.327">  2  5  1 -1</clus>
</clustering>
</event>
<event>
 9    1  0.3197504E-005  0.9317694E+02  0.7546771E-02  0.1296782E+00
         -4   -1    0    0    0  501 -0.00000000000E+00  0.00000000000E+00  0.12349262252E+03  0.12349262252E+03  0.00000000000E+00 0.  1.
         21   -1    0    0  501  502  0.00000000000E+00 -0.00000000000E+00 -0.21610204520E+03  0.21610204520E+03  0.00000000000E+00 0.  1.
         23    2    1    2    0    0  0.38155455045E+02 -0.41853319745E+01  0.33175272519E+02  0.10345142229E+03  0.90156765211E+02 0.  0.
        -24    2    1    2    0    0  0.49218912204E+02 -0.31644008112E+02 -0.91115576651E+02  0.13554518659E+03  0.81526711759E+02 0.  0.
         11    1    4    4    0    0  0.34744943429E+02  0.23945735429E+02 -0.46646443182E+02  0.62900715423E+02  0.00000000000E+00 0. -1.
        -12    1    4    4    0    0  0.14473968775E+02 -0.55589743541E+02 -0.44469133469E+02  0.72644471163E+02  0.00000000000E+00 0.  1.
        -13    1    3    3    0    0  0.50847357952E+02  0.17171128192E+02  0.50077717148E+02  0.73403536760E+02  0.00000000000E+00 0.  1.
         13    1    3    3    0    0 -0.12691902907E+02 -0.21356460167E+02 -0.16902444629E+02  0.30047885528E+02  0.00000000000E+00 0. -1.
         -3    1    1    2    0  502 -0.87374367249E+02  0.35829340086E+02 -0.34669118547E+02  0.10059805885E+03  0.00000000000E+00 0.  1.
<scales pt_clust_5="13000.00000" pt_clust_6="13000.00000" pt_clust_7="13000.00000" pt_clust_8="13000.00000" pt_clust_9="94.43528"></scales>
<clustering>
<clus scale="   81.527">  5  6 -1 -1</clus>
<clus scale="   90.157">  7  8 -1 -1</clus>
<clus scale="   94.435">  2  9  1 -1</clus>
<clus scale="   94.435">  2  5  1 -1</clus>
<clus scale="   93.177">  2  5  1 -1</clus>
</clustering>
</event>
<event>
 9    1  0.3197504E-005  0.1089781E+03  0.7546771E-02  0.1268250E+00
         21   -1    0    0  501  502  0.00000000000E+00  0.00000000000E+00  0.38546949839E+03  0.38546949839E+03  0.00000000000E+00 0.  1.
          3   -1    0    0  502    0 -0.00000000000E+00 -0.00000000000E+00 -0.26485779402E+03  0.26485779402E+03  0.00000000000E+00 0. -1.
        -24    2    1    2    0    0  0.13223350268E+02  0.51795408818E+02 -0.24301407450E+03  0.26175879795E+03  0.81266269353E+02 0.  0.
         23    2    1    2    0    0  0.56944524972E+01 -0.63585028209E+02  0.31387366195E+03  0.33405105208E+03  0.94857509602E+02 0.  0.
         11    1    3    3    0    0  0.37022828411E+01  0.65224716516E+02 -0.23408658293E+03  0.24303188854E+03  0.00000000000E+00 0. -1.
        -12    1    3    3    0    0  0.95210674268E+01 -0.13429307698E+02 -0.89274915680E+01  0.18726909406E+02  0.00000000000E+00 0.  1.
        -11    1    4    4    0    0 -0.27714674680E+02  0.88425188436E+01  0.44902043778E+02  0.53502213670E+02  0.00000000000E+00 0. -1.
         11    1    4    4    0    0  0.33409127178E+02 -0.72427547052E+02  0.26897161818E+03  0.28054883841E+03  0.00000000000E+00 0.  1.
          4    1    1    2  501    0 -0.18917802765E+02  0.11789619391E+02  0.49752116913E+02  0.54517442384E+02  0.00000000000E+00 0. -1.
<scales pt_clust_5="13000.00000" pt_clust_6="13000.00000" pt_clust_7="13000.00000" pt_clust_8="13000.00000" pt_clust_9="22.29077"></scales>
<clustering>
<clus scale="   22.291">  1  9  2 -1</clus>
<clus scale="   81.266">  5  6 -1 -1</clus>
<clus scale="   94.858">  7  8 -1 -1</clus>
<clus scale="   97.378">  2  5  1 -1</clus>
<clus scale="   22.291">  1  5  2 -1</clus>
</clustering>
</event>
<event>
 9    1  0.3197504E-005  0.9675647E+02  0.7546771E-02  0.1292519E+00
         21   -1    0    0  501  502  0.00000000000E+00  0.00000000000E+00  0.84808326956E+02  0.84808326956E+02  0.00000000000E+00 0. -1.
          1   -1    0    0  502    0 -0.00000000000E+00 -0.00000000000E+00 -0.32960131030E+03  0.32960131030E+03  0.00000000000E+00 0. -1.
        -24    2    1    2    0    0  0.30464168484E+02  0.13343067056E+02 -0.21541571630E+03  0.23237666369E+03  0.80553584634E+02 0.  0.
         23    2    1    2    0    0 -0.53162571177E+02  0.42475492550E+02 -0.41677467584E+02  0.12053318483E+03  0.90337206616E+02 0.  0.
         11    1    3    3    0    0  0.42735776210E+02 -0.74008314369E+00 -0.20788938638E+03  0.21223781770E+03  0.00000000000E+00 0. -1.
        -12    1    3    3    0    0 -0.12271607726E+02  0.14083150200E+02 -0.75263299204E+01  0.20138845990E+02  0.00000000000E+00 0.  1.
        -11    1    4    4    0    0  0.13658451054E+02  0.43327711283E+02 -0.24134802902E+02  0.51442517058E+02  0.00000000000E+00 0. -1.
         11    1    4    4    0    0 -0.66821022231E+02 -0.85221873272E+00 -0.17542664683E+02  0.69090667770E+02  0.00000000000E+00 0.  1.
          2    1    1    2  501    0  0.22698402693E+02 -0.55818559606E+02  0.12300200545E+02  0.61499788737E+02  0.00000000000E+00 0. -1.
<scales pt_clust_5="13000.00000" pt_clust_6="13000.00000" pt_clust_7="13000.00000" pt_clust_8="13000.00000" pt_clust_9="60.25719"></scales>
<clustering>
<clus scale="   60.257">  1  9  2 -1</clus>
<clus scale="   80.554">  5  6 -1 -1</clus>
<clus scale="   87.692">  2  5  1 -1</clus>
<clus scale="   90.337">  7  8 -1 -1</clus>
<clus scale="   60.257">  1  5  2 -1</clus>
</clustering>
</event>
<event>
 9    1  0.3197504E-005  0.8586959E+02  0.7546771E-02  0.1316358E+00
         21   -1    0    0  501  502  0.00000000000E+00  0.00000000000E+00  0.38959648518E+02  0.38959648518E+02  0.00000000000E+00 0. -1.
         -4   -1    0    0    0  501 -0.00000000000E+00 -0.00000000000E+00 -0.31771577943E+03  0.31771577943E+03  0.00000000000E+00 0.  1.
        -24    2    1    2    0    0  0.19677498636E+02  0.69458967296E+01 -0.18037271173E+03  0.19860915070E+03  0.80472542948E+02 0.  0.
         23    2    1    2    0    0  0.95902947474E+01  0.37186542277E+01 -0.92723486228E+02  0.12640603061E+03  0.85293830568E+02 0.  0.
         13    1    3    3    0    0 -0.21692491325E+02 -0.21681827789E+02 -0.91259450230E+02  0.96275402322E+02  0.00000000000E+00 0. -1.
        -14    1    3    3    0    0  0.41369989961E+02  0.28627724518E+02 -0.89113261503E+02  0.10233374837E+03  0.00000000000E+00 0.  1.
        -13    1    4    4    0    0  0.21908121330E+02  0.36783308324E+02 -0.76290059929E+02  0.87482288467E+02  0.00000000000E+00 0.  1.
         13    1    4    4    0    0 -0.12317826583E+02 -0.33064654096E+02 -0.16433426298E+02  0.38923742139E+02  0.00000000000E+00 0. -1.
         -3    1    1    2    0  502 -0.29267793383E+02 -0.10664550957E+02 -0.56599329520E+01  0.31660246646E+02  0.00000000000E+00 0.  1.
<scales pt_clust_5="13000.00000" pt_clust_6="13000.00000" pt_clust_7="13000.00000" pt_clust_8="13000.00000" pt_clust_9="31.15022"></scales>
<clustering>
<clus scale="   31.150">  1  9  2 -1</clus>
<clus scale="   80.473">  5  6 -1 -1</clus>
<clus scale="   81.083">  2  5  1 -1</clus>
<clus scale="   85.294">  7  8 -1 -1</clus>
<clus scale="   31.150">  1  5  2 -1</clus>
</clustering>
</event>
<event>
 9    1  0.3197504E-005  0.9261885E+02  0.7546771E-02  0.1301248E+00
         21   -1    0    0  501  502  0.00000000000E+00  0.00000000000E+00  0.52486517116E+02  0.52486517116E+02  0.00000000000E+00 0.  1.
          1   -1    0    0  502    0 -0.00000000000E+00 -0.00000000000E+00 -0.26628752483E+03  0.26628752483E+03  0.00000000000E+00 0. -1.
         23    2    1    2    0    0 -0.46436400511E+02  0.44215931560E+01 -0.13410382951E+03  0.16737713469E+03  0.88630572316E+02 0.  0.
        -24    2    1    2    0    0 -0.97235880783E+00  0.14859209926E+01 -0.45568709940E+02  0.92683692991E+02  0.80688327396E+02 0.  0.
         11    1    4    4    0    0  0.10088495951E+01 -0.30994071580E+02 -0.51005139884E+02  0.59692332382E+02  0.00000000000E+00 0. -1.
        -12    1    4    4    0    0 -0.19812084029E+01  0.32479992573E+02  0.54364299442E+01  0.32991360609E+02  0.00000000000E+00 0.  1.
        -13    1    3    3    0    0 -0.72663375370E+02  0.74955460176E+01 -0.10680477779E+03  0.12939632873E+03  0.00000000000E+00 0.  1.
         13    1    3    3    0    0  0.26226974859E+02 -0.30739528616E+01 -0.27299051721E+02  0.37980805960E+02  0.00000000000E+00 0. -1.
          2    1    1    2  501    0  0.47408759319E+02 -0.59075141487E+01 -0.34128468271E+02  0.58713214271E+02  0.00000000000E+00 0. -1.
<scales pt_clust_5="13000.00000" pt_clust_6="13000.00000" pt_clust_7="13000.00000" pt_clust_8="13000.00000" pt_clust_9="47.77540"></scales>
<clustering>
<clus scale="   47.775">  1  9  2 -1</clus>
<clus scale="   80.688">  5  6 -1 -1</clus>
<clus scale="   85.050">  1  5  2 -1</clus>
<clus scale="   88.631">  7  8 -1 -1</clus>
<clus scale="   47.775">  1  5  2 -1</clus>
</clustering>
</event>
<event>
 9    1  0.3197504E-005  0.9048421E+02  0.7546771E-02  0.1313931E+00
         -4   -1    0    0    0  501 -0.00000000000E+00  0.00000000000E+00  0.14733013824E+03  0.14733013824E+03  0.00000000000E+00 0.  1.
         21   -1    0    0  501  502  0.00000000000E+00 -0.00000000000E+00 -0.12835089160E+03  0.12835089160E+03  0.00000000000E+00 0.  1.
        -24    2    1    2    0    0 -0.15033822095E+02 -0.18097608224E+02  0.87829304024E+02  0.11521195276E+03  0.70754986985E+02 0.  0.
         23    2    1    2    0    0 -0.66726533240E+01 -0.15458947836E+02 -0.12832413673E+02  0.91656360698E+02  0.89177991933E+02 0.  0.
         13    1    3    3    0    0  0.21169605551E+02 -0.65442046704E+01  0.31300144115E+01  0.22378020559E+02  0.00000000000E+00 0. -1.
        -14    1    3    3    0    0 -0.36203427646E+02 -0.11553403553E+02  0.84699289613E+02  0.92833932201E+02  0.00000000000E+00 0.  1.
        -11    1    4    4    0    0 -0.42243255443E+02 -0.22210201162E+02 -0.24460463110E+02  0.53629282316E+02  0.00000000000E+00 0.  1.
         11    1    4    4    0    0  0.35570602119E+02  0.67512533260E+01  0.11628049437E+02  0.38027078382E+02  0.00000000000E+00 0. -1.
         -3    1    1    2    0  502  0.21706475419E+02  0.33556556060E+02 -0.56017643709E+02  0.68812716386E+02  0.00000000000E+00 0.  1.
<scales pt_clust_5="13000.00000" pt_clust_6="13000.00000" pt_clust_7="13000.00000" pt_clust_8="13000.00000" pt_clust_9="39.96515"></scales>
<clustering>
<clus scale="   39.965">  2  9  1 -1</clus>
<clus scale="   70.755">  5  6 -1 -1</clus>
<clus scale="   72.394">  1  5  2 -1</clus>
<clus scale="   89.178">  7  8 -1 -1</clus>
<clus scale="   39.965">  2  5  1 -1</clus>
</clustering>
</event>
<event>
 9    1  0.3197504E-005  0.1372133E+03  0.7546771E-02  0.1219463E+00
         21   -1    0    0  501  502  0.00000000000E+00  0.00000000000E+00  0.45635283874E+02  0.45635283874E+02  0.00000000000E+00 0. -1.
         -2   -1    0    0    0  501 -0.00000000000E+00 -0.00000000000E+00 -0.85170064937E+03  0.85170064937E+03  0.00000000000E+00 0.  1.
        -24    2    1    2    0    0 -0.11716889349E+03  0.66121295572E+02 -0.38143857083E+03  0.41250900104E+03  0.81041454172E+02 0.  0.
         23    2    1    2    0    0  0.13410574781E+02 -0.84999185846E+02 -0.19111209765E+03  0.22860188041E+03  0.91270371699E+02 0.  0.
         11    1    3    3    0    0 -0.12084741497E+03  0.36666495048E+02 -0.28808170443E+03  0.31454665471E+03  0.00000000000E+00 0. -1.
        -12    1    3    3    0    0  0.36785214816E+01  0.29454800524E+02 -0.93356866402E+02  0.97962346331E+02  0.00000000000E+00 0.  1.
        -13    1    4    4    0    0 -0.32994682099E+02 -0.66976542830E+02 -0.10028075257E+03  0.12502294059E+03  0.00000000000E+00 0. -1.
         13    1    4    4    0    0  0.46405256880E+02 -0.18022643016E+02 -0.90831345073E+02  0.10357893982E+03  0.00000000000E+00 0.  1.
         -1    1    1    2    0  502  0.10375831870E+03  0.18877890275E+02 -0.23351469702E+03  0.25622505179E+03  0.00000000000E+00 0.  1.
<scales pt_clust_5="13000.00000" pt_clust_6="13000.00000" pt_clust_7="13000.00000" pt_clust_8="13000.00000" pt_clust_9="105.46172"></scales>
<clustering>
<clus scale="   81.041">  5  6 -1 -1</clus>
<clus scale="   91.270">  7  8 -1 -1</clus>
<clus scale="  105.462">  1  9  2 -1</clus>
<clus scale="  130.633">  2  5  1 -1</clus>
<clus scale="  105.462">  1  5  2 -1</clus>
</clustering>
</event>
<event>
 9    1  0.3197504E-005  0.1021227E+03  0.7546771E-02  0.1286696E+00
         -4   -1    0    0    0  501 -0.00000000000E+00  0.00000000000E+00  0.53995728318E+03  0.53995728318E+03  0.00000000000E+00 0.  1.
         21   -1    0    0  501  502  0.00000000000E+00 -0.00000000000E+00 -0.42959514040E+02  0.42959514040E+02  0.00000000000E+00 0. -1.
         23    2    1    2    0    0 -0.54050598406E+02  0.16334165689E+02  0.19960297314E+03  0.22716073272E+03  0.92587145132E+02 0.  0.
        -24    2    1    2    0    0  0.15675564090E+02 -0.40429184052E+01  0.20294016041E+02  0.75740778724E+02  0.71153003983E+02 0.  0.
         11    1    4    4    0    0  0.18379954454E+02 -0.31526804251E+02 -0.67221079249E+01  0.37107261378E+02  0.00000000000E+00 0. -1.
        -12    1    4    4    0    0 -0.27043903645E+01  0.27483885845E+02  0.27016123966E+02  0.38633517346E+02  0.00000000000E+00 0.  1.
        -13    1    3    3    0    0  0.37837166168E+01 -0.19987566446E+02  0.50368758843E+01  0.20956847151E+02  0.00000000000E+00 0.  1.
         13    1    3    3    0    0 -0.57834315022E+02  0.36321732135E+02  0.19456609726E+03  0.20620388556E+03  0.00000000000E+00 0. -1.
         -3    1    1    2    0  502  0.38375034316E+02 -0.12291247284E+02  0.27710077996E+03  0.28001528578E+03  0.00000000000E+00 0.  1.
<scales pt_clust_5="13000.00000" pt_clust_6="13000.00000" pt_clust_7="13000.00000" pt_clust_8="13000.00000" pt_clust_9="40.29540"></scales>
<clustering>
<clus scale="   40.295">  2  9  1 -1</clus>
<clus scale="   71.153">  5  6 -1 -1</clus>
<clus scale="   83.183">  2  5  1 -1</clus>
<clus scale="   92.587">  7  8 -1 -1</clus>
<clus scale="   40.295">  2  5  1 -1</clus>
</clustering>
</event>
<event>
 9    1  0.3197504E-005  0.9347520E+02  0.7546771E-02  0.1301908E+00
         -4   -1    0    0    0  501 -0.00000000000E+00  0.00000000000E+00  0.17243354013E+03  0.17243354013E+03  0.00000000000E+00 0.  1.
         21   -1    0    0  501  502  0.00000000000E+00 -0.00000000000E+00 -0.71852777456E+02  0.71852777456E+02  0.00000000000E+00 0.  1.
        -24    2    1    2    0    0  0.20043995271E+02  0.48668979997E+01  0.83684664843E+02  0.11768179596E+03  0.80127607770E+02 0.  0.
         23    2    1    2    0    0 -0.55253844210E+01  0.22055434187E+02  0.11317106197E+02  0.95512284991E+02  0.92073599046E+02 0.  0.
         13    1    3    3    0    0  0.11344550802E+02 -0.25368209554E+02 -0.51720301301E+00  0.27794107070E+02  0.00000000000E+00 0. -1.
        -14    1    3    3    0    0  0.86994444688E+01  0.30235107553E+02  0.84201867856E+02  0.89887688886E+02  0.00000000000E+00 0.  1.
        -11    1    4    4    0    0  0.10081823272E+02 -0.19731392859E+02 -0.28238282085E+02  0.35893893628E+02  0.00000000000E+00 0.  1.
         11    1    4    4    0    0 -0.15607207693E+02  0.41786827046E+02  0.39555388283E+02  0.59618391363E+02  0.00000000000E+00 0. -1.
         -3    1    1    2    0  502 -0.14518610850E+02 -0.26922332187E+02  0.55789916292E+01  0.31092236635E+02  0.00000000000E+00 0.  1.
<scales pt_clust_5="13000.00000" pt_clust_6="13000.00000" pt_clust_7="13000.00000" pt_clust_8="13000.00000" pt_clust_9="30.58761"></scales>
<clustering>
<clus scale="   30.588">  2  9  1 -1</clus>
<clus scale="   80.128">  5  6 -1 -1</clus>
<clus scale="   81.734">  1  5  2 -1</clus>
<clus scale="   92.074">  7  8 -1 -1</clus>
<clus scale="   30.588">  2  5  1 -1</clus>
</clustering>
</event>
<event>
 9    1  0.3197504E-005  0.1021276E+03  0.7546771E-02  0.1279737E+00
         21   -1    0    0  501  502  0.00000000000E+00  0.00000000000E+00  0.16165470273E+03  0.16165470273E+03  0.00000000000E+00 0. -1.
          1   -1    0    0  502    0 -0.00000000000E+00 -0.00000000000E+00 -0.50729931642E+03  0.50729931642E+03  0.00000000000E+00 0. -1.
        -24    2    1    2    0    0  0.45979811124E+02  0.17459319663E+02 -0.47407660532E+03  0.48364462234E+03  0.82125039623E+02 0.  0.
         23    2    1    2    0    0 -0.10305688165E+02 -0.17582052427E+02  0.67288808588E+02  0.11451994176E+03  0.90397442022E+02 0.  0.
         11    1    3    3    0    0  0.68314300628E+02  0.19515801308E+02 -0.30969961123E+03  0.31774448755E+03  0.00000000000E+00 0. -1.
        -12    1    3    3    0    0 -0.22334489504E+02 -0.20564816452E+01 -0.16437699409E+03  0.16590013480E+03  0.00000000000E+00 0.  1.
        -13    1    4    4    0    0  0.95902361464E+01  0.34959300645E+02  0.22461737703E+02  0.42645691360E+02  0.00000000000E+00 0.  1.
         13    1    4    4    0    0 -0.19895924311E+02 -0.52541353072E+02  0.44827070885E+02  0.71874250403E+02  0.00000000000E+00 0. -1.
          2    1    1    2  501    0 -0.35674122959E+02  0.12273276354E+00  0.61143183044E+02  0.70789455041E+02  0.00000000000E+00 0. -1.
<scales pt_clust_5="13000.00000" pt_clust_6="13000.00000" pt_clust_7="13000.00000" pt_clust_8="13000.00000" pt_clust_9="35.67433"></scales>
<clustering>
<clus scale="   35.674">  1  9  2 -1</clus>
<clus scale="   82.125">  5  6 -1 -1</clus>
<clus scale="   90.397">  7  8 -1 -1</clus>
<clus scale="   94.883">  2  5  1 -1</clus>
<clus scale="   35.674">  1  5  2 -1</clus>
</clustering>
</event>
<event>
 9    1  0.3197504E-005  0.9716993E+02  0.7546771E-02  0.1295133E+00
         -2   -1    0    0    0  501 -0.00000000000E+00  0.00000000000E+00  0.67752629932E+03  0.67752629932E+03  0.00000000000E+00 0.  1.
         21   -1    0    0  501  502  0.00000000000E+00 -0.00000000000E+00 -0.90200685490E+02  0.90200685490E+02  0.00000000000E+00 0. -1.
        -24    2    1    2    0    0 -0.72887557263E+01  0.22092243178E+02  0.53147091783E+03  0.53764641216E+03  0.77853290503E+02 0.  0.
         23    2    1    2    0    0 -0.32147142344E+01 -0.58042514434E+02  0.11563255170E+03  0.15953883384E+03  0.93287108546E+02 0.  0.
         13    1    3    3    0    0 -0.25761897967E+02 -0.15540374163E+02  0.10821651439E+03  0.11232093573E+03  0.00000000000E+00 0. -1.
        -14    1    3    3    0    0  0.18473142241E+02  0.37632617341E+02  0.42325440344E+03  0.42532547643E+03  0.00000000000E+00 0.  1.
        -13    1    4    4    0    0 -0.15443877320E+02 -0.26384289479E+02 -0.77787779692E+01  0.31546053076E+02  0.00000000000E+00 0. -1.
         13    1    4    4    0    0  0.12229163086E+02 -0.31658224955E+02  0.12341132966E+03  0.12799278076E+03  0.00000000000E+00 0.  1.
         -1    1    1    2    0  502  0.10503469961E+02  0.35950271256E+02 -0.59777855690E+02  0.70541738818E+02  0.00000000000E+00 0.  1.
<scales pt_clust_5="13000.00000" pt_clust_6="13000.00000" pt_clust_7="13000.00000" pt_clust_8="13000.00000" pt_clust_9="37.45324"></scales>
<clustering>
<clus scale="   37.453">  2  9  1 -1</clus>
<clus scale="   77.853">  5  6 -1 -1</clus>
<clus scale="   82.466">  1  5  2 -1</clus>
<clus scale="   93.287">  7  8 -1 -1</clus>
<clus scale="   37.453">  2  5  1 -1</clus>
</clustering>
</event>
<event>
 9    1  0.3197504E-005  0.1360866E+03  0.7546771E-02  0.1221076E+00
          1   -1    0    0  502    0 -0.00000000000E+00  0.00000000000E+00  0.26248137105E+03  0.26248137105E+03  0.00000000000E+00 0. -1.
         21   -1    0    0  501  502  0.00000000000E+00 -0.00000000000E+00 -0.15252532069E+03  0.15252532069E+03  0.00000000000E+00 0. -1.
        -24    2    1    2    0    0 -0.55115053115E+02  0.70042268939E+02  0.10569815307E+03  0.15981997442E+03  0.80166926735E+02 0.  0.
         23    2    1    2    0    0  0.28258400600E+02 -0.13806654427E+03  0.42311246410E+02  0.17274498518E+03  0.90496853426E+02 0.  0.
         11    1    3    3    0    0 -0.57370421451E+02  0.10131773702E+02  0.65383805182E+02  0.87573169840E+02  0.00000000000E+00 0. -1.
        -12    1    3    3    0    0  0.22553683360E+01  0.59910495237E+02  0.40314347887E+02  0.72246804576E+02  0.00000000000E+00 0.  1.
        -13    1    4    4    0    0 -0.14081139013E+02 -0.35234750900E+02  0.48246194148E+02  0.61379649695E+02  0.00000000000E+00 0.  1.
         13    1    4    4    0    0  0.42339539614E+02 -0.10283179337E+03 -0.59349477374E+01  0.11136533549E+03  0.00000000000E+00 0. -1.
          2    1    1    2  501    0  0.26856652515E+02  0.68024275335E+02 -0.38053349125E+02  0.82441732143E+02  0.00000000000E+00 0. -1.
<scales pt_clust_5="13000.00000" pt_clust_6="13000.00000" pt_clust_7="13000.00000" pt_clust_8="13000.00000" pt_clust_9="73.13400"></scales>
<clustering>
<clus scale="   73.134">  2  9  1 -1</clus>
<clus scale="   80.167">  5  6 -1 -1</clus>
<clus scale="   90.497">  7  8 -1 -1</clus>
<clus scale="  129.447">  1  5  2 -1</clus>
<clus scale="   73.134">  2  5  1 -1</clus>
</clustering>
</event>
<event>
 9    1  0.3197504E-005  0.2027484E+03  0.7546771E-02  0.1147441E+00
         21   -1    0    0  501  502  0.00000000000E+00  0.00000000000E+00  0.81097815626E+03  0.81097815626E+03  0.00000000000E+00 0.  1.
         -2   -1    0    0    0  501 -0.00000000000E+00 -0.00000000000E+00 -0.62580937761E+02  0.62580937761E+02  0.00000000000E+00 0.  1.
        -24    2    1    2    0    0 -0.57069284301E+02  0.59952261596E+01  0.52755195425E+02  0.11232985028E+03  0.80882870076E+02 0.  0.
         23    2    1    2    0    0 -0.40399909637E+02 -0.25028596774E+02  0.63602346225E+02  0.12143500645E+03  0.91883725386E+02 0.  0.
         13    1    3    3    0    0 -0.34792754597E+02  0.34741255603E+02  0.57498829362E+02  0.75654517323E+02  0.00000000000E+00 0. -1.
        -14    1    3    3    0    0 -0.22276529705E+02 -0.28746029444E+02 -0.47436339370E+01  0.36675332955E+02  0.00000000000E+00 0.  1.
        -11    1    4    4    0    0 -0.37841403842E+01 -0.30162961038E+02 -0.15496388966E+02  0.34121283798E+02  0.00000000000E+00 0. -1.
         11    1    4    4    0    0 -0.36615769252E+02  0.51343642636E+01  0.79098735192E+02  0.87313722651E+02  0.00000000000E+00 0.  1.
         -1    1    1    2    0  502  0.97469193938E+02  0.19033370615E+02  0.63203967685E+03  0.63979423729E+03  0.00000000000E+00 0.  1.
<scales pt_clust_5="13000.00000" pt_clust_6="13000.00000" pt_clust_7="13000.00000" pt_clust_8="13000.00000" pt_clust_9="99.31019"></scales>
<clustering>
<clus scale="   80.883">  5  6 -1 -1</clus>
<clus scale="   91.884">  7  8 -1 -1</clus>
<clus scale="   97.009">  5  7 -1 -1</clus>
<clus scale="   99.310">  1  9  2 -1</clus>
<clus scale="   99.310">  1  5  2 -1</clus>
</clustering>
</event>
<event>
 9    1  0.3197504E-005  0.9201597E+02  0.7546771E-02  0.1304656E+00
         21   -1    0    0  501  502  0.00000000000E+00  0.00000000000E+00  0.34919300456E+03  0.34919300456E+03  0.00000000000E+00 0. -1.
         -2   -1    0    0    0  501 -0.00000000000E+00 -0.00000000000E+00 -0.30438069530E+02  0.30438069530E+02  0.00000000000E+00 0.  1.
         23    2    1    2    0    0  0.25142188736E+01 -0.35930492750E+01  0.11404752749E+03  0.14639052303E+03  0.91673962533E+02 0.  0.
        -24    2    1    2    0    0  0.21862520658E+02  0.14469320531E+01  0.17911421143E+03  0.19783090638E+03  0.81087011055E+02 0.  0.
         13    1    4    4    0    0  0.21881714241E+02 -0.26812528872E+02  0.16003375329E+03  0.16373308559E+03  0.00000000000E+00 0. -1.
        -14    1    4    4    0    0 -0.19193583185E-01  0.28259460926E+02  0.19080458134E+02  0.34097820792E+02  0.00000000000E+00 0.  1.
        -13    1    3    3    0    0  0.14765461178E+02 -0.44015271151E+02  0.40649724047E+02  0.61707074176E+02  0.00000000000E+00 0. -1.
         13    1    3    3    0    0 -0.12251242304E+02  0.40422221876E+02  0.73397803445E+02  0.84683448854E+02  0.00000000000E+00 0.  1.
         -1    1    1    2    0  502 -0.24376739531E+02  0.21461172219E+01  0.25593196114E+02  0.35409644684E+02  0.00000000000E+00 0.  1.
<scales pt_clust_5="13000.00000" pt_clust_6="13000.00000" pt_clust_7="13000.00000" pt_clust_8="13000.00000" pt_clust_9="24.47104"></scales>
<clustering>
<clus scale="   24.471">  1  9  2 -1</clus>
<clus scale="   81.087">  5  6 -1 -1</clus>
<clus scale="   81.473">  1  5  2 -1</clus>
<clus scale="   91.674">  7  8 -1 -1</clus>
<clus scale="   24.471">  1  5  2 -1</clus>
</clustering>
</event>
<event>
 9    1  0.3197504E-005  0.1088492E+03  0.7546771E-02  0.1267384E+00
         21   -1    0    0  501  502  0.00000000000E+00  0.00000000000E+00  0.22718402657E+03  0.22718402657E+03  0.00000000000E+00 0. -1.
         -2   -1    0    0    0  501 -0.00000000000E+00 -0.00000000000E+00 -0.17447494285E+03  0.17447494285E+03  0.00000000000E+00 0.  1.
        -24    2    1    2    0    0  0.54517629426E+01  0.53552151609E+02 -0.10623845750E+03  0.14340595157E+03  0.79881802892E+02 0.  0.
         23    2    1    2    0    0 -0.27716143187E+02 -0.79265013186E+02  0.33895538280E+02  0.12865804372E+03  0.91393970205E+02 0.  0.
         11    1    3    3    0    0  0.21248480221E+02 -0.12997008210E+01  0.16456351335E+01  0.21351703653E+02  0.00000000000E+00 0. -1.
        -12    1    3    3    0    0 -0.15796717278E+02  0.54851852430E+02 -0.10788409263E+03  0.12205424792E+03  0.00000000000E+00 0.  1.
        -13    1    4    4    0    0 -0.14937823346E+02 -0.98437679626E+02  0.19400795959E+02  0.10143720333E+03  0.00000000000E+00 0. -1.
         13    1    4    4    0    0 -0.12778319841E+02  0.19172666439E+02  0.14494742321E+02  0.27220840386E+02  0.00000000000E+00 0.  1.
         -1    1    1    2    0  502  0.22264380244E+02  0.25712861578E+02  0.12505200294E+03  0.12959497412E+03  0.00000000000E+00 0.  1.
<scales pt_clust_5="13000.00000" pt_clust_6="13000.00000" pt_clust_7="13000.00000" pt_clust_8="13000.00000" pt_clust_9="34.01255"></scales>
<clustering>
<clus scale="   34.013">  1  9  2 -1</clus>
<clus scale="   79.882">  5  6 -1 -1</clus>
<clus scale="   91.394">  7  8 -1 -1</clus>
<clus scale="   99.380">  2  5  1 -1</clus>
<clus scale="   34.013">  1  5  2 -1</clus>
</clustering>
</event>
<event>
 9    1  0.3197504E-005  0.1073383E+03  0.7546771E-02  0.1270620E+00
         21   -1    0    0  501  502  0.00000000000E+00  0.00000000000E+00  0.12151085762E+03  0.12151085762E+03  0.00000000000E+00 0.  1.
         -2   -1    0    0    0  501 -0.00000000000E+00 -0.00000000000E+00 -0.37443443057E+03  0.37443443057E+03  0.00000000000E+00 0.  1.
        -24    2    1    2    0    0  0.57555264244E+02 -0.23284934585E+02 -0.13423866815E+03  0.16775877592E+03  0.79171903176E+02 0.  0.
         23    2    1    2    0    0 -0.46561092857E+02 -0.75998421326E+02 -0.17266616704E+03  0.21464342248E+03  0.91183870075E+02 0.  0.
         13    1    3    3    0    0  0.53514666725E+02 -0.50203590209E+02 -0.99218058539E+02  0.12340357841E+03  0.00000000000E+00 0. -1.
        -14    1    3    3    0    0  0.40405975185E+01  0.26918655625E+02 -0.35020609607E+02  0.44355197511E+02  0.00000000000E+00 0.  1.
        -11    1    4    4    0    0 -0.59922684252E+02 -0.58459391017E+02 -0.68498423978E+02  0.10816775200E+03  0.00000000000E+00 0.  1.
         11    1    4    4    0    0  0.13361591395E+02 -0.17539030310E+02 -0.10416774307E+03  0.10647567048E+03  0.00000000000E+00 0. -1.
         -1    1    1    2    0  502 -0.10994171387E+02  0.99283355911E+02  0.53981262235E+02  0.11354308979E+03  0.00000000000E+00 0.  1.
<scales pt_clust_5="13000.00000" pt_clust_6="13000.00000" pt_clust_7="13000.00000" pt_clust_8="13000.00000" pt_clust_9="99.89022"></scales>
<clustering>
<clus scale="   79.172">  5  6 -1 -1</clus>
<clus scale="   91.184">  7  8 -1 -1</clus>
<clus scale="   99.890">  1  9  2 -1</clus>
<clus scale="   97.341">  2  5  1 -1</clus>
<clus scale="   99.890">  1  5  2 -1</clus>
</clustering>
</event>
<event>
 9    1  0.3197504E-005  0.1039252E+03  0.7546771E-02  0.1276951E+00
         21   -1    0    0  501  502  0.00000000000E+00  0.00000000000E+00  0.10458448201E+03  0.10458448201E+03  0.00000000000E+00 0. -1.
          1   -1    0    0  502    0 -0.00000000000E+00 -0.00000000000E+00 -0.21477851489E+03  0.21477851489E+03  0.00000000000E+00 0. -1.
         23    2    1    2    0    0  0.51894773402E+02  0.57133755542E+01 -0.15410957332E+03  0.18630527668E+03  0.90742412156E+02 0.  0.
        -24    2    1    2    0    0 -0.39741475943E+02 -0.24219321919E+02  0.55413301994E+02  0.10811035140E+03  0.80319696077E+02 0.  0.
         13    1    4    4    0    0 -0.54984033765E+01  0.19428830198E+02  0.48083106551E+02  0.52150714455E+02  0.00000000000E+00 0. -1.
        -14    1    4    4    0    0 -0.34243072567E+02 -0.43648152117E+02  0.73301954433E+01  0.55959636947E+02  0.00000000000E+00 0.  1.
        -13    1    3    3    0    0 -0.80632706212E+01  0.35796466409E+02 -0.66639533598E+02  0.76073850820E+02  0.00000000000E+00 0.  1.
         13    1    3    3    0    0  0.59958044023E+02 -0.30083090855E+02 -0.87470039722E+02  0.11023142586E+03  0.00000000000E+00 0. -1.
          2    1    1    2  501    0 -0.12153297459E+02  0.18505946365E+02 -0.11497761556E+02  0.24947368815E+02  0.00000000000E+00 0. -1.
<scales pt_clust_5="13000.00000" pt_clust_6="13000.00000" pt_clust_7="13000.00000" pt_clust_8="13000.00000" pt_clust_9="22.13986"></scales>
<clustering>
<clus scale="   22.140">  1  9  2 -1</clus>
<clus scale="   80.320">  5  6 -1 -1</clus>
<clus scale="   90.742">  7  8 -1 -1</clus>
<clus scale="   94.961">  1  5  2 -1</clus>
<clus scale="   22.140">  1  5  2 -1</clus>
</clustering>
</event>
<event>
 9    1  0.3197504E-005  0.1060055E+03  0.7546771E-02  0.1274235E+00
         21   -1    0    0  501  502  0.00000000000E+00  0.00000000000E+00  0.76709204427E+02  0.76709204427E+02  0.00000000000E+00 0.  1.
         -2   -1    0    0    0  501 -0.00000000000E+00 -0.00000000000E+00 -0.32047162923E+03  0.32047162923E+03  0.00000000000E+00 0.  1.
         23    2    1    2    0    0  0.45190730846E+02  0.58510017402E+01 -0.16786058871E+03  0.19634334123E+03  0.91088385796E+02 0.  0.
        -24    2    1    2    0    0 -0.54295007199E+02 -0.56971621602E+02 -0.95034601147E+02  0.14549972665E+03  0.77103058083E+02 0.  0.
         11    1    4    4    0    0  0.13127380408E+02 -0.37439620836E+02 -0.39600416361E+02  0.56055742799E+02  0.00000000000E+00 0. -1.
        -12    1    4    4    0    0 -0.67422387607E+02 -0.19532000765E+02 -0.55434184785E+02  0.89443983852E+02  0.00000000000E+00 0.  1.
        -13    1    3    3    0    0  0.40449519534E+02 -0.13967451034E+02 -0.17050655051E+03  0.17579458776E+03  0.00000000000E+00 0.  1.
         13    1    3    3    0    0  0.47412113117E+01  0.19818452774E+02  0.26459618044E+01  0.20548753464E+02  0.00000000000E+00 0. -1.
         -1    1    1    2    0  502  0.91042763531E+01  0.51120619861E+02  0.19132765052E+02  0.55337765779E+02  0.00000000000E+00 0.  1.
<scales pt_clust_5="13000.00000" pt_clust_6="13000.00000" pt_clust_7="13000.00000" pt_clust_8="13000.00000" pt_clust_9="51.92500"></scales>
<clustering>
<clus scale="   51.925">  1  9  2 -1</clus>
<clus scale="   77.103">  5  6 -1 -1</clus>
<clus scale="   91.088">  7  8 -1 -1</clus>
<clus scale="   94.260">  1  5  2 -1</clus>
<clus scale="   51.925">  1  5  2 -1</clus>
</clustering>
</event>
<event>
 9    1  0.3197504E-005  0.1304633E+03  0.7546771E-02  0.1238063E+00
         21   -1    0    0  501  502  0.00000000000E+00  0.00000000000E+00  0.82692628133E+02  0.82692628133E+02  0.00000000000E+00 0. -1.
          1   -1    0    0  502    0 -0.00000000000E+00 -0.00000000000E+00 -0.53803023529E+03  0.53803023529E+03  0.00000000000E+00 0. -1.
        -24    2    1    2    0    0  0.13972490366E+02  0.58898612144E+02 -0.34728784899E+03  0.36236048411E+03  0.83856981765E+02 0.  0.
         23    2    1    2    0    0 -0.41583603539E+02  0.55271567466E+02 -0.47282636423E+02  0.12611319569E+03  0.94258942106E+02 0.  0.
         11    1    3    3    0    0 -0.11947699855E+02  0.67175609837E+02 -0.30127536163E+03  0.30890476463E+03  0.00000000000E+00 0. -1.
        -12    1    3    3    0    0  0.25920190220E+02 -0.82769976929E+01 -0.46012487361E+02  0.53455719479E+02  0.00000000000E+00 0.  1.
        -13    1    4    4    0    0 -0.87136598961E+01 -0.25743171249E+02 -0.22380771688E+02  0.35207068553E+02  0.00000000000E+00 0.  1.
         13    1    4    4    0    0 -0.32869943643E+02  0.81014738715E+02 -0.24901864735E+02  0.90906127139E+02  0.00000000000E+00 0. -1.
          2    1    1    2  501    0  0.27611113173E+02 -0.11417017961E+03 -0.60767121742E+02  0.13224918362E+03  0.00000000000E+00 0. -1.
<scales pt_clust_5="13000.00000" pt_clust_6="13000.00000" pt_clust_7="13000.00000" pt_clust_8="13000.00000" pt_clust_9="90.19936"></scales>
<clustering>
<clus scale="   83.857">  5  6 -1 -1</clus>
<clus scale="   94.259">  7  8 -1 -1</clus>
<clus scale="  103.423">  2  5  1 -1</clus>
<clus scale="   90.199">  1  9  2 -1</clus>
<clus scale="   90.199">  1  5  2 -1</clus>
</clustering>
</event>
<event>
 9    1  0.3197504E-005  0.1073730E+03  0.7546771E-02  0.1272268E+00
         21   -1    0    0  501  502  0.00000000000E+00  0.00000000000E+00  0.21508557964E+03  0.21508557964E+03  0.00000000000E+00 0.  1.
          1   -1    0    0  502    0 -0.00000000000E+00 -0.00000000000E+00 -0.10725163347E+03  0.10725163347E+03  0.00000000000E+00 0. -1.
         23    2    1    2    0    0  0.41149015220E+02 -0.42478864254E+02 -0.51067439197E+02  0.12277218924E+03  0.94696524451E+02 0.  0.
        -24    2    1    2    0    0 -0.19029139717E+02  0.16966847084E+02  0.89370563486E+02  0.12226892369E+03  0.79451935308E+02 0.  0.
         11    1    4    4    0    0 -0.11022668367E+02 -0.30356503450E+02  0.20251879424E+02  0.38120272033E+02  0.00000000000E+00 0. -1.
        -12    1    4    4    0    0 -0.80064713498E+01  0.47323350534E+02  0.69118684061E+02  0.84148651657E+02  0.00000000000E+00 0.  1.
        -11    1    3    3    0    0  0.43328559031E+02  0.17313258172E+02 -0.40970781672E+02  0.62094427182E+02  0.00000000000E+00 0.  1.
         11    1    3    3    0    0 -0.21795438111E+01 -0.59792122426E+02 -0.10096657525E+02  0.60677762060E+02  0.00000000000E+00 0. -1.
          2    1    1    2  501    0 -0.22119875503E+02  0.25512017170E+02  0.69530821881E+02  0.77296100185E+02  0.00000000000E+00 0. -1.
<scales pt_clust_5="13000.00000" pt_clust_6="13000.00000" pt_clust_7="13000.00000" pt_clust_8="13000.00000" pt_clust_9="33.76614"></scales>
<clustering>
<clus scale="   33.766">  1  9  2 -1</clus>
<clus scale="   79.452">  5  6 -1 -1</clus>
<clus scale="   94.203">  1  5  2 -1</clus>
<clus scale="   94.697">  7  8 -1 -1</clus>
<clus scale="   33.766">  1  5  2 -1</clus>
</clustering>
</event>
<event>
 9    1  0.3197504E-005  0.2973643E+03  0.7546771E-02  0.1087012E+00
          1   -1    0    0  502    0 -0.00000000000E+00  0.00000000000E+00  0.43693439898E+03  0.43693439898E+03  0.00000000000E+00 0. -1.
         21   -1    0    0  501  502  0.00000000000E+00 -0.00000000000E+00 -0.37519264946E+03  0.37519264946E+03  0.00000000000E+00 0. -1.
         23    2    1    2    0    0  0.17822338396E+03 -0.12343771844E+03  0.96912448757E+01  0.23585624374E+03  0.92378582800E+02 0.  0.
        -24    2    1    2    0    0 -0.25063999703E+03  0.28572237633E+03  0.79288022365E+02  0.39648660515E+03  0.80357657535E+02 0.  0.
         11    1    4    4    0    0 -0.24157449445E+03  0.26566901318E+03  0.92520250924E+02  0.37080757512E+03  0.00000000000E+00 0. -1.
        -12    1    4    4    0    0 -0.90655025747E+01  0.20053363148E+02 -0.13232228559E+02  0.25679030027E+02  0.00000000000E+00 0.  1.
        -13    1    3    3    0    0  0.16264366964E+03 -0.10161966619E+03 -0.23472900080E+02  0.19321101643E+03  0.00000000000E+00 0. -1.
         13    1    3    3    0    0  0.15579714328E+02 -0.21818052241E+02  0.33164144955E+02  0.42645227315E+02  0.00000000000E+00 0.  1.
          2    1    1    2  501    0  0.72416613064E+02 -0.16228465790E+03 -0.27237517717E+02  0.17978419955E+03  0.00000000000E+00 0. -1.
<scales pt_clust_5="13000.00000" pt_clust_6="13000.00000" pt_clust_7="13000.00000" pt_clust_8="13000.00000" pt_clust_9="177.70896"></scales>
<clustering>
<clus scale="   80.358">  5  6 -1 -1</clus>
<clus scale="   92.379">  7  8 -1 -1</clus>
<clus scale="  177.709">  2  9  1 -1</clus>
<clus scale="  293.852">  2  5  1 -1</clus>
<clus scale="  177.709">  2  5  1 -1</clus>
</clustering>
</event>
<event>
 9    1  0.3197504E-005  0.1101062E+03  0.7546771E-02  0.1262320E+00
         -4   -1    0    0    0  501 -0.00000000000E+00  0.00000000000E+00  0.32127840048E+03  0.32127840048E+03  0.00000000000E+00 0.  1.
         21   -1    0    0  501  502  0.00000000000E+00 -0.00000000000E+00 -0.11149328888E+03  0.11149328888E+03  0.00000000000E+00 0. -1.
         23    2    1    2    0    0  0.11003007538E+02  0.62947945146E+02  0.26777968524E+03  0.29014065852E+03  0.91608579977E+02 0.  0.
        -24    2    1    2    0    0  0.13802686064E+02 -0.43379386677E+02 -0.50729830432E+02  0.11021147796E+03  0.86606979210E+02 0.  0.
         11    1    4    4    0    0 -0.35046972327E+02 -0.99954492074E+01 -0.30987008406E+02  0.47837160912E+02  0.00000000000E+00 0. -1.
        -12    1    4    4    0    0  0.48849658391E+02 -0.33383937470E+02 -0.19742822025E+02  0.62374317050E+02  0.00000000000E+00 0.  1.
        -11    1    3    3    0    0 -0.23715814205E+02 -0.11557508087E+02  0.98316099690E+02  0.10179425964E+03  0.00000000000E+00 0. -1.
         11    1    3    3    0    0  0.34718821742E+02  0.74505453233E+02  0.16946358555E+03  0.18834639888E+03  0.00000000000E+00 0.  1.
         -3    1    1    2    0  502 -0.24805693601E+02 -0.19568558469E+02 -0.72647432079E+01  0.32419552888E+02  0.00000000000E+00 0.  1.
<scales pt_clust_5="13000.00000" pt_clust_6="13000.00000" pt_clust_7="13000.00000" pt_clust_8="13000.00000" pt_clust_9="31.59511"></scales>
<clustering>
<clus scale="   31.595">  2  9  1 -1</clus>
<clus scale="   86.607">  5  6 -1 -1</clus>
<clus scale="   91.609">  7  8 -1 -1</clus>
<clus scale="  105.981">  2  5  1 -1</clus>
<clus scale="   31.595">  2  5  1 -1</clus>
</clustering>
</event>
<event>
 9    1  0.3197504E-005  0.1369665E+03  0.7546771E-02  0.1242547E+00
         21   -1    0    0  501  502  0.00000000000E+00  0.00000000000E+00  0.75425297374E+03  0.75425297374E+03  0.00000000000E+00 0. -1.
          1   -1    0    0  502    0 -0.00000000000E+00 -0.00000000000E+00 -0.71406047805E+02  0.71406047805E+02  0.00000000000E+00 0. -1.
        -24    2    1    2    0    0 -0.10284095027E+02 -0.37974396358E+01  0.20103039606E+03  0.21696150295E+03  0.80863406234E+02 0.  0.
         23    2    1    2    0    0 -0.44129926803E+02 -0.84172058140E+02  0.16918982528E+02  0.13243157624E+03  0.90661373275E+02 0.  0.
         13    1    3    3    0    0 -0.27834813785E+02  0.23065765865E+02  0.45281908202E+02  0.57941846914E+02  0.00000000000E+00 0. -1.
        -14    1    3    3    0    0  0.17550718758E+02 -0.26863205500E+02  0.15574848785E+03  0.15901965604E+03  0.00000000000E+00 0.  1.
        -11    1    4    4    0    0 -0.25736551021E+02 -0.38323267695E+02 -0.37104540695E+02  0.59226597450E+02  0.00000000000E+00 0. -1.
         11    1    4    4    0    0 -0.18393375782E+02 -0.45848790444E+02  0.54023523224E+02  0.73204978788E+02  0.00000000000E+00 0.  1.
          2    1    1    2  501    0  0.54414021830E+02  0.87969497775E+02  0.46489754735E+03  0.47626594235E+03  0.00000000000E+00 0. -1.
<scales pt_clust_5="13000.00000" pt_clust_6="13000.00000" pt_clust_7="13000.00000" pt_clust_8="13000.00000" pt_clust_9="102.66617"></scales>
<clustering>
<clus scale="   80.863">  5  6 -1 -1</clus>
<clus scale="   81.603">  2  5  1 -1</clus>
<clus scale="   90.661">  7  8 -1 -1</clus>
<clus scale="  102.666">  1  9  2 -1</clus>
<clus scale="  102.666">  1  5  2 -1</clus>
</clustering>
</event>
<event>
 9    1  0.3197504E-005  0.9430625E+02  0.7546771E-02  0.1297993E+00
         -2   -1    0    0    0  501 -0.00000000000E+00  0.00000000000E+00  0.84503387999E+02  0.84503387999E+02  0.00000000000E+00 0.  1.
         21   -1    0    0  501  502  0.00000000000E+00 -0.00000000000E+00 -0.25454095365E+03  0.25454095365E+03  0.00000000000E+00 0. -1.
        -24    2    1    2    0    0 -0.20087275433E+02 -0.54397659157E+01  0.33088714352E+02  0.90287478607E+02  0.81387198552E+02 0.  0.
         23    2    1    2    0    0  0.51606295989E+02  0.17503019569E+02 -0.12521737594E+03  0.16385239862E+03  0.90546406989E+02 0.  0.
         11    1    3    3    0    0  0.16983093502E+02 -0.26115445768E+02  0.36162231510E+02  0.47729958730E+02  0.00000000000E+00 0. -1.
        -12    1    3    3    0    0 -0.37070368935E+02  0.20675679852E+02 -0.30735171584E+01  0.42557519877E+02  0.00000000000E+00 0.  1.
        -11    1    4    4    0    0  0.10335919351E+01  0.36715606112E+02 -0.12455519947E+02  0.38784584845E+02  0.00000000000E+00 0.  1.
         11    1    4    4    0    0  0.50572704054E+02 -0.19212586544E+02 -0.11276185599E+03  0.12506781378E+03  0.00000000000E+00 0. -1.
         -1    1    1    2    0  502 -0.31519020556E+02 -0.12063253653E+02 -0.77908904070E+02  0.84904464422E+02  0.00000000000E+00 0.  1.
<scales pt_clust_5="13000.00000" pt_clust_6="13000.00000" pt_clust_7="13000.00000" pt_clust_8="13000.00000" pt_clust_9="33.74864"></scales>
<clustering>
<clus scale="   33.749">  2  9  1 -1</clus>
<clus scale="   81.387">  5  6 -1 -1</clus>
<clus scale="   85.551">  1  5  2 -1</clus>
<clus scale="   90.546">  7  8 -1 -1</clus>
<clus scale="   33.749">  2  5  1 -1</clus>
</clustering>
</event>
<event>
 9    1  0.3197504E-005  0.1262125E+03  0.7546771E-02  0.1247876E+00
          1   -1    0    0  502    0 -0.00000000000E+00  0.00000000000E+00  0.72388457657E+03  0.72388457657E+03  0.00000000000E+00 0. -1.
         21   -1    0    0  501  502  0.00000000000E+00 -0.00000000000E+00 -0.47575440796E+02  0.47575440796E+02  0.00000000000E+00 0. -1.
        -24    2    1    2    0    0 -0.11196744338E+02 -0.47085393050E+02  0.40138557607E+03  0.41217254176E+03  0.80208616663E+02 0.  0.
         23    2    1    2    0    0  0.66124184520E+02 -0.40628251226E+02  0.20293456906E+03  0.23321955006E+03  0.84769432186E+02 0.  0.
         11    1    3    3    0    0  0.56721306138E+01 -0.64744407869E+02  0.33906733575E+03  0.34524001736E+03  0.00000000000E+00 0. -1.
        -12    1    3    3    0    0 -0.16868874952E+02  0.17659014819E+02  0.62318240318E+02  0.66932524402E+02  0.00000000000E+00 0.  1.
        -11    1    4    4    0    0  0.47085398275E+02 -0.67225187232E+02  0.13968084407E+03  0.16200925507E+03  0.00000000000E+00 0.  1.
         11    1    4    4    0    0  0.19038786244E+02  0.26596936006E+02  0.63253724994E+02  0.71210294988E+02  0.00000000000E+00 0. -1.
          2    1    1    2  501    0 -0.54927440181E+02  0.87713644276E+02  0.71988990647E+02  0.12606792555E+03  0.00000000000E+00 0. -1.
<scales pt_clust_5="13000.00000" pt_clust_6="13000.00000" pt_clust_7="13000.00000" pt_clust_8="13000.00000" pt_clust_9="93.50799"></scales>
<clustering>
<clus scale="   80.209">  5  6 -1 -1</clus>
<clus scale="   84.769">  7  8 -1 -1</clus>
<clus scale="   93.679">  1  5  2 -1</clus>
<clus scale="   93.508">  2  9  1 -1</clus>
<clus scale="   93.508">  2  5  1 -1</clus>
</clustering>
</event>
<event>
 9    1  0.3197504E-005  0.1415464E+03  0.7546771E-02  0.1213598E+00
         21   -1    0    0  501  502  0.00000000000E+00  0.00000000000E+00  0.45424470085E+02  0.45424470085E+02  0.00000000000E+00 0. -1.
          1   -1    0    0  502    0 -0.00000000000E+00 -0.00000000000E+00 -0.62289675935E+03  0.62289675935E+03  0.00000000000E+00 0. -1.
        -24    2    1    2    0    0 -0.86037359624E+02 -0.64123584298E+02 -0.33135446361E+03  0.35749768385E+03  0.80588783863E+02 0.  0.
         23    2    1    2    0    0  0.99615997310E+02  0.48440279197E+02 -0.13301695157E+03  0.19583592374E+03  0.91588165467E+02 0.  0.
         13    1    3    3    0    0 -0.47151518921E+02 -0.76648197251E+02 -0.18787058377E+03  0.20831122899E+03  0.00000000000E+00 0. -1.
        -14    1    3    3    0    0 -0.38885840703E+02  0.12524612953E+02 -0.14348387984E+03  0.14918645485E+03  0.00000000000E+00 0.  1.
        -11    1    4    4    0    0  0.94669247399E+02  0.16322360612E+02 -0.53554312164E+02  0.10998522724E+03  0.00000000000E+00 0. -1.
         11    1    4    4    0    0  0.49467499104E+01  0.32117918585E+02 -0.79462639402E+02  0.85850696500E+02  0.00000000000E+00 0.  1.
          2    1    1    2  501    0 -0.13578637686E+02  0.15683305101E+02 -0.11310087408E+03  0.11498762185E+03  0.00000000000E+00 0. -1.
<scales pt_clust_5="13000.00000" pt_clust_6="13000.00000" pt_clust_7="13000.00000" pt_clust_8="13000.00000" pt_clust_9="20.74478"></scales>
<clustering>
<clus scale="   20.745">  1  9  2 -1</clus>
<clus scale="   80.589">  5  6 -1 -1</clus>
<clus scale="   91.588">  7  8 -1 -1</clus>
<clus scale="  134.691">  2  5  1 -1</clus>
<clus scale="   20.745">  1  5  2 -1</clus>
</clustering>
</event>
<event>
 9    1  0.3197504E-005  0.9733358E+02  0.7546771E-02  0.1291262E+00
         21   -1    0    0  501  502  0.00000000000E+00  0.00000000000E+00  0.13998756362E+03  0.13998756362E+03  0.00000000000E+00 0. -1.
          1   -1    0    0  502    0 -0.00000000000E+00 -0.00000000000E+00 -0.28099038985E+03  0.28099038985E+03  0.00000000000E+00 0. -1.
        -24    2    1    2    0    0 -0.48019950125E+02 -0.12283821887E+02 -0.18208721210E+03  0.20571332794E+03  0.81886583715E+02 0.  0.
         23    2    1    2    0    0 -0.19012357535E+02  0.20660054164E+02 -0.44947500582E+02  0.10588008812E+03  0.91662466010E+02 0.  0.
         11    1    3    3    0    0 -0.50142383833E+02 -0.40808562296E+02 -0.14593518193E+03  0.15961414329E+03  0.00000000000E+00 0. -1.
        -12    1    3    3    0    0  0.21224337077E+01  0.28524740408E+02 -0.36152030169E+02  0.46099184652E+02  0.00000000000E+00 0.  1.
        -13    1    4    4    0    0  0.25374878612E+02 -0.86239967786E+01  0.10747889360E+02  0.28875160791E+02  0.00000000000E+00 0.  1.
         13    1    4    4    0    0 -0.44387236147E+02  0.29284050943E+02 -0.55695389942E+02  0.77004927331E+02  0.00000000000E+00 0. -1.
          2    1    1    2  501    0  0.67032307660E+02 -0.83762322770E+01  0.86031886456E+02  0.10938453741E+03  0.00000000000E+00 0. -1.
<scales pt_clust_5="13000.00000" pt_clust_6="13000.00000" pt_clust_7="13000.00000" pt_clust_8="13000.00000" pt_clust_9="67.55362"></scales>
<clustering>
<clus scale="   67.554">  1  9  2 -1</clus>
<clus scale="   81.887">  5  6 -1 -1</clus>
<clus scale="   88.189">  2  5  1 -1</clus>
<clus scale="   91.662">  7  8 -1 -1</clus>
<clus scale="   67.554">  1  5  2 -1</clus>
</clustering>
</event>
<event>
 9    1  0.3197504E-005  0.9600480E+02  0.7546771E-02  0.1295791E+00
         21   -1    0    0  501  502  0.00000000000E+00  0.00000000000E+00  0.95647740316E+02  0.95647740316E+02  0.00000000000E+00 0.  1.
         -4   -1    0    0    0  501 -0.00000000000E+00 -0.00000000000E+00 -0.24516843744E+03  0.24516843744E+03  0.00000000000E+00 0.  1.
         23    2    1    2    0    0  0.18679849310E+02  0.20505336726E+02 -0.17957103359E+03  0.20406824056E+03  0.92890715888E+02 0.  0.
        -24    2    1    2    0    0 -0.28981405929E+02  0.17390198533E+02  0.64314999132E+00  0.87686992664E+02  0.80908925008E+02 0.  0.
         11    1    4    4    0    0 -0.37243614532E+02 -0.23617687084E+02 -0.83876393331E+01  0.44891362869E+02  0.00000000000E+00 0. -1.
        -12    1    4    4    0    0  0.82622086030E+01  0.41007885617E+02  0.90307893244E+01  0.42795629795E+02  0.00000000000E+00 0.  1.
        -11    1    3    3    0    0  0.50564743803E+02  0.32581908638E+02 -0.13626231069E+03  0.14894895569E+03  0.00000000000E+00 0.  1.
         11    1    3    3    0    0 -0.31884894493E+02 -0.12076571911E+02 -0.43308722895E+02  0.55119284871E+02  0.00000000000E+00 0. -1.
         -3    1    1    2    0  502  0.10301556619E+02 -0.37895535259E+02  0.29407186476E+02  0.49060944526E+02  0.00000000000E+00 0.  1.
<scales pt_clust_5="13000.00000" pt_clust_6="13000.00000" pt_clust_7="13000.00000" pt_clust_8="13000.00000" pt_clust_9="39.27077"></scales>
<clustering>
<clus scale="   39.271">  1  9  2 -1</clus>
<clus scale="   80.909">  5  6 -1 -1</clus>
<clus scale="   84.466">  1  5  2 -1</clus>
<clus scale="   92.891">  7  8 -1 -1</clus>
<clus scale="   39.271">  1  5  2 -1</clus>
</clustering>
</event>
<event>
 9    1  0.3197504E-005  0.9279926E+02  0.7546771E-02  0.1297253E+00
         21   -1    0    0  501  502  0.00000000000E+00  0.00000000000E+00  0.17165612064E+03  0.17165612064E+03  0.00000000000E+00 0. -1.
          1   -1    0    0  502    0 -0.00000000000E+00 -0.00000000000E+00 -0.15423510933E+03  0.15423510933E+03  0.00000000000E+00 0. -1.
         23    2    1    2    0    0 -0.34759702208E+02 -0.85821887144E+01 -0.42939033673E+02  0.10251629862E+03  0.85929855173E+02 0.  0.
        -24    2    1    2    0    0  0.83386938405E+01 -0.64714264175E+02  0.88318351768E+02  0.14059747906E+03  0.87806890714E+02 0.  0.
         11    1    4    4    0    0  0.33576986328E+02 -0.56185012385E+02  0.21874861946E+02  0.69012167135E+02  0.00000000000E+00 0. -1.
        -12    1    4    4    0    0 -0.25238292488E+02 -0.85292517894E+01  0.66443489822E+02  0.71585311926E+02  0.00000000000E+00 0.  1.
        -11    1    3    3    0    0  0.21003439410E+01  0.24751633333E+02  0.12712595012E+02  0.27904567176E+02  0.00000000000E+00 0.  1.
         11    1    3    3    0    0 -0.36860046149E+02 -0.33333822047E+02 -0.55651628685E+02  0.74611731448E+02  0.00000000000E+00 0. -1.
          2    1    1    2  501    0  0.26421008367E+02  0.73296452889E+02 -0.27958306780E+02  0.82777452288E+02  0.00000000000E+00 0. -1.
<scales pt_clust_5="13000.00000" pt_clust_6="13000.00000" pt_clust_7="13000.00000" pt_clust_8="13000.00000" pt_clust_9="77.91307"></scales>
<clustering>
<clus scale="   77.913">  1  9  2 -1</clus>
<clus scale="   85.930">  7  8 -1 -1</clus>
<clus scale="   87.807">  5  6 -1 -1</clus>
<clus scale="   91.025">  2  7  1 -1</clus>
<clus scale="   77.913">  1  5  2 -1</clus>
</clustering>
</event>
<event>
 9    1  0.3197504E-005  0.9623137E+02  0.7546771E-02  0.1294553E+00
         21   -1    0    0  501  502  0.00000000000E+00  0.00000000000E+00  0.10855431801E+03  0.10855431801E+03  0.00000000000E+00 0.  1.
          1   -1    0    0  502    0 -0.00000000000E+00 -0.00000000000E+00 -0.20505764321E+03  0.20505764321E+03  0.00000000000E+00 0. -1.
         23    2    1    2    0    0 -0.68494855734E+01 -0.37241098540E+02 -0.14284186811E+03  0.17362290593E+03  0.91144387137E+02 0.  0.
        -24    2    1    2    0    0  0.31338728732E+01 -0.44010272668E+01  0.54996564656E+02  0.97294398003E+02  0.80077384814E+02 0.  0.
         13    1    4    4    0    0  0.15192414258E+02 -0.24978207600E+02 -0.76849305988E+01  0.30228768817E+02  0.00000000000E+00 0. -1.
        -14    1    4    4    0    0 -0.12058541385E+02  0.20577180333E+02  0.62681495254E+02  0.67065629186E+02  0.00000000000E+00 0.  1.
        -13    1    3    3    0    0  0.21798123671E+02 -0.49127993010E+02 -0.12882413644E+03  0.13958644641E+03  0.00000000000E+00 0. -1.
         13    1    3    3    0    0 -0.28647609244E+02  0.11886894470E+02 -0.14017731671E+02  0.34036459522E+02  0.00000000000E+00 0.  1.
          2    1    1    2  501    0  0.37156127001E+01  0.41642125806E+02 -0.86580217495E+01  0.42694657277E+02  0.00000000000E+00 0. -1.
<scales pt_clust_5="13000.00000" pt_clust_6="13000.00000" pt_clust_7="13000.00000" pt_clust_8="13000.00000" pt_clust_9="41.80756"></scales>
<clustering>
<clus scale="   41.808">  1  9  2 -1</clus>
<clus scale="   80.077">  5  6 -1 -1</clus>
<clus scale="   85.823">  1  5  2 -1</clus>
<clus scale="   91.144">  7  8 -1 -1</clus>
<clus scale="   41.808">  1  5  2 -1</clus>
</clustering>
</event>
<event>
 9    1  0.3197504E-005  0.1066986E+03  0.7546771E-02  0.1270828E+00
         21   -1    0    0  501  502  0.00000000000E+00  0.00000000000E+00  0.13848213951E+03  0.13848213951E+03  0.00000000000E+00 0. -1.
         -2   -1    0    0    0  501 -0.00000000000E+00 -0.00000000000E+00 -0.19029485813E+03  0.19029485813E+03  0.00000000000E+00 0.  1.
        -24    2    1    2    0    0  0.10149503438E+01 -0.59345408513E+02 -0.14327412665E+03  0.17509993921E+03  0.81299481589E+02 0.  0.
         23    2    1    2    0    0 -0.37476086141E+01  0.37310917438E+02  0.59907005672E+02  0.11509381691E+03  0.90838253135E+02 0.  0.
         11    1    3    3    0    0  0.81562471479E+01 -0.48795316055E+02 -0.15187439427E+03  0.15972895440E+03  0.00000000000E+00 0. -1.
        -12    1    3    3    0    0 -0.71412968041E+01 -0.10550092457E+02  0.86002676214E+01  0.15370984811E+02  0.00000000000E+00 0.  1.
        -11    1    4    4    0    0  0.32822378944E+02  0.14068580324E+02 -0.60076069659E+01  0.36212219669E+02  0.00000000000E+00 0.  1.
         11    1    4    4    0    0 -0.36569987558E+02  0.23242337114E+02  0.65914612638E+02  0.78881597243E+02  0.00000000000E+00 0. -1.
         -1    1    1    2    0  502  0.27326582702E+01  0.22034491075E+02  0.31554402354E+02  0.38583241519E+02  0.00000000000E+00 0.  1.
<scales pt_clust_5="13000.00000" pt_clust_6="13000.00000" pt_clust_7="13000.00000" pt_clust_8="13000.00000" pt_clust_9="22.20329"></scales>
<clustering>
<clus scale="   22.203">  1  9  2 -1</clus>
<clus scale="   81.299">  5  6 -1 -1</clus>
<clus scale="   90.838">  7  8 -1 -1</clus>
<clus scale="   98.705">  2  5  1 -1</clus>
<clus scale="   22.203">  1  5  2 -1</clus>
</clustering>
</event>
<event>
 9    1  0.3197504E-005  0.9255997E+02  0.7546771E-02  0.1303511E+00
         21   -1    0    0  501  502  0.00000000000E+00  0.00000000000E+00  0.29262307615E+02  0.29262307615E+02  0.00000000000E+00 0.  1.
         -2   -1    0    0    0  501 -0.00000000000E+00 -0.00000000000E+00 -0.55379778657E+03  0.55379778657E+03  0.00000000000E+00 0.  1.
        -24    2    1    2    0    0  0.32576851463E+01 -0.46243360003E+01 -0.35872429121E+03  0.36773311746E+03  0.80700257593E+02 0.  0.
         23    2    1    2    0    0 -0.15521837689E+02  0.38799094175E+02 -0.12844901000E+03  0.16322845602E+03  0.91641058104E+02 0.  0.
         11    1    3    3    0    0 -0.36252508438E+02 -0.10376333072E+02 -0.12296591413E+03  0.12861776197E+03  0.00000000000E+00 0. -1.
        -12    1    3    3    0    0  0.39510193584E+02  0.57519970716E+01 -0.23575837709E+03  0.23911535549E+03  0.00000000000E+00 0.  1.
        -11    1    4    4    0    0  0.17986143426E+02 -0.19767979193E+02 -0.66336085867E+02  0.71517484889E+02  0.00000000000E+00 0. -1.
         11    1    4    4    0    0 -0.33507981115E+02  0.58567073368E+02 -0.62112924136E+02  0.91710971133E+02  0.00000000000E+00 0.  1.
         -1    1    1    2    0  502  0.12264152543E+02 -0.34174758175E+02 -0.37362177740E+02  0.52098520702E+02  0.00000000000E+00 0.  1.
<scales pt_clust_5="13000.00000" pt_clust_6="13000.00000" pt_clust_7="13000.00000" pt_clust_8="13000.00000" pt_clust_9="36.30873"></scales>
<clustering>
<clus scale="   36.309">  1  9  2 -1</clus>
<clus scale="   80.700">  5  6 -1 -1</clus>
<clus scale="   81.742">  2  5  1 -1</clus>
<clus scale="   91.641">  7  8 -1 -1</clus>
<clus scale="   36.309">  1  5  2 -1</clus>
</clustering>
</event>
<event>
 9    1  0.3197504E-005  0.9122773E+02  0.7546771E-02  0.1306180E+00
         21   -1    0    0  501  502  0.00000000000E+00  0.00000000000E+00  0.34065192487E+03  0.34065192487E+03  0.00000000000E+00 0.  1.
         -2   -1    0    0    0  501 -0.00000000000E+00 -0.00000000000E+00 -0.47305534752E+02  0.47305534752E+02  0.00000000000E+00 0.  1.
        -24    2    1    2    0    0 -0.19966759190E+01 -0.37133433983E+01  0.13973175883E+02  0.82271550900E+02  0.80966553646E+02 0.  0.
         23    2    1    2    0    0  0.23839909984E+02  0.28723325963E+01  0.17122344299E+03  0.19534911887E+03  0.90924249861E+02 0.  0.
         13    1    3    3    0    0  0.31045627294E+02  0.63376221299E+00  0.31825206884E+02  0.44464327521E+02  0.00000000000E+00 0. -1.
        -14    1    3    3    0    0 -0.33042303213E+02 -0.43471056113E+01 -0.17852031001E+02  0.37807223380E+02  0.00000000000E+00 0.  1.
        -11    1    4    4    0    0 -0.15524225515E+02 -0.25593411990E+02  0.18742953360E+02  0.35317454832E+02  0.00000000000E+00 0.  1.
         11    1    4    4    0    0  0.39364135499E+02  0.28465744586E+02  0.15248048963E+03  0.16003166404E+03  0.00000000000E+00 0. -1.
         -1    1    1    2    0  502 -0.21843234065E+02  0.84101080208E+00  0.10814977125E+03  0.11033678985E+03  0.00000000000E+00 0.  1.
<scales pt_clust_5="13000.00000" pt_clust_6="13000.00000" pt_clust_7="13000.00000" pt_clust_8="13000.00000" pt_clust_9="21.85942"></scales>
<clustering>
<clus scale="   21.859">  1  9  2 -1</clus>
<clus scale="   80.967">  5  6 -1 -1</clus>
<clus scale="   81.307">  2  5  1 -1</clus>
<clus scale="   90.924">  7  8 -1 -1</clus>
<clus scale="   21.859">  1  5  2 -1</clus>
</clustering>
</event>
<event>
 9    1  0.3197504E-005  0.1461889E+03  0.7546771E-02  0.1229838E+00
         21   -1    0    0  501  502  0.00000000000E+00  0.00000000000E+00  0.13506198184E+03  0.13506198184E+03  0.00000000000E+00 0. -1.
          1   -1    0    0  502    0 -0.00000000000E+00 -0.00000000000E+00 -0.51326002765E+03  0.51326002765E+03  0.00000000000E+00 0. -1.
        -24    2    1    2    0    0 -0.11493303758E+02 -0.31158321224E+02 -0.15225543937E+03  0.17536874525E+03  0.80433456834E+02 0.  0.
         23    2    1    2    0    0  0.85697757502E+02 -0.56904324656E+02 -0.30401506827E+03  0.33382512241E+03  0.91825066350E+02 0.  0.
         13    1    3    3    0    0 -0.25119308306E+02 -0.30165072876E+02 -0.15627327280E+03  0.16112804556E+03  0.00000000000E+00 0. -1.
        -14    1    3    3    0    0  0.13626004548E+02 -0.99324834841E+00  0.40178334318E+01  0.14240699692E+02  0.00000000000E+00 0.  1.
        -11    1    4    4    0    0  0.14296446282E+00 -0.46099882297E+02 -0.64671682542E+02  0.79420690688E+02  0.00000000000E+00 0.  1.
         11    1    4    4    0    0  0.85554793040E+02 -0.10804442358E+02 -0.23934338573E+03  0.25440443172E+03  0.00000000000E+00 0. -1.
          2    1    1    2  501    0 -0.74204453745E+02  0.88062645880E+02  0.78072461833E+02  0.13912814184E+03  0.00000000000E+00 0. -1.
<scales pt_clust_5="13000.00000" pt_clust_6="13000.00000" pt_clust_7="13000.00000" pt_clust_8="13000.00000" pt_clust_9="113.75125"></scales>
<clustering>
<clus scale="   80.433">  5  6 -1 -1</clus>
<clus scale="   87.020">  2  5  1 -1</clus>
<clus scale="   91.825">  7  8 -1 -1</clus>
<clus scale="  113.751">  1  9  2 -1</clus>
<clus scale="  113.751">  1  5  2 -1</clus>
</clustering>
</event>
<event>
 9    1  0.3197504E-005  0.1061991E+03  0.7546771E-02  0.1272722E+00
          1   -1    0    0  502    0 -0.00000000000E+00  0.00000000000E+00  0.88089584255E+03  0.88089584255E+03  0.00000000000E+00 0. -1.
         21   -1    0    0  501  502  0.00000000000E+00 -0.00000000000E+00 -0.32136346332E+02  0.32136346332E+02  0.00000000000E+00 0. -1.
        -24    2    1    2    0    0 -0.15524959707E+02 -0.62827008259E+02  0.36682962015E+03  0.38106710770E+03  0.80373584051E+02 0.  0.
         23    2    1    2    0    0  0.72414614953E+02 -0.77086738228E+01  0.16521078399E+03  0.20253724597E+03  0.91779260995E+02 0.  0.
         11    1    3    3    0    0  0.46306168696E+01 -0.77862348532E+02  0.28211456573E+03  0.29269884886E+03  0.00000000000E+00 0. -1.
        -12    1    3    3    0    0 -0.20155576576E+02  0.15035340273E+02  0.84715054421E+02  0.88368258837E+02  0.00000000000E+00 0.  1.
        -11    1    4    4    0    0  0.13167480622E+02  0.30449971547E+02  0.14582077817E+02  0.36238381678E+02  0.00000000000E+00 0.  1.
         11    1    4    4    0    0  0.59247134331E+02 -0.38158645370E+02  0.15062870617E+03  0.16629886429E+03  0.00000000000E+00 0. -1.
          2    1    1    2  501    0 -0.56889655247E+02  0.70535682082E+02  0.31671909209E+03  0.32942783522E+03  0.00000000000E+00 0. -1.
<scales pt_clust_5="13000.00000" pt_clust_6="13000.00000" pt_clust_7="13000.00000" pt_clust_8="13000.00000" pt_clust_9="90.61856"></scales>
<clustering>
<clus scale="   80.374">  5  6 -1 -1</clus>
<clus scale="   90.619">  2  9  1 -1</clus>
<clus scale="   91.779">  7  8 -1 -1</clus>
<clus scale="   96.513">  1  5  2 -1</clus>
<clus scale="   90.619">  2  5  1 -1</clus>
</clustering>
</event>
<event>
 9    1  0.3197504E-005  0.9475751E+02  0.7546771E-02  0.1297090E+00
          1   -1    0    0  502    0 -0.00000000000E+00  0.00000000000E+00  0.13287454887E+03  0.13287454887E+03  0.00000000000E+00 0. -1.
         21   -1    0    0  501  502  0.00000000000E+00 -0.00000000000E+00 -0.32769369319E+03  0.32769369319E+03  0.00000000000E+00 0.  1.
        -24    2    1    2    0    0 -0.80418332164E+01 -0.22508375734E+02  0.74630512236E+02  0.11279675417E+03  0.81130119774E+02 0.  0.
         23    2    1    2    0    0  0.77537975925E+02  0.50387307660E+02 -0.22799507144E+03  0.26218275427E+03  0.90592635199E+02 0.  0.
         11    1    3    3    0    0 -0.41983280399E+02 -0.16891569474E+02  0.60623908074E+02  0.75651696495E+02  0.00000000000E+00 0. -1.
        -12    1    3    3    0    0  0.33941447183E+02 -0.56168062596E+01  0.14006604162E+02  0.37145057674E+02  0.00000000000E+00 0.  1.
        -13    1    4    4    0    0 -0.60365813471E+01  0.26095998044E+02 -0.12073443423E+02  0.29380426552E+02  0.00000000000E+00 0. -1.
         13    1    4    4    0    0  0.83574557272E+02  0.24291309616E+02 -0.21592162801E+03  0.23280232772E+03  0.00000000000E+00 0.  1.
          2    1    1    2  501    0 -0.69496142708E+02 -0.27878931926E+02 -0.41454585116E+02  0.85588733626E+02  0.00000000000E+00 0. -1.
<scales pt_clust_5="13000.00000" pt_clust_6="13000.00000" pt_clust_7="13000.00000" pt_clust_8="13000.00000" pt_clust_9="74.87956"></scales>
<clustering>
<clus scale="   74.880">  2  9  1 -1</clus>
<clus scale="   81.130">  5  6 -1 -1</clus>
<clus scale="   85.756">  1  5  2 -1</clus>
<clus scale="   90.593">  7  8 -1 -1</clus>
<clus scale="   74.880">  2  5  1 -1</clus>
</clustering>
</event>
<event>
 9    1  0.3197504E-005  0.9593054E+02  0.7546771E-02  0.1296072E+00
         21   -1    0    0  501  502  0.00000000000E+00  0.00000000000E+00  0.14256570534E+03  0.14256570534E+03  0.00000000000E+00 0. -1.
          1   -1    0    0  502    0 -0.00000000000E+00 -0.00000000000E+00 -0.29170352000E+03  0.29170352000E+03  0.00000000000E+00 0. -1.
         23    2    1    2    0    0 -0.13519202927E+02 -0.25202068749E+02 -0.14919954670E+03  0.17690603013E+03  0.90649465781E+02 0.  0.
        -24    2    1    2    0    0  0.53108974110E+02 -0.14880924921E+02 -0.10259078789E+03  0.14026692622E+03  0.78153283828E+02 0.  0.
         13    1    4    4    0    0  0.33536396614E+02 -0.47139558552E+02 -0.59425526055E+02  0.82935040997E+02  0.00000000000E+00 0. -1.
        -14    1    4    4    0    0  0.19572577497E+02  0.32258633632E+02 -0.43165261833E+02  0.57331885219E+02  0.00000000000E+00 0.  1.
        -11    1    3    3    0    0 -0.35581993158E+02 -0.42305712415E+02 -0.52424842666E+02  0.76185403251E+02  0.00000000000E+00 0.  1.
         11    1    3    3    0    0  0.22062790231E+02  0.17103643666E+02 -0.96774704030E+02  0.10072062688E+03  0.00000000000E+00 0. -1.
          2    1    1    2  501    0 -0.39589771184E+02  0.40082993669E+02  0.10265251993E+03  0.11709626899E+03  0.00000000000E+00 0. -1.
<scales pt_clust_5="13000.00000" pt_clust_6="13000.00000" pt_clust_7="13000.00000" pt_clust_8="13000.00000" pt_clust_9="56.33823"></scales>
<clustering>
<clus scale="   56.338">  1  9  2 -1</clus>
<clus scale="   78.153">  5  6 -1 -1</clus>
<clus scale="   84.222">  1  5  2 -1</clus>
<clus scale="   90.649">  7  8 -1 -1</clus>
<clus scale="   56.338">  1  5  2 -1</clus>
</clustering>
</event>
<event>
 9    1  0.3197504E-005  0.1004424E+03  0.7546771E-02  0.1283361E+00
         21   -1    0    0  501  502  0.00000000000E+00  0.00000000000E+00  0.12702307001E+03  0.12702307001E+03  0.00000000000E+00 0. -1.
          3   -1    0    0  502    0 -0.00000000000E+00 -0.00000000000E+00 -0.30721889946E+03  0.30721889946E+03  0.00000000000E+00 0. -1.
         23    2    1    2    0    0  0.63170014615E+01  0.48368287138E+01 -0.24742676632E+03  0.26693226616E+03  0.99847536816E+02 0.  0.
        -24    2    1    2    0    0 -0.45667248390E+02 -0.48139212427E+01  0.74472452856E+02  0.12729867968E+03  0.92466946524E+02 0.  0.
         13    1    4    4    0    0 -0.36758557735E+02 -0.29762497263E+02  0.86203378944E+02  0.98326091916E+02  0.00000000000E+00 0. -1.
        -14    1    4    4    0    0 -0.89086906551E+01  0.24948576020E+02 -0.11730926087E+02  0.28972587760E+02  0.00000000000E+00 0.  1.
        -13    1    3    3    0    0  0.16547889247E+02 -0.41542230451E+02 -0.17265530333E+03  0.17835202079E+03  0.00000000000E+00 0. -1.
         13    1    3    3    0    0 -0.10230887786E+02  0.46379059165E+02 -0.74771462982E+02  0.88580245373E+02  0.00000000000E+00 0.  1.
          4    1    1    2  501    0  0.39350246929E+02 -0.22907471135E-01 -0.72415159917E+01  0.40011023631E+02  0.00000000000E+00 0. -1.
<scales pt_clust_5="13000.00000" pt_clust_6="13000.00000" pt_clust_7="13000.00000" pt_clust_8="13000.00000" pt_clust_9="39.35025"></scales>
<clustering>
<clus scale="   39.350">  1  9  2 -1</clus>
<clus scale="   92.467">  5  6 -1 -1</clus>
<clus scale="   93.109">  1  5  2 -1</clus>
<clus scale="   99.848">  7  8 -1 -1</clus>
<clus scale="   39.350">  1  5  2 -1</clus>
</clustering>
</event>
<event>
 9    1  0.3197504E-005  0.1034116E+03  0.7546771E-02  0.1279980E+00
          1   -1    0    0  502    0 -0.00000000000E+00  0.00000000000E+00  0.30531755158E+03  0.30531755158E+03  0.00000000000E+00 0. -1.
         21   -1    0    0  501  502  0.00000000000E+00 -0.00000000000E+00 -0.73116175670E+02  0.73116175670E+02  0.00000000000E+00 0. -1.
         23    2    1    2    0    0 -0.72852815832E+00  0.24463207444E+02  0.13044071384E+03  0.16155167711E+03  0.92115065424E+02 0.  0.
        -24    2    1    2    0    0 -0.18661891642E+02 -0.85658633782E+02  0.97566487377E+02  0.15255118907E+03  0.77890808737E+02 0.  0.
         11    1    4    4    0    0 -0.39935474633E+02 -0.78019715995E+02  0.95852035694E+02  0.12988275854E+03  0.00000000000E+00 0. -1.
        -12    1    4    4    0    0  0.21273582990E+02 -0.76389177879E+01  0.17144516824E+01  0.22668430532E+02  0.00000000000E+00 0.  1.
        -13    1    3    3    0    0 -0.32890444702E+02  0.45845020246E+02  0.71431373825E+02  0.91027404668E+02  0.00000000000E+00 0.  1.
         13    1    3    3    0    0  0.32161916544E+02 -0.21381812802E+02  0.59009340016E+02  0.70524272442E+02  0.00000000000E+00 0. -1.
          2    1    1    2  501    0  0.19390419800E+02  0.61195426338E+02  0.41941746914E+01  0.64330861071E+02  0.00000000000E+00 0. -1.
<scales pt_clust_5="13000.00000" pt_clust_6="13000.00000" pt_clust_7="13000.00000" pt_clust_8="13000.00000" pt_clust_9="64.19399"></scales>
<clustering>
<clus scale="   64.194">  2  9  1 -1</clus>
<clus scale="   77.891">  5  6 -1 -1</clus>
<clus scale="   90.971">  2  5  1 -1</clus>
<clus scale="   92.115">  7  8 -1 -1</clus>
<clus scale="   64.194">  2  5  1 -1</clus>
</clustering>
</event>
<event>
 9    1  0.3197504E-005  0.9243366E+02  0.7546771E-02  0.1303081E+00
         21   -1    0    0  501  502  0.00000000000E+00  0.00000000000E+00  0.93875037556E+02  0.93875037556E+02  0.00000000000E+00 0.  1.
         -2   -1    0    0    0  501 -0.00000000000E+00 -0.00000000000E+00 -0.12581853968E+03  0.12581853968E+03  0.00000000000E+00 0.  1.
        -24    2    1    2    0    0 -0.19237591985E+02  0.74176016215E+01 -0.43065636167E+02  0.93414268456E+02  0.80289917010E+02 0.  0.
         23    2    1    2    0    0  0.44391853463E+01 -0.27332669948E+02  0.25248914199E+02  0.97728149381E+02  0.90257976380E+02 0.  0.
         13    1    3    3    0    0 -0.17151543587E+02 -0.25104804478E+02 -0.51451349339E+02  0.59763433670E+02  0.00000000000E+00 0. -1.
        -14    1    3    3    0    0 -0.20860483985E+01  0.32522406099E+02  0.83857131719E+01  0.33650834786E+02  0.00000000000E+00 0.  1.
        -13    1    4    4    0    0  0.45578849715E+02 -0.17454629150E+01  0.16449988520E+02  0.48487939783E+02  0.00000000000E+00 0. -1.
         13    1    4    4    0    0 -0.41139664369E+02 -0.25587207033E+02  0.87989256792E+01  0.49240209598E+02  0.00000000000E+00 0.  1.
         -1    1    1    2    0  502  0.14798406639E+02  0.19915068327E+02 -0.14126780161E+02  0.28551159402E+02  0.00000000000E+00 0.  1.
<scales pt_clust_5="13000.00000" pt_clust_6="13000.00000" pt_clust_7="13000.00000" pt_clust_8="13000.00000" pt_clust_9="24.81136"></scales>
<clustering>
<clus scale="   24.811">  1  9  2 -1</clus>
<clus scale="   80.290">  5  6 -1 -1</clus>
<clus scale="   82.728">  2  5  1 -1</clus>
<clus scale="   90.258">  7  8 -1 -1</clus>
<clus scale="   24.811">  1  5  2 -1</clus>
</clustering>
</event>
<event>
 9    1  0.3197504E-005  0.1060264E+03  0.7546771E-02  0.1269101E+00
         21   -1    0    0  501  502  0.00000000000E+00  0.00000000000E+00  0.20145693068E+03  0.20145693068E+03  0.00000000000E+00 0. -1.
          1   -1    0    0  502    0 -0.00000000000E+00 -0.00000000000E+00 -0.85719187364E+02  0.85719187364E+02  0.00000000000E+00 0. -1.
        -24    2    1    2    0    0 -0.26514124189E+02 -0.50522646659E+02  0.91601906502E+01  0.10634317678E+03  0.89271639107E+02 0.  0.
         23    2    1    2    0    0 -0.96466541278E+01  0.53978964110E+02  0.62507567062E+02  0.12372154441E+03  0.91613525799E+02 0.  0.
         13    1    3    3    0    0 -0.23671171817E+02 -0.74151539457E+02  0.19733913398E+02  0.80300700601E+02  0.00000000000E+00 0. -1.
        -14    1    3    3    0    0 -0.28429523717E+01  0.23628892798E+02 -0.10573722747E+02  0.26042476183E+02  0.00000000000E+00 0.  1.
        -13    1    4    4    0    0  0.28754154875E+02  0.40699353324E+01  0.52447078931E+02  0.59950495282E+02  0.00000000000E+00 0.  1.
         13    1    4    4    0    0 -0.38400809003E+02  0.49909028778E+02  0.10060488131E+02  0.63771049130E+02  0.00000000000E+00 0. -1.
          2    1    1    2  501    0  0.36160778316E+02 -0.34563174511E+01  0.44069985605E+02  0.57111396849E+02  0.00000000000E+00 0. -1.
<scales pt_clust_5="13000.00000" pt_clust_6="13000.00000" pt_clust_7="13000.00000" pt_clust_8="13000.00000" pt_clust_9="36.32558"></scales>
<clustering>
<clus scale="   36.326">  1  9  2 -1</clus>
<clus scale="   89.272">  5  6 -1 -1</clus>
<clus scale="   91.614">  7  8 -1 -1</clus>
<clus scale="  104.010">  2  5  1 -1</clus>
<clus scale="   36.326">  1  5  2 -1</clus>
</clustering>
</event>
<event>
 9    1  0.3197504E-005  0.1014548E+03  0.7546771E-02  0.1281130E+00
          3   -1    0    0  502    0 -0.00000000000E+00  0.00000000000E+00  0.15570893668E+03  0.15570893668E+03  0.00000000000E+00 0. -1.
         21   -1    0    0  501  502  0.00000000000E+00 -0.00000000000E+00 -0.12580464554E+03  0.12580464554E+03  0.00000000000E+00 0.  1.
         23    2    1    2    0    0 -0.15720761075E+02 -0.31995502441E+02  0.58528910956E+02  0.11286761311E+03  0.89680600836E+02 0.  0.
        -24    2    1    2    0    0  0.79670505942E-01  0.72045533876E+02  0.12119940528E+02  0.10941111510E+03  0.81445281329E+02 0.  0.
         13    1    4    4    0    0 -0.31438803478E+02  0.18342200288E+02 -0.17580247264E+02  0.40421526065E+02  0.00000000000E+00 0. -1.
        -14    1    4    4    0    0  0.31518473984E+02  0.53703333587E+02  0.29700187792E+02  0.68989589037E+02  0.00000000000E+00 0.  1.
        -13    1    3    3    0    0 -0.19806764163E+02 -0.61043883562E+02  0.26492623130E+02  0.69429984208E+02  0.00000000000E+00 0. -1.
         13    1    3    3    0    0  0.40860030882E+01  0.29048381120E+02  0.32036287826E+02  0.43437628902E+02  0.00000000000E+00 0.  1.
          4    1    1    2  501    0  0.15641090569E+02 -0.40050031434E+02 -0.40744560341E+02  0.59234854009E+02  0.00000000000E+00 0. -1.
<scales pt_clust_5="13000.00000" pt_clust_6="13000.00000" pt_clust_7="13000.00000" pt_clust_8="13000.00000" pt_clust_9="42.99592"></scales>
<clustering>
<clus scale="   42.996">  2  9  1 -1</clus>
<clus scale="   81.445">  5  6 -1 -1</clus>
<clus scale="   89.681">  7  8 -1 -1</clus>
<clus scale="   94.254">  2  5  1 -1</clus>
<clus scale="   42.996">  2  5  1 -1</clus>
</clustering>
</event>
<event>
 9    1  0.3197504E-005  0.1069952E+03  0.7546771E-02  0.1267596E+00
         21   -1    0    0  501  502  0.00000000000E+00  0.00000000000E+00  0.81000750032E+02  0.81000750032E+02  0.00000000000E+00 0. -1.
          1   -1    0    0  502    0 -0.00000000000E+00 -0.00000000000E+00 -0.34236175087E+03  0.34236175087E+03  0.00000000000E+00 0. -1.
         23    2    1    2    0    0 -0.25330487447E+02 -0.21138720938E+02 -0.48101322900E+02  0.10285210589E+03  0.84713277020E+02 0.  0.
        -24    2    1    2    0    0  0.84339879079E+02  0.78688432688E+02 -0.75507617714E+02  0.15998093442E+03  0.81162888089E+02 0.  0.
         11    1    4    4    0    0  0.96227738635E+02  0.75163680808E+02 -0.50630055731E+02  0.13218456468E+03  0.00000000000E+00 0. -1.
        -12    1    4    4    0    0 -0.11887859557E+02  0.35247518801E+01 -0.24877561983E+02  0.27796369742E+02  0.00000000000E+00 0.  1.
        -13    1    3    3    0    0 -0.50539633499E+02  0.86049089064E+01 -0.33378875738E+02  0.61175553590E+02  0.00000000000E+00 0. -1.
         13    1    3    3    0    0  0.25209146052E+02 -0.29743629844E+02 -0.14722447163E+02  0.41676552298E+02  0.00000000000E+00 0.  1.
          2    1    1    2  501    0 -0.59009391631E+02 -0.57549711750E+02 -0.13775206022E+03  0.16052946059E+03  0.00000000000E+00 0. -1.
<scales pt_clust_5="13000.00000" pt_clust_6="13000.00000" pt_clust_7="13000.00000" pt_clust_8="13000.00000" pt_clust_9="82.42624"></scales>
<clustering>
<clus scale="   81.163">  5  6 -1 -1</clus>
<clus scale="   82.426">  1  9  2 -1</clus>
<clus scale="   84.713">  7  8 -1 -1</clus>
<clus scale="  104.207">  1  5  2 -1</clus>
<clus scale="   82.426">  1  5  2 -1</clus>
</clustering>
</event>
<event>
 9    1  0.3197504E-005  0.9266992E+02  0.7546771E-02  0.1303649E+00
         21   -1    0    0  501  502  0.00000000000E+00  0.00000000000E+00  0.83642053709E+02  0.83642053709E+02  0.00000000000E+00 0. -1.
         -4   -1    0    0    0  501 -0.00000000000E+00 -0.00000000000E+00 -0.15191630669E+03  0.15191630669E+03  0.00000000000E+00 0.  1.
         23    2    1    2    0    0 -0.63268244520E+01 -0.40530872885E+01 -0.86972659339E+02  0.12704681041E+03  0.92304887952E+02 0.  0.
        -24    2    1    2    0    0 -0.11207947727E+02  0.17534068230E+02  0.77265775532E+01  0.83821752302E+02  0.80828983151E+02 0.  0.
         11    1    4    4    0    0 -0.23296416953E+02 -0.11658271506E+02  0.33927596204E+02  0.42775227895E+02  0.00000000000E+00 0. -1.
        -12    1    4    4    0    0  0.12088469226E+02  0.29192339736E+02 -0.26201018650E+02  0.41046524406E+02  0.00000000000E+00 0.  1.
        -11    1    3    3    0    0  0.33738517024E+01  0.43581399339E+02 -0.46175464298E+02  0.63583761660E+02  0.00000000000E+00 0. -1.
         11    1    3    3    0    0 -0.97006761544E+01 -0.47634486627E+02 -0.40797195041E+02  0.63463048755E+02  0.00000000000E+00 0.  1.
         -3    1    1    2    0  502  0.17534772179E+02 -0.13480980941E+02  0.10971828802E+02  0.24689797685E+02  0.00000000000E+00 0.  1.
<scales pt_clust_5="13000.00000" pt_clust_6="13000.00000" pt_clust_7="13000.00000" pt_clust_8="13000.00000" pt_clust_9="22.11798"></scales>
<clustering>
<clus scale="   22.118">  1  9  2 -1</clus>
<clus scale="   80.829">  5  6 -1 -1</clus>
<clus scale="   81.246">  1  5  2 -1</clus>
<clus scale="   92.305">  7  8 -1 -1</clus>
<clus scale="   22.118">  1  5  2 -1</clus>
</clustering>
</event>
<event>
 9    1  0.3197504E-005  0.9603844E+02  0.7546771E-02  0.1292782E+00
         21   -1    0    0  501  502  0.00000000000E+00  0.00000000000E+00  0.31173456258E+02  0.31173456258E+02  0.00000000000E+00 0.  1.
          1   -1    0    0  502    0 -0.00000000000E+00 -0.00000000000E+00 -0.38988229911E+03  0.38988229911E+03  0.00000000000E+00 0. -1.
         23    2    1    2    0    0  0.10436779945E+02  0.38282012353E+02 -0.17377948714E+03  0.19911580820E+03  0.88731933835E+02 0.  0.
        -24    2    1    2    0    0 -0.31770822729E+02 -0.21582719964E+02 -0.10894505616E+03  0.14127011683E+03  0.81320487385E+02 0.  0.
         11    1    4    4    0    0  0.10715043076E+02 -0.39838982270E+02 -0.67842259588E+02  0.79401063232E+02  0.00000000000E+00 0. -1.
        -12    1    4    4    0    0 -0.42485865805E+02  0.18256262307E+02 -0.41102796577E+02  0.61869053598E+02  0.00000000000E+00 0.  1.
        -13    1    3    3    0    0 -0.23616159517E+02  0.41227344009E+01 -0.13531773591E+03  0.13742492343E+03  0.00000000000E+00 0.  1.
         13    1    3    3    0    0  0.34052939462E+02  0.34159277952E+02 -0.38461751226E+02  0.61690884769E+02  0.00000000000E+00 0. -1.
          2    1    1    2  501    0  0.21334042784E+02 -0.16699292389E+02 -0.75984299556E+02  0.80669830338E+02  0.00000000000E+00 0. -1.
<scales pt_clust_5="13000.00000" pt_clust_6="13000.00000" pt_clust_7="13000.00000" pt_clust_8="13000.00000" pt_clust_9="27.09259"></scales>
<clustering>
<clus scale="   27.093">  1  9  2 -1</clus>
<clus scale="   81.320">  5  6 -1 -1</clus>
<clus scale="   88.732">  7  8 -1 -1</clus>
<clus scale="   89.236">  1  5  2 -1</clus>
<clus scale="   27.093">  1  5  2 -1</clus>
</clustering>
</event>
<event>
 9    1  0.3197504E-005  0.1534714E+03  0.7546771E-02  0.1226416E+00
         21   -1    0    0  501  502  0.00000000000E+00  0.00000000000E+00  0.18236671071E+03  0.18236671071E+03  0.00000000000E+00 0.  1.
         -2   -1    0    0    0  501 -0.00000000000E+00 -0.00000000000E+00 -0.25546501266E+03  0.25546501266E+03  0.00000000000E+00 0.  1.
        -24    2    1    2    0    0  0.20456444997E+01  0.14227737121E+02 -0.97895935291E+02  0.12689298959E+03  0.79445600853E+02 0.  0.
         23    2    1    2    0    0 -0.21725075397E+02  0.10220858934E+03 -0.68150473590E+02  0.16065883259E+03  0.10123338779E+03 0.  0.
         13    1    3    3    0    0  0.25442375810E+02 -0.22909745550E+02 -0.27409240981E+02  0.43857011061E+02  0.00000000000E+00 0. -1.
        -14    1    3    3    0    0 -0.23396731310E+02  0.37137482671E+02 -0.70486694310E+02  0.83035978527E+02  0.00000000000E+00 0.  1.
        -13    1    4    4    0    0 -0.53221507222E+02  0.73925462259E+02 -0.74725920457E+02  0.11781963329E+03  0.00000000000E+00 0.  1.
         13    1    4    4    0    0  0.31496431825E+02  0.28283127078E+02  0.65754468663E+01  0.42839199298E+02  0.00000000000E+00 0. -1.
         -1    1    1    2    0  502  0.19679430897E+02 -0.11643632646E+03  0.92948106934E+02  0.15027990119E+03  0.00000000000E+00 0.  1.
<scales pt_clust_5="13000.00000" pt_clust_6="13000.00000" pt_clust_7="13000.00000" pt_clust_8="13000.00000" pt_clust_9="115.34849"></scales>
<clustering>
<clus scale="   79.446">  5  6 -1 -1</clus>
<clus scale="   80.735">  2  5  1 -1</clus>
<clus scale="  101.233">  7  8 -1 -1</clus>
<clus scale="  115.348">  1  9  2 -1</clus>
<clus scale="  115.348">  1  5  2 -1</clus>
</clustering>
</event>
<event>
 9    1  0.3197504E-005  0.9574673E+02  0.7546771E-02  0.1289982E+00
          1   -1    0    0  502    0 -0.00000000000E+00  0.00000000000E+00  0.14297677400E+03  0.14297677400E+03  0.00000000000E+00 0. -1.
         21   -1    0    0  501  502  0.00000000000E+00 -0.00000000000E+00 -0.16930876519E+03  0.16930876519E+03  0.00000000000E+00 0.  1.
         23    2    1    2    0    0  0.20935250432E+01 -0.25646071862E+02  0.91393642302E+02  0.13143067676E+03  0.90879706714E+02 0.  0.
        -24    2    1    2    0    0 -0.11849877509E+02  0.49910640760E+02 -0.65779955794E+02  0.12269723912E+03  0.89978432113E+02 0.  0.
         13    1    4    4    0    0  0.13312209428E+02 -0.16112592192E+02  0.62337407236E+01  0.21810320273E+02  0.00000000000E+00 0. -1.
        -14    1    4    4    0    0 -0.25162086937E+02  0.66023232952E+02 -0.72013696518E+02  0.10088691885E+03  0.00000000000E+00 0.  1.
        -11    1    3    3    0    0  0.42395190544E+02 -0.29535217637E+02  0.65269708584E+02  0.83245517121E+02  0.00000000000E+00 0.  1.
         11    1    3    3    0    0 -0.40301665500E+02  0.38891457750E+01  0.26123933718E+02  0.48185159643E+02  0.00000000000E+00 0. -1.
          2    1    1    2  501    0  0.97563524657E+01 -0.24264568899E+02 -0.51945677694E+02  0.58157623304E+02  0.00000000000E+00 0. -1.
<scales pt_clust_5="13000.00000" pt_clust_6="13000.00000" pt_clust_7="13000.00000" pt_clust_8="13000.00000" pt_clust_9="26.15255"></scales>
<clustering>
<clus scale="   26.153">  2  9  1 -1</clus>
<clus scale="   89.978">  5  6 -1 -1</clus>
<clus scale="   90.880">  7  8 -1 -1</clus>
<clus scale="   94.892">  2  5  1 -1</clus>
<clus scale="   26.153">  2  5  1 -1</clus>
</clustering>
</event>
<event>
 9    1  0.3197504E-005  0.1108106E+03  0.7546771E-02  0.1263101E+00
         -2   -1    0    0    0  501 -0.00000000000E+00  0.00000000000E+00  0.15278319632E+03  0.15278319632E+03  0.00000000000E+00 0.  1.
         21   -1    0    0  501  502  0.00000000000E+00 -0.00000000000E+00 -0.14347833027E+03  0.14347833027E+03  0.00000000000E+00 0. -1.
        -24    2    1    2    0    0  0.72191103268E+02 -0.13303670101E+02  0.59218806486E+02  0.12452159826E+03  0.81303249395E+02 0.  0.
         23    2    1    2    0    0 -0.45598250943E+02  0.10170051046E+02  0.12668580530E+02  0.10366958755E+03  0.91674751278E+02 0.  0.
         11    1    3    3    0    0  0.22284279768E+02 -0.33014859062E+02 -0.57658030686E+01  0.40246919493E+02  0.00000000000E+00 0. -1.
        -12    1    3    3    0    0  0.49906823500E+02  0.19711188961E+02  0.64984609554E+02  0.84274678766E+02  0.00000000000E+00 0.  1.
        -11    1    4    4    0    0 -0.20534093150E+02 -0.40405023784E+02  0.13253320527E+02  0.47221450989E+02  0.00000000000E+00 0. -1.
         11    1    4    4    0    0 -0.25064157793E+02  0.50575074830E+02 -0.58473999682E+00  0.56448136557E+02  0.00000000000E+00 0.  1.
         -1    1    1    2    0  502 -0.26592852325E+02  0.31336190545E+01 -0.62582520970E+02  0.68070340781E+02  0.00000000000E+00 0.  1.
<scales pt_clust_5="13000.00000" pt_clust_6="13000.00000" pt_clust_7="13000.00000" pt_clust_8="13000.00000" pt_clust_9="26.77684"></scales>
<clustering>
<clus scale="   26.777">  2  9  1 -1</clus>
<clus scale="   81.303">  5  6 -1 -1</clus>
<clus scale="   91.675">  7  8 -1 -1</clus>
<clus scale="  102.396">  1  5  2 -1</clus>
<clus scale="   26.777">  2  5  1 -1</clus>
</clustering>
</event>
<event>
 9    1  0.3197504E-005  0.1148004E+03  0.7546771E-02  0.1255674E+00
         21   -1    0    0  501  502  0.00000000000E+00  0.00000000000E+00  0.16632356773E+03  0.16632356773E+03  0.00000000000E+00 0.  1.
          3   -1    0    0  502    0 -0.00000000000E+00 -0.00000000000E+00 -0.17952489954E+03  0.17952489954E+03  0.00000000000E+00 0. -1.
        -24    2    1    2    0    0 -0.65885893404E+02  0.10215206620E+02 -0.10135251370E+03  0.14590582288E+03  0.81060938326E+02 0.  0.
         23    2    1    2    0    0  0.68229907757E+02 -0.57625207545E+02  0.44496838071E+02  0.13545307682E+03  0.91605581511E+02 0.  0.
         13    1    3    3    0    0 -0.82174159190E+02  0.15801482170E+02 -0.97074205459E+02  0.12816271159E+03  0.00000000000E+00 0. -1.
        -14    1    3    3    0    0  0.16288265786E+02 -0.55862755506E+01 -0.42783082397E+01  0.17743111290E+02  0.00000000000E+00 0.  1.
        -11    1    4    4    0    0  0.46228073750E+02 -0.78357734047E+02  0.13183881451E+02  0.91928145950E+02  0.00000000000E+00 0.  1.
         11    1    4    4    0    0  0.22001834007E+02  0.20732526502E+02  0.31312956620E+02  0.43524930868E+02  0.00000000000E+00 0. -1.
          4    1    1    2  501    0 -0.23440143534E+01  0.47410000925E+02  0.43654343822E+02  0.64489567572E+02  0.00000000000E+00 0. -1.
<scales pt_clust_5="13000.00000" pt_clust_6="13000.00000" pt_clust_7="13000.00000" pt_clust_8="13000.00000" pt_clust_9="47.46791"></scales>
<clustering>
<clus scale="   47.468">  1  9  2 -1</clus>
<clus scale="   81.061">  5  6 -1 -1</clus>
<clus scale="   91.606">  7  8 -1 -1</clus>
<clus scale="  106.576">  2  5  1 -1</clus>
<clus scale="   47.468">  1  5  2 -1</clus>
</clustering>
</event>
<event>
 9    1  0.3197504E-005  0.9458679E+02  0.7546771E-02  0.1298478E+00
         21   -1    0    0  501  502  0.00000000000E+00  0.00000000000E+00  0.37430089705E+03  0.37430089705E+03  0.00000000000E+00 0. -1.
         -2   -1    0    0    0  501 -0.00000000000E+00 -0.00000000000E+00 -0.73853266724E+02  0.73853266724E+02  0.00000000000E+00 0.  1.
        -24    2    1    2    0    0  0.27592089398E+02 -0.29651756061E+02  0.56503305506E+02  0.10578941570E+03  0.79738490740E+02 0.  0.
         23    2    1    2    0    0 -0.10314024837E+02 -0.42548709419E+02  0.24831962699E+03  0.26799686523E+03  0.90790477705E+02 0.  0.
         11    1    3    3    0    0  0.48223633941E+02 -0.90682577041E+01  0.87461327982E+01  0.49842221130E+02  0.00000000000E+00 0. -1.
        -12    1    3    3    0    0 -0.20631544543E+02 -0.20583498357E+02  0.47757172708E+02  0.55947194567E+02  0.00000000000E+00 0.  1.
        -11    1    4    4    0    0  0.95993886243E+01 -0.62261857550E+02  0.10907142970E+03  0.12595738940E+03  0.00000000000E+00 0.  1.
         11    1    4    4    0    0 -0.19913413461E+02  0.19713148131E+02  0.13924819729E+03  0.14203947583E+03  0.00000000000E+00 0. -1.
         -1    1    1    2    0  502 -0.17278064561E+02  0.72200465480E+02 -0.43753021710E+01  0.74367882850E+02  0.00000000000E+00 0.  1.
<scales pt_clust_5="13000.00000" pt_clust_6="13000.00000" pt_clust_7="13000.00000" pt_clust_8="13000.00000" pt_clust_9="74.23910"></scales>
<clustering>
<clus scale="   74.239">  1  9  2 -1</clus>
<clus scale="   79.738">  5  6 -1 -1</clus>
<clus scale="   84.036">  2  5  1 -1</clus>
<clus scale="   90.790">  7  8 -1 -1</clus>
<clus scale="   74.239">  1  5  2 -1</clus>
</clustering>
</event>
<event>
 9    1  0.3197504E-005  0.9843438E+02  0.7546771E-02  0.1290170E+00
         21   -1    0    0  501  502  0.00000000000E+00  0.00000000000E+00  0.22934377999E+03  0.22934377999E+03  0.00000000000E+00 0.  1.
         -2   -1    0    0    0  501 -0.00000000000E+00 -0.00000000000E+00 -0.86356889684E+02  0.86356889684E+02  0.00000000000E+00 0.  1.
        -24    2    1    2    0    0  0.57512336657E+01  0.30499088912E+02 -0.13578455216E+02  0.87046930740E+02  0.80184303901E+02 0.  0.
         23    2    1    2    0    0 -0.19846523035E+02 -0.44814573446E+02  0.17334611465E+03  0.20247732794E+03  0.92444374600E+02 0.  0.
         11    1    3    3    0    0  0.29316973032E+02 -0.14024304077E+02 -0.16770209525E+02  0.36570561113E+02  0.00000000000E+00 0. -1.
        -12    1    3    3    0    0 -0.23565739366E+02  0.44523392990E+02  0.31917543083E+01  0.50476369627E+02  0.00000000000E+00 0.  1.
        -11    1    4    4    0    0 -0.30488051523E+02  0.23251784774E+00  0.90769002671E+01  0.31811404695E+02  0.00000000000E+00 0. -1.
         11    1    4    4    0    0  0.10641528488E+02 -0.45047091294E+02  0.16426921439E+03  0.17066592325E+03  0.00000000000E+00 0.  1.
         -1    1    1    2    0  502  0.14095289369E+02  0.14315484534E+02 -0.16780769131E+02  0.26176410993E+02  0.00000000000E+00 0.  1.
<scales pt_clust_5="13000.00000" pt_clust_6="13000.00000" pt_clust_7="13000.00000" pt_clust_8="13000.00000" pt_clust_9="20.09006"></scales>
<clustering>
<clus scale="   20.090">  1  9  2 -1</clus>
<clus scale="   80.184">  5  6 -1 -1</clus>
<clus scale="   87.022">  2  5  1 -1</clus>
<clus scale="   92.444">  7  8 -1 -1</clus>
<clus scale="   20.090">  1  5  2 -1</clus>
</clustering>
</event>
<event>
 9    1  0.3197504E-005  0.7910050E+02  0.7546771E-02  0.1332451E+00
         21   -1    0    0  501  502  0.00000000000E+00  0.00000000000E+00  0.57201167186E+03  0.57201167186E+03  0.00000000000E+00 0. -1.
          1   -1    0    0  502    0 -0.00000000000E+00 -0.00000000000E+00 -0.20821324545E+02  0.20821324545E+02  0.00000000000E+00 0. -1.
         23    2    1    2    0    0 -0.16365887354E+02  0.22133945361E+02  0.16643780422E+03  0.18572333583E+03  0.77677931179E+02 0.  0.
        -24    2    1    2    0    0 -0.13125936007E+02  0.97144738143E+01  0.17105838869E+03  0.18905168417E+03  0.78821987712E+02 0.  0.
         11    1    4    4    0    0 -0.40080396475E+02 -0.98276733291E+01  0.12882514514E+03  0.13527357231E+03  0.00000000000E+00 0. -1.
        -12    1    4    4    0    0  0.26954460468E+02  0.19542147143E+02  0.42233243548E+02  0.53778111855E+02  0.00000000000E+00 0.  1.
        -13    1    3    3    0    0 -0.15523411641E+02 -0.23216856807E+02  0.26056778306E+02  0.38196262182E+02  0.00000000000E+00 0. -1.
         13    1    3    3    0    0 -0.84247571355E+00  0.45350802168E+02  0.14038102591E+03  0.14752707365E+03  0.00000000000E+00 0.  1.
          2    1    1    2  501    0  0.29491823361E+02 -0.31848419175E+02  0.21369415440E+03  0.21805797641E+03  0.00000000000E+00 0. -1.
<scales pt_clust_5="13000.00000" pt_clust_6="13000.00000" pt_clust_7="13000.00000" pt_clust_8="13000.00000" pt_clust_9="43.40610"></scales>
<clustering>
<clus scale="   43.406">  1  9  2 -1</clus>
<clus scale="   77.678">  7  8 -1 -1</clus>
<clus scale="   77.961">  2  7  1 -1</clus>
<clus scale="   78.822">  5  6 -1 -1</clus>
<clus scale="   43.406">  1  5  2 -1</clus>
</clustering>
</event>
<event>
 9    1  0.3197504E-005  0.1013235E+03  0.7546771E-02  0.1278776E+00
         21   -1    0    0  501  502  0.00000000000E+00  0.00000000000E+00  0.19694877550E+03  0.19694877550E+03  0.00000000000E+00 0.  1.
         -4   -1    0    0    0  501 -0.00000000000E+00 -0.00000000000E+00 -0.21276453945E+03  0.21276453945E+03  0.00000000000E+00 0.  1.
         23    2    1    2    0    0  0.29219487473E+02  0.31942897659E+02 -0.12692768671E+03  0.16249482991E+03  0.91759495062E+02 0.  0.
        -24    2    1    2    0    0 -0.60538568183E+02  0.10175227809E+02 -0.16270061803E+02  0.10944696657E+03  0.89137366355E+02 0.  0.
         11    1    4    4    0    0 -0.70744255445E+02 -0.97175405149E+01 -0.35691609450E+02  0.79831517944E+02  0.00000000000E+00 0. -1.
        -12    1    4    4    0    0  0.10205687261E+02  0.19892768324E+02  0.19421547647E+02  0.29615448622E+02  0.00000000000E+00 0.  1.
        -11    1    3    3    0    0 -0.29666350279E+02  0.10831304069E+02 -0.16630313612E+02  0.35692811847E+02  0.00000000000E+00 0. -1.
         11    1    3    3    0    0  0.58885837753E+02  0.21111593590E+02 -0.11029737310E+03  0.12680201806E+03  0.00000000000E+00 0.  1.
         -3    1    1    2    0  502  0.31319080710E+02 -0.42118125468E+02  0.12738198457E+03  0.13777151847E+03  0.00000000000E+00 0.  1.
<scales pt_clust_5="13000.00000" pt_clust_6="13000.00000" pt_clust_7="13000.00000" pt_clust_8="13000.00000" pt_clust_9="52.48639"></scales>
<clustering>
<clus scale="   52.486">  1  9  2 -1</clus>
<clus scale="   89.137">  5  6 -1 -1</clus>
<clus scale="   91.759">  7  8 -1 -1</clus>
<clus scale="   98.955">  1  5  2 -1</clus>
<clus scale="   52.486">  1  5  2 -1</clus>
</clustering>
</event>
<event>
 9    1  0.3197504E-005  0.1068243E+03  0.7546771E-02  0.1271162E+00
          1   -1    0    0  502    0 -0.00000000000E+00  0.00000000000E+00  0.66621881327E+03  0.66621881327E+03  0.00000000000E+00 0. -1.
         21   -1    0    0  501  502  0.00000000000E+00 -0.00000000000E+00 -0.29348527847E+02  0.29348527847E+02  0.00000000000E+00 0. -1.
        -24    2    1    2    0    0  0.40379551717E+02  0.22750454236E+02  0.38578760072E+03  0.39681675322E+03  0.80519385256E+02 0.  0.
         23    2    1    2    0    0 -0.72446695095E+02 -0.41630580585E+02  0.20547054828E+03  0.23988440198E+03  0.91349609920E+02 0.  0.
         13    1    3    3    0    0  0.41015442546E+02 -0.21059114183E+02  0.24737824375E+03  0.25163812966E+03  0.00000000000E+00 0. -1.
        -14    1    3    3    0    0 -0.63589082906E+00  0.43809568419E+02  0.13840935697E+03  0.14517862356E+03  0.00000000000E+00 0.  1.
        -11    1    4    4    0    0 -0.53362548303E+02 -0.55396845938E+02  0.75427947317E+02  0.10772997418E+03  0.00000000000E+00 0. -1.
         11    1    4    4    0    0 -0.19084146792E+02  0.13766265354E+02  0.13004260096E+03  0.13215442780E+03  0.00000000000E+00 0.  1.
          2    1    1    2  501    0  0.32067143378E+02  0.18880126348E+02  0.45612136420E+02  0.58866185915E+02  0.00000000000E+00 0. -1.
<scales pt_clust_5="13000.00000" pt_clust_6="13000.00000" pt_clust_7="13000.00000" pt_clust_8="13000.00000" pt_clust_9="37.21238"></scales>
<clustering>
<clus scale="   37.212">  2  9  1 -1</clus>
<clus scale="   80.519">  5  6 -1 -1</clus>
<clus scale="   91.350">  7  8 -1 -1</clus>
<clus scale="   97.724">  1  5  2 -1</clus>
<clus scale="   37.212">  2  5  1 -1</clus>
</clustering>
</event>
<event>
 9    1  0.3197504E-005  0.9115145E+02  0.7546771E-02  0.1306727E+00
         21   -1    0    0  501  502  0.00000000000E+00  0.00000000000E+00  0.16831017875E+02  0.16831017875E+02  0.00000000000E+00 0.  1.
         -2   -1    0    0    0  501 -0.00000000000E+00 -0.00000000000E+00 -0.67107573511E+03  0.67107573511E+03  0.00000000000E+00 0.  1.
         23    2    1    2    0    0 -0.48488183249E+01  0.18533999803E+02 -0.43495471928E+03  0.44469498698E+03  0.90559391784E+02 0.  0.
        -24    2    1    2    0    0 -0.65184573803E+00  0.49352721863E+01 -0.18098448818E+03  0.19795277670E+03  0.80032087490E+02 0.  0.
         13    1    4    4    0    0  0.38625810249E+02  0.11634795514E+02 -0.91707530335E+02  0.10018778770E+03  0.00000000000E+00 0. -1.
        -14    1    4    4    0    0 -0.39277655987E+02 -0.66995233281E+01 -0.89276957847E+02  0.97764989004E+02  0.00000000000E+00 0.  1.
        -11    1    3    3    0    0 -0.47100738035E+02  0.54520317106E+01 -0.25609672424E+03  0.26044910509E+03  0.00000000000E+00 0.  1.
         11    1    3    3    0    0  0.42251919710E+02  0.13081968093E+02 -0.17885799503E+03  0.18424588190E+03  0.00000000000E+00 0. -1.
         -1    1    1    2    0  502  0.55006640630E+01 -0.23469271990E+02 -0.38305509778E+02  0.45258989297E+02  0.00000000000E+00 0.  1.
<scales pt_clust_5="13000.00000" pt_clust_6="13000.00000" pt_clust_7="13000.00000" pt_clust_8="13000.00000" pt_clust_9="24.10527"></scales>
<clustering>
<clus scale="   24.105">  1  9  2 -1</clus>
<clus scale="   80.032">  5  6 -1 -1</clus>
<clus scale="   80.701">  1  5  2 -1</clus>
<clus scale="   90.559">  7  8 -1 -1</clus>
<clus scale="   24.105">  1  5  2 -1</clus>
</clustering>
</event>
<event>
 9    1  0.3197504E-005  0.9436908E+02  0.7546771E-02  0.1298641E+00
          1   -1    0    0  502    0 -0.00000000000E+00  0.00000000000E+00  0.10565177052E+03  0.10565177052E+03  0.00000000000E+00 0. -1.
         21   -1    0    0  501  502  0.00000000000E+00 -0.00000000000E+00 -0.23331375065E+03  0.23331375065E+03  0.00000000000E+00 0.  1.
        -24    2    1    2    0    0  0.25121107175E+02 -0.16623378618E+01  0.66674072657E+02  0.10735087837E+03  0.80280419341E+02 0.  0.
         23    2    1    2    0    0 -0.30487403452E+02  0.24308191210E+02 -0.17665488825E+03  0.20238699511E+03  0.90736852043E+02 0.  0.
         13    1    3    3    0    0  0.24803286612E+02 -0.38491687736E+02  0.46901945510E+02  0.65548497650E+02  0.00000000000E+00 0. -1.
        -14    1    3    3    0    0  0.31782056250E+00  0.36829349874E+02  0.19772127147E+02  0.41802380721E+02  0.00000000000E+00 0.  1.
        -13    1    4    4    0    0 -0.12123383440E+02  0.50706171583E+02 -0.51938102073E+02  0.73591159181E+02  0.00000000000E+00 0.  1.
         13    1    4    4    0    0 -0.18364020013E+02 -0.26397980373E+02 -0.12471678618E+03  0.12879583593E+03  0.00000000000E+00 0. -1.
          2    1    1    2  501    0  0.53662962778E+01 -0.22645853348E+02 -0.17681164545E+02  0.29227647686E+02  0.00000000000E+00 0. -1.
<scales pt_clust_5="13000.00000" pt_clust_6="13000.00000" pt_clust_7="13000.00000" pt_clust_8="13000.00000" pt_clust_9="23.27298"></scales>
<clustering>
<clus scale="   23.273">  2  9  1 -1</clus>
<clus scale="   80.280">  5  6 -1 -1</clus>
<clus scale="   84.364">  1  5  2 -1</clus>
<clus scale="   90.737">  7  8 -1 -1</clus>
<clus scale="   23.273">  2  5  1 -1</clus>
</clustering>
</event>
<event>
 9    1  0.3197504E-005  0.1307523E+03  0.7546771E-02  0.1228616E+00
         21   -1    0    0  501  502  0.00000000000E+00  0.00000000000E+00  0.14542740763E+03  0.14542740763E+03  0.00000000000E+00 0.  1.
         -4   -1    0    0    0  501 -0.00000000000E+00 -0.00000000000E+00 -0.25282849285E+03  0.25282849285E+03  0.00000000000E+00 0.  1.
         23    2    1    2    0    0  0.89291567120E+02  0.83337977373E+01 -0.13937238867E+03  0.18769452887E+03  0.88102992577E+02 0.  0.
        -24    2    1    2    0    0 -0.10966842271E+03 -0.30220678176E+02 -0.30090208359E+02  0.14167100199E+03  0.78897400694E+02 0.  0.
         11    1    4    4    0    0 -0.25236735502E+02  0.78025534823E+01 -0.40643231232E+02  0.48473135906E+02  0.00000000000E+00 0. -1.
        -12    1    4    4    0    0 -0.84431687210E+02 -0.38023231658E+02  0.10553022873E+02  0.93197866084E+02  0.00000000000E+00 0.  1.
        -13    1    3    3    0    0  0.55357091255E+02  0.44130745177E+02 -0.53775916170E+02  0.88903202316E+02  0.00000000000E+00 0. -1.
         13    1    3    3    0    0  0.33934475864E+02 -0.35796947439E+02 -0.85596472495E+02  0.98791326551E+02  0.00000000000E+00 0.  1.
         -3    1    1    2    0  502  0.20376855592E+02  0.21886880438E+02  0.62061511799E+02  0.68890369617E+02  0.00000000000E+00 0.  1.
<scales pt_clust_5="13000.00000" pt_clust_6="13000.00000" pt_clust_7="13000.00000" pt_clust_8="13000.00000" pt_clust_9="29.90404"></scales>
<clustering>
<clus scale="   29.904">  1  9  2 -1</clus>
<clus scale="   78.897">  5  6 -1 -1</clus>
<clus scale="   88.103">  7  8 -1 -1</clus>
<clus scale="  124.735">  1  5  2 -1</clus>
<clus scale="   29.904">  1  5  2 -1</clus>
</clustering>
</event>
<event>
 9    1  0.3197504E-005  0.1566177E+03  0.7546771E-02  0.1200237E+00
         21   -1    0    0  501  502  0.00000000000E+00  0.00000000000E+00  0.11228317151E+04  0.11228317151E+04  0.00000000000E+00 0. -1.
         -2   -1    0    0    0  501 -0.00000000000E+00 -0.00000000000E+00 -0.73650024340E+02  0.73650024340E+02  0.00000000000E+00 0.  1.
         23    2    1    2    0    0 -0.90946028168E+02  0.27863616294E+02  0.36703489512E+03  0.39020359249E+03  0.92177373580E+02 0.  0.
        -24    2    1    2    0    0 -0.66445597603E+02 -0.10125698305E+03  0.59051253010E+03  0.60992247788E+03  0.92910638624E+02 0.  0.
         11    1    4    4    0    0 -0.15649194464E+02 -0.77079742083E+02  0.47467272226E+03  0.48114486091E+03  0.00000000000E+00 0. -1.
        -12    1    4    4    0    0 -0.50796403139E+02 -0.24177240962E+02  0.11583980784E+03  0.12877761697E+03  0.00000000000E+00 0.  1.
        -11    1    3    3    0    0 -0.42770144361E+02  0.53392137835E+02  0.27361486786E+03  0.28203741161E+03  0.00000000000E+00 0. -1.
         11    1    3    3    0    0 -0.48175883807E+02 -0.25528521542E+02  0.93420027258E+02  0.10816618088E+03  0.00000000000E+00 0.  1.
         -1    1    1    2    0  502  0.15739162577E+03  0.73393366752E+02  0.91634265500E+02  0.19635566903E+03  0.00000000000E+00 0.  1.
<scales pt_clust_5="13000.00000" pt_clust_6="13000.00000" pt_clust_7="13000.00000" pt_clust_8="13000.00000" pt_clust_9="126.08219"></scales>
<clustering>
<clus scale="   92.177">  7  8 -1 -1</clus>
<clus scale="   92.911">  5  6 -1 -1</clus>
<clus scale="  132.455">  2  7  1 -1</clus>
<clus scale="  126.082">  1  9  2 -1</clus>
<clus scale="  126.082">  1  5  2 -1</clus>
</clustering>
</event>
<event>
 9    1  0.3197504E-005  0.1071418E+03  0.7546771E-02  0.1274967E+00
         21   -1    0    0  501  502  0.00000000000E+00  0.00000000000E+00  0.12213094183E+03  0.12213094183E+03  0.00000000000E+00 0.  1.
         -2   -1    0    0    0  501 -0.00000000000E+00 -0.00000000000E+00 -0.11951189763E+03  0.11951189763E+03  0.00000000000E+00 0.  1.
         23    2    1    2    0    0 -0.24443495197E+02 -0.18063768883E+02 -0.19994266801E+02  0.10594169629E+03  0.99499186449E+02 0.  0.
        -24    2    1    2    0    0  0.18629121468E+02  0.52845460321E+02  0.13079900274E+02  0.99170896505E+02  0.80771876784E+02 0.  0.
         13    1    4    4    0    0  0.38336113760E+02 -0.32675324826E+01  0.10265815414E+01  0.38488806898E+02  0.00000000000E+00 0. -1.
        -14    1    4    4    0    0 -0.19706992292E+02  0.56112992803E+02  0.12053318732E+02  0.60682089606E+02  0.00000000000E+00 0.  1.
        -13    1    3    3    0    0  0.35698403779E+02 -0.24794768706E+02 -0.66447611190E+01  0.43969414800E+02  0.00000000000E+00 0. -1.
         13    1    3    3    0    0 -0.60141898975E+02  0.67309998231E+01 -0.13349505682E+02  0.61972281489E+02  0.00000000000E+00 0.  1.
         -1    1    1    2    0  502  0.58143737283E+01 -0.34781691438E+02  0.95334107294E+01  0.36530246663E+02  0.00000000000E+00 0.  1.
<scales pt_clust_5="13000.00000" pt_clust_6="13000.00000" pt_clust_7="13000.00000" pt_clust_8="13000.00000" pt_clust_9="35.26433"></scales>
<clustering>
<clus scale="   35.264">  1  9  2 -1</clus>
<clus scale="   80.772">  5  6 -1 -1</clus>
<clus scale="   90.019">  1  5  2 -1</clus>
<clus scale="   99.499">  7  8 -1 -1</clus>
<clus scale="   35.264">  1  5  2 -1</clus>
</clustering>
</event>
<event>
 9    1  0.3197504E-005  0.1086948E+03  0.7546771E-02  0.1267453E+00
          1   -1    0    0  502    0 -0.00000000000E+00  0.00000000000E+00  0.28844945954E+03  0.28844945954E+03  0.00000000000E+00 0. -1.
         21   -1    0    0  501  502  0.00000000000E+00 -0.00000000000E+00 -0.79270073808E+02  0.79270073808E+02  0.00000000000E+00 0. -1.
        -24    2    1    2    0    0  0.44801623883E+02  0.30944742768E+02  0.12719572183E+03  0.15981978714E+03  0.79992812825E+02 0.  0.
         23    2    1    2    0    0 -0.66205772017E+02 -0.18003904874E+02  0.11800427854E+03  0.16404672440E+03  0.90988863031E+02 0.  0.
         11    1    3    3    0    0  0.62985786380E+02  0.39864257675E+01  0.71886654617E+02  0.95659772048E+02  0.00000000000E+00 0. -1.
        -12    1    3    3    0    0 -0.18184162497E+02  0.26958317000E+02  0.55309067211E+02  0.64160015095E+02  0.00000000000E+00 0.  1.
        -13    1    4    4    0    0  0.14743132683E+02 -0.13731723315E+02 -0.86809733102E+00  0.20166154306E+02  0.00000000000E+00 0.  1.
         13    1    4    4    0    0 -0.80948904700E+02 -0.42721815583E+01  0.11887237587E+03  0.14388057010E+03  0.00000000000E+00 0. -1.
          2    1    1    2  501    0  0.21404148134E+02 -0.12940837894E+02 -0.36020614631E+02  0.43853021802E+02  0.00000000000E+00 0. -1.
<scales pt_clust_5="13000.00000" pt_clust_6="13000.00000" pt_clust_7="13000.00000" pt_clust_8="13000.00000" pt_clust_9="25.01205"></scales>
<clustering>
<clus scale="   25.012">  2  9  1 -1</clus>
<clus scale="   79.993">  5  6 -1 -1</clus>
<clus scale="   90.989">  7  8 -1 -1</clus>
<clus scale="   99.672">  1  5  2 -1</clus>
<clus scale="   25.012">  2  5  1 -1</clus>
</clustering>
</event>
<event>
 9    1  0.3197504E-005  0.1461752E+03  0.7546771E-02  0.1208251E+00
         21   -1    0    0  501  502  0.00000000000E+00  0.00000000000E+00  0.34327220631E+02  0.34327220631E+02  0.00000000000E+00 0. -1.
          1   -1    0    0  502    0 -0.00000000000E+00 -0.00000000000E+00 -0.85927153441E+03  0.85927153441E+03  0.00000000000E+00 0. -1.
         23    2    1    2    0    0 -0.58675308054E+02  0.88106606122E+02 -0.44893915433E+03  0.47081896453E+03  0.94438166283E+02 0.  0.
        -24    2    1    2    0    0  0.31446904521E+02 -0.12175375666E+03 -0.27049700154E+03  0.30873818370E+03  0.79610006730E+02 0.  0.
         13    1    4    4    0    0  0.43826172575E+02 -0.12371001017E+03 -0.21540332594E+03  0.25223697755E+03  0.00000000000E+00 0. -1.
        -14    1    4    4    0    0 -0.12379268054E+02  0.19562535179E+01 -0.55093675598E+02  0.56501206149E+02  0.00000000000E+00 0.  1.
        -13    1    3    3    0    0  0.12748772765E+02  0.55323144226E+02 -0.12193761205E+03  0.13450636686E+03  0.00000000000E+00 0.  1.
         13    1    3    3    0    0 -0.71424080819E+02  0.32783461896E+02 -0.32700154229E+03  0.33631259767E+03  0.00000000000E+00 0. -1.
          2    1    1    2  501    0  0.27228403533E+02  0.33647150533E+02 -0.10550815791E+03  0.11404160681E+03  0.00000000000E+00 0. -1.
<scales pt_clust_5="13000.00000" pt_clust_6="13000.00000" pt_clust_7="13000.00000" pt_clust_8="13000.00000" pt_clust_9="43.28416"></scales>
<clustering>
<clus scale="   43.284">  1  9  2 -1</clus>
<clus scale="   79.610">  5  6 -1 -1</clus>
<clus scale="   94.438">  7  8 -1 -1</clus>
<clus scale="  137.063">  1  5  2 -1</clus>
<clus scale="   43.284">  1  5  2 -1</clus>
</clustering>
</event>
<event>
 9    1  0.3197504E-005  0.9869903E+02  0.7546771E-02  0.1291964E+00
         21   -1    0    0  501  502  0.00000000000E+00  0.00000000000E+00  0.47261917785E+02  0.47261917785E+02  0.00000000000E+00 0.  1.
         -4   -1    0    0    0  501 -0.00000000000E+00 -0.00000000000E+00 -0.64592036489E+03  0.64592036489E+03  0.00000000000E+00 0.  1.
        -24    2    1    2    0    0  0.16453682044E+02 -0.40406906297E+02 -0.39849871098E+03  0.40880149152E+03  0.80087421560E+02 0.  0.
         23    2    1    2    0    0 -0.28303639634E+01 -0.33043686994E+02 -0.18064453832E+03  0.20717051078E+03  0.95850274394E+02 0.  0.
         13    1    3    3    0    0  0.29052219019E+02  0.10312750350E+02 -0.74682512423E+02  0.80795184952E+02  0.00000000000E+00 0. -1.
        -14    1    3    3    0    0 -0.12598536975E+02 -0.50719656647E+02 -0.32381619855E+03  0.32800630657E+03  0.00000000000E+00 0.  1.
        -11    1    4    4    0    0 -0.24715664976E+02  0.25751625627E+02 -0.91037140741E+02  0.97784310152E+02  0.00000000000E+00 0. -1.
         11    1    4    4    0    0  0.21885301013E+02 -0.58795312621E+02 -0.89607397576E+02  0.10938620062E+03  0.00000000000E+00 0.  1.
         -3    1    1    2    0  502 -0.13623318080E+02  0.73450593291E+02 -0.19515197814E+02  0.77210280378E+02  0.00000000000E+00 0.  1.
<scales pt_clust_5="13000.00000" pt_clust_6="13000.00000" pt_clust_7="13000.00000" pt_clust_8="13000.00000" pt_clust_9="74.70331"></scales>
<clustering>
<clus scale="   74.703">  1  9  2 -1</clus>
<clus scale="   80.087">  5  6 -1 -1</clus>
<clus scale="   83.476">  2  5  1 -1</clus>
<clus scale="   95.850">  7  8 -1 -1</clus>
<clus scale="   74.703">  1  5  2 -1</clus>
</clustering>
</event>
<event>
 9    1  0.3197504E-005  0.9572447E+02  0.7546771E-02  0.1294262E+00
          1   -1    0    0  502    0 -0.00000000000E+00  0.00000000000E+00  0.16270306830E+03  0.16270306830E+03  0.00000000000E+00 0. -1.
         21   -1    0    0  501  502  0.00000000000E+00 -0.00000000000E+00 -0.88597767657E+02  0.88597767657E+02  0.00000000000E+00 0.  1.
        -24    2    1    2    0    0  0.21585478070E+02  0.20151850501E+01  0.84405550218E+02  0.12037634026E+03  0.83043196911E+02 0.  0.
         23    2    1    2    0    0 -0.48227546252E+02  0.26230711747E+01 -0.78100598655E+01  0.10376728188E+03  0.91508879531E+02 0.  0.
         11    1    3    3    0    0  0.33759881858E+01 -0.21305279054E+02  0.87968744739E+02  0.90574898635E+02  0.00000000000E+00 0. -1.
        -12    1    3    3    0    0  0.18209489884E+02  0.23320464104E+02 -0.35631945213E+01  0.29801441627E+02  0.00000000000E+00 0.  1.
        -11    1    4    4    0    0 -0.22423741830E+02  0.43411693124E+02 -0.21816927668E+02  0.53510537565E+02  0.00000000000E+00 0.  1.
         11    1    4    4    0    0 -0.25803804422E+02 -0.40788621950E+02  0.14006867803E+02  0.50256744312E+02  0.00000000000E+00 0. -1.
          2    1    1    2  501    0  0.26642068182E+02 -0.46382562248E+01 -0.24901897044E+01  0.27157213822E+02  0.00000000000E+00 0. -1.
<scales pt_clust_5="13000.00000" pt_clust_6="13000.00000" pt_clust_7="13000.00000" pt_clust_8="13000.00000" pt_clust_9="27.04280"></scales>
<clustering>
<clus scale="   27.043">  2  9  1 -1</clus>
<clus scale="   83.043">  5  6 -1 -1</clus>
<clus scale="   87.667">  1  5  2 -1</clus>
<clus scale="   91.509">  7  8 -1 -1</clus>
<clus scale="   27.043">  2  5  1 -1</clus>
</clustering>
</event>
<event>
 9    1  0.3197504E-005  0.1544197E+03  0.7546771E-02  0.1215747E+00
          1   -1    0    0  502    0 -0.00000000000E+00  0.00000000000E+00  0.34920383434E+03  0.34920383434E+03  0.00000000000E+00 0. -1.
         21   -1    0    0  501  502  0.00000000000E+00 -0.00000000000E+00 -0.12988683651E+03  0.12988683651E+03  0.00000000000E+00 0. -1.
         23    2    1    2    0    0  0.32668208707E+02  0.99905176621E+01  0.15237522152E+03  0.18177639793E+03  0.93045302994E+02 0.  0.
        -24    2    1    2    0    0 -0.92875540088E+02  0.10002340433E+03  0.11230890229E+02  0.16008567309E+03  0.82889941936E+02 0.  0.
         13    1    4    4    0    0 -0.58061583389E+02  0.77986185098E+02  0.44693023411E+02  0.10700681695E+03  0.00000000000E+00 0. -1.
        -14    1    4    4    0    0 -0.34813956699E+02  0.22037219230E+02 -0.33462133182E+02  0.53078856144E+02  0.00000000000E+00 0.  1.
        -11    1    3    3    0    0 -0.15614706672E+02  0.39423830333E+02  0.70568282235E+02  0.82328244972E+02  0.00000000000E+00 0.  1.
         11    1    3    3    0    0  0.48282915379E+02 -0.29433312671E+02  0.81806939280E+02  0.99448152958E+02  0.00000000000E+00 0. -1.
          2    1    1    2  501    0  0.60207331381E+02 -0.11001392199E+03  0.55710886086E+02  0.13722859983E+03  0.00000000000E+00 0. -1.
<scales pt_clust_5="13000.00000" pt_clust_6="13000.00000" pt_clust_7="13000.00000" pt_clust_8="13000.00000" pt_clust_9="130.28702"></scales>
<clustering>
<clus scale="   82.890">  5  6 -1 -1</clus>
<clus scale="   93.045">  7  8 -1 -1</clus>
<clus scale="   99.118">  1  7  2 -1</clus>
<clus scale="  130.287">  2  9  1 -1</clus>
<clus scale="  130.287">  2  5  1 -1</clus>
</clustering>
</event>
<event>
 9    1  0.3197504E-005  0.9531590E+02  0.7546771E-02  0.1297861E+00
          1   -1    0    0  502    0 -0.00000000000E+00  0.00000000000E+00  0.18037567916E+03  0.18037567916E+03  0.00000000000E+00 0. -1.
         21   -1    0    0  501  502  0.00000000000E+00 -0.00000000000E+00 -0.98878781800E+02  0.98878781800E+02  0.00000000000E+00 0.  1.
        -24    2    1    2    0    0  0.21835286694E+02 -0.30096567015E+02  0.83725715411E+02  0.12128798146E+03  0.79487080302E+02 0.  0.
         23    2    1    2    0    0  0.31818240873E+02  0.30410541375E+01 -0.58066356914E+01  0.97770943318E+02  0.92216006619E+02 0.  0.
         13    1    3    3    0    0  0.13802770773E+02  0.24762639297E+02  0.12388372310E+02  0.30938270063E+02  0.00000000000E+00 0. -1.
        -14    1    3    3    0    0  0.80325159213E+01 -0.54859206313E+02  0.71337343100E+02  0.90349711399E+02  0.00000000000E+00 0.  1.
        -11    1    4    4    0    0  0.36086852039E+01  0.43974391580E+02  0.10679438528E+02  0.45396256795E+02  0.00000000000E+00 0. -1.
         11    1    4    4    0    0  0.28209555669E+02 -0.40933337442E+02 -0.16486074220E+02  0.52374686523E+02  0.00000000000E+00 0.  1.
          2    1    1    2  501    0 -0.53653527567E+02  0.27055512878E+02  0.35778176456E+01  0.60195536185E+02  0.00000000000E+00 0. -1.
<scales pt_clust_5="13000.00000" pt_clust_6="13000.00000" pt_clust_7="13000.00000" pt_clust_8="13000.00000" pt_clust_9="60.08912"></scales>
<clustering>
<clus scale="   60.089">  2  9  1 -1</clus>
<clus scale="   79.487">  5  6 -1 -1</clus>
<clus scale="   83.063">  1  5  2 -1</clus>
<clus scale="   92.216">  7  8 -1 -1</clus>
<clus scale="   60.089">  2  5  1 -1</clus>
</clustering>
</event>
<event>
 9    1  0.3197504E-005  0.1056280E+03  0.7546771E-02  0.1274849E+00
         21   -1    0    0  501  502  0.00000000000E+00  0.00000000000E+00  0.22149273960E+03  0.22149273960E+03  0.00000000000E+00 0. -1.
          1   -1    0    0  502    0 -0.00000000000E+00 -0.00000000000E+00 -0.89472641077E+02  0.89472641077E+02  0.00000000000E+00 0. -1.
         23    2    1    2    0    0 -0.33771993436E+02 -0.33595210944E+02  0.22851594097E+00  0.10389105784E+03  0.92326128159E+02 0.  0.
        -24    2    1    2    0    0  0.67327187743E+02  0.24299518583E+01  0.54474468519E+02  0.11721242565E+03  0.78945741690E+02 0.  0.
         11    1    4    4    0    0  0.74768690217E+02 -0.11087246433E+01  0.14212094139E+02  0.76115503854E+02  0.00000000000E+00 0. -1.
        -12    1    4    4    0    0 -0.74415024734E+01  0.35386765016E+01  0.40262374380E+02  0.41096921797E+02  0.00000000000E+00 0.  1.
        -11    1    3    3    0    0  0.19803519166E+02 -0.34247900762E+02  0.22901402995E+02  0.45711840229E+02  0.00000000000E+00 0.  1.
         11    1    3    3    0    0 -0.53575512603E+02  0.65268981749E+00 -0.22672887054E+02  0.58179217613E+02  0.00000000000E+00 0. -1.
          2    1    1    2  501    0 -0.33555194307E+02  0.31165259086E+02  0.77317114066E+02  0.89861897189E+02  0.00000000000E+00 0. -1.
<scales pt_clust_5="13000.00000" pt_clust_6="13000.00000" pt_clust_7="13000.00000" pt_clust_8="13000.00000" pt_clust_9="45.79546"></scales>
<clustering>
<clus scale="   45.795">  1  9  2 -1</clus>
<clus scale="   78.946">  5  6 -1 -1</clus>
<clus scale="   92.326">  7  8 -1 -1</clus>
<clus scale="   94.157">  1  5  2 -1</clus>
<clus scale="   45.795">  1  5  2 -1</clus>
</clustering>
</event>
<event>
 9    1  0.3197504E-005  0.1210042E+03  0.7546771E-02  0.1244964E+00
          1   -1    0    0  502    0 -0.00000000000E+00  0.00000000000E+00  0.96623044144E+02  0.96623044144E+02  0.00000000000E+00 0. -1.
         21   -1    0    0  501  502  0.00000000000E+00 -0.00000000000E+00 -0.39360146107E+03  0.39360146107E+03  0.00000000000E+00 0. -1.
         23    2    1    2    0    0 -0.80169876583E+02 -0.28827565550E+02  0.30707355337E+02  0.12767630519E+03  0.90000331041E+02 0.  0.
        -24    2    1    2    0    0  0.55692721509E+02  0.39497322430E+02 -0.14810304707E+03  0.18099123921E+03  0.78495849648E+02 0.  0.
         13    1    4    4    0    0  0.30694830753E+02 -0.15826326854E+02 -0.92232653015E+02  0.98486077893E+02  0.00000000000E+00 0. -1.
        -14    1    4    4    0    0  0.24997890756E+02  0.55323649284E+02 -0.55870394054E+02  0.82505161318E+02  0.00000000000E+00 0.  1.
        -11    1    3    3    0    0 -0.60271821359E+02  0.25365194234E+02  0.90393897550E+01  0.66013605382E+02  0.00000000000E+00 0. -1.
         11    1    3    3    0    0 -0.19898055224E+02 -0.54192759784E+02  0.21667965582E+02  0.61662699804E+02  0.00000000000E+00 0.  1.
          2    1    1    2  501    0  0.24477155074E+02 -0.10669756880E+02 -0.17958272519E+03  0.18155696082E+03  0.00000000000E+00 0. -1.
<scales pt_clust_5="13000.00000" pt_clust_6="13000.00000" pt_clust_7="13000.00000" pt_clust_8="13000.00000" pt_clust_9="26.70159"></scales>
<clustering>
<clus scale="   26.702">  2  9  1 -1</clus>
<clus scale="   78.496">  5  6 -1 -1</clus>
<clus scale="   90.000">  7  8 -1 -1</clus>
<clus scale="  112.710">  2  5  1 -1</clus>
<clus scale="   26.702">  2  5  1 -1</clus>
</clustering>
</event>
<event>
 9    1  0.3197504E-005  0.1761550E+03  0.7546771E-02  0.1191934E+00
          3   -1    0    0  502    0 -0.00000000000E+00  0.00000000000E+00  0.68848183391E+03  0.68848183391E+03  0.00000000000E+00 0. -1.
         21   -1    0    0  501  502  0.00000000000E+00 -0.00000000000E+00 -0.98753511211E+02  0.98753511211E+02  0.00000000000E+00 0. -1.
         23    2    1    2    0    0  0.68960152850E+02 -0.15854312853E+01  0.81211883824E+01  0.11191807151E+03  0.87759243142E+02 0.  0.
        -24    2    1    2    0    0  0.85383459476E+02  0.92049023594E+02  0.36455860741E+03  0.39404218543E+03  0.81258278123E+02 0.  0.
         11    1    4    4    0    0  0.19488897293E+02  0.63738781492E+02  0.25127712975E+03  0.25996662347E+03  0.00000000000E+00 0. -1.
        -12    1    4    4    0    0  0.65894562182E+02  0.28310242102E+02  0.11328147766E+03  0.13407556196E+03  0.00000000000E+00 0.  1.
        -13    1    3    3    0    0 -0.21013556301E+02  0.85236533543E+00 -0.29356931066E+01  0.21234744385E+02  0.00000000000E+00 0.  1.
         13    1    3    3    0    0  0.89973709151E+02 -0.24377966207E+01  0.11056881489E+02  0.90683327128E+02  0.00000000000E+00 0. -1.
          4    1    1    2  501    0 -0.15434361233E+03 -0.90463592308E+02  0.21704852691E+03  0.28127508818E+03  0.00000000000E+00 0. -1.
<scales pt_clust_5="13000.00000" pt_clust_6="13000.00000" pt_clust_7="13000.00000" pt_clust_8="13000.00000" pt_clust_9="156.29353"></scales>
<clustering>
<clus scale="   81.258">  5  6 -1 -1</clus>
<clus scale="   87.759">  7  8 -1 -1</clus>
<clus scale="  111.623">  1  7  2 -1</clus>
<clus scale="  156.294">  2  9  1 -1</clus>
<clus scale="  156.294">  2  5  1 -1</clus>
</clustering>
</event>
<event>
 9    1  0.3197504E-005  0.1344891E+03  0.7546771E-02  0.1238550E+00
         21   -1    0    0  501  502  0.00000000000E+00  0.00000000000E+00  0.82564655852E+03  0.82564655852E+03  0.00000000000E+00 0.  1.
          1   -1    0    0  502    0 -0.00000000000E+00 -0.00000000000E+00 -0.71014712389E+02  0.71014712389E+02  0.00000000000E+00 0. -1.
        -24    2    1    2    0    0 -0.41769813196E+02 -0.23894580035E+02  0.91307799207E+02  0.13067377145E+03  0.80142698360E+02 0.  0.
         23    2    1    2    0    0  0.96245924969E+02  0.10233110832E+03  0.10086016668E+03  0.19547408830E+03  0.91117573341E+02 0.  0.
         13    1    3    3    0    0 -0.30402531809E+02  0.17344666416E+02  0.63769122613E+01  0.35578313669E+02  0.00000000000E+00 0. -1.
        -14    1    3    3    0    0 -0.11367281387E+02 -0.41239246451E+02  0.84930886945E+02  0.95095457785E+02  0.00000000000E+00 0.  1.
        -13    1    4    4    0    0  0.33427325771E+02  0.48870331437E+02  0.96066568633E+02  0.11284715775E+03  0.00000000000E+00 0. -1.
         13    1    4    4    0    0  0.62818599198E+02  0.53460776885E+02  0.47935980436E+01  0.82626930553E+02  0.00000000000E+00 0.  1.
          2    1    1    2  501    0 -0.54476111773E+02 -0.78436528287E+02  0.56246388025E+03  0.57051341115E+03  0.00000000000E+00 0. -1.
<scales pt_clust_5="13000.00000" pt_clust_6="13000.00000" pt_clust_7="13000.00000" pt_clust_8="13000.00000" pt_clust_9="98.91864"></scales>
<clustering>
<clus scale="   80.143">  5  6 -1 -1</clus>
<clus scale="   91.118">  7  8 -1 -1</clus>
<clus scale="   93.480">  2  5  1 -1</clus>
<clus scale="   98.919">  1  9  2 -1</clus>
<clus scale="   98.919">  1  5  2 -1</clus>
</clustering>
</event>
<event>
 9    1  0.3197504E-005  0.1223272E+03  0.7546771E-02  0.1251114E+00
         21   -1    0    0  501  502  0.00000000000E+00  0.00000000000E+00  0.26809363527E+03  0.26809363527E+03  0.00000000000E+00 0. -1.
          1   -1    0    0  502    0 -0.00000000000E+00 -0.00000000000E+00 -0.14427934866E+03  0.14427934866E+03  0.00000000000E+00 0. -1.
         23    2    1    2    0    0  0.44434283069E+01 -0.29107230963E+02 -0.43512311663E+02  0.10580344529E+03  0.91837208253E+02 0.  0.
        -24    2    1    2    0    0  0.49437401450E+02 -0.68247935020E+02  0.15570843471E+03  0.19469392073E+03  0.80986226185E+02 0.  0.
         13    1    4    4    0    0  0.63062935083E+01 -0.68326291618E+02  0.12192471840E+03  0.13990671328E+03  0.00000000000E+00 0. -1.
        -14    1    4    4    0    0  0.43131107942E+02  0.78356598418E-01  0.33783716310E+02  0.54787207446E+02  0.00000000000E+00 0.  1.
        -13    1    3    3    0    0  0.41356460148E+02 -0.31289546134E+02 -0.45046034055E+01  0.52054624627E+02  0.00000000000E+00 0. -1.
         13    1    3    3    0    0 -0.36913031841E+02  0.21823151717E+01 -0.39007708258E+02  0.53748820663E+02  0.00000000000E+00 0.  1.
          2    1    1    2  501    0 -0.53880829757E+02  0.97355165982E+02  0.11618163567E+02  0.11187561791E+03  0.00000000000E+00 0. -1.
<scales pt_clust_5="13000.00000" pt_clust_6="13000.00000" pt_clust_7="13000.00000" pt_clust_8="13000.00000" pt_clust_9="91.67981"></scales>
<clustering>
<clus scale="   80.986">  5  6 -1 -1</clus>
<clus scale="   91.837">  7  8 -1 -1</clus>
<clus scale="   96.442">  2  7  1 -1</clus>
<clus scale="   91.680">  1  9  2 -1</clus>
<clus scale="   91.680">  1  5  2 -1</clus>
</clustering>
</event>
<event>
 9    1  0.3197504E-005  0.2022796E+03  0.7546771E-02  0.1148911E+00
          1   -1    0    0  502    0 -0.00000000000E+00  0.00000000000E+00  0.73775620477E+03  0.73775620477E+03  0.00000000000E+00 0. -1.
         21   -1    0    0  501  502  0.00000000000E+00 -0.00000000000E+00 -0.10883985134E+03  0.10883985134E+03  0.00000000000E+00 0.  1.
        -24    2    1    2    0    0 -0.17783519782E+03  0.27067395341E+01  0.51009391494E+03  0.54578659490E+03  0.77810803189E+02 0.  0.
         23    2    1    2    0    0  0.19709101320E+03 -0.19922913346E+02  0.44457705480E+02  0.22208655106E+03  0.90023100506E+02 0.  0.
         13    1    3    3    0    0 -0.17373551598E+03  0.18834945909E+02  0.43334712483E+03  0.46725636999E+03  0.00000000000E+00 0. -1.
        -14    1    3    3    0    0 -0.40996818410E+01 -0.16128206375E+02  0.76746790116E+02  0.78530224915E+02  0.00000000000E+00 0.  1.
        -13    1    4    4    0    0  0.54964328856E+02  0.16611755009E+02 -0.21348294242E+02  0.61259917712E+02  0.00000000000E+00 0.  1.
         13    1    4    4    0    0  0.14212668434E+03 -0.36534668355E+02  0.65805999722E+02  0.16082663335E+03  0.00000000000E+00 0. -1.
          2    1    1    2  501    0 -0.19255815374E+02  0.17216173812E+02  0.74364733012E+02  0.78722910149E+02  0.00000000000E+00 0. -1.
<scales pt_clust_5="13000.00000" pt_clust_6="13000.00000" pt_clust_7="13000.00000" pt_clust_8="13000.00000" pt_clust_9="25.82990"></scales>
<clustering>
<clus scale="   25.830">  2  9  1 -1</clus>
<clus scale="   77.811">  5  6 -1 -1</clus>
<clus scale="   90.023">  7  8 -1 -1</clus>
<clus scale="  197.148">  1  5  2 -1</clus>
<clus scale="   25.830">  2  5  1 -1</clus>
</clustering>
</event>
<event>
 9    1  0.3197504E-005  0.1546516E+03  0.7546771E-02  0.1195746E+00
         -2   -1    0    0    0  501 -0.00000000000E+00  0.00000000000E+00  0.21790163358E+03  0.21790163358E+03  0.00000000000E+00 0.  1.
         21   -1    0    0  501  502  0.00000000000E+00 -0.00000000000E+00 -0.19097562807E+03  0.19097562807E+03  0.00000000000E+00 0.  1.
         23    2    1    2    0    0 -0.41470398505E+02  0.13171433677E+03  0.93625220249E+02  0.18935617548E+03  0.89563490682E+02 0.  0.
        -24    2    1    2    0    0  0.19655255010E+02 -0.91255631349E+02 -0.10165761404E+03  0.16177251899E+03  0.84392879477E+02 0.  0.
         11    1    4    4    0    0  0.19837227136E+02 -0.46937916770E+02 -0.90783689158E-01  0.50957745758E+02  0.00000000000E+00 0. -1.
        -12    1    4    4    0    0 -0.18197212603E+00 -0.44317714580E+02 -0.10156683035E+03  0.11081477323E+03  0.00000000000E+00 0.  1.
        -11    1    3    3    0    0 -0.16795360247E+02  0.13623256538E+02 -0.15560397434E+02  0.26642132288E+02  0.00000000000E+00 0. -1.
         11    1    3    3    0    0 -0.24675038258E+02  0.11809108023E+03  0.10918561768E+03  0.16271404319E+03  0.00000000000E+00 0.  1.
         -1    1    1    2    0  502  0.21815143495E+02 -0.40458705418E+02  0.34958399303E+02  0.57748567183E+02  0.00000000000E+00 0.  1.
<scales pt_clust_5="13000.00000" pt_clust_6="13000.00000" pt_clust_7="13000.00000" pt_clust_8="13000.00000" pt_clust_9="45.96531"></scales>
<clustering>
<clus scale="   45.965">  2  9  1 -1</clus>
<clus scale="   84.393">  5  6 -1 -1</clus>
<clus scale="   89.563">  7  8 -1 -1</clus>
<clus scale="  151.716">  2  5  1 -1</clus>
<clus scale="   45.965">  2  5  1 -1</clus>
</clustering>
</event>
<event>
 9    1  0.3197504E-005  0.2004958E+03  0.7546771E-02  0.1150219E+00
          1   -1    0    0  502    0 -0.00000000000E+00  0.00000000000E+00  0.16247022308E+04  0.16247022308E+04  0.00000000000E+00 0. -1.
         21   -1    0    0  501  502  0.00000000000E+00 -0.00000000000E+00 -0.27219180765E+02  0.27219180765E+02  0.00000000000E+00 0.  1.
         23    2    1    2    0    0 -0.44014614550E+02 -0.17496763860E+03  0.87124907329E+03  0.89440142365E+03  0.91257865808E+02 0.  0.
        -24    2    1    2    0    0  0.23696171520E+02  0.17526732128E+03  0.66962024081E+03  0.69736980892E+03  0.81567401750E+02 0.  0.
         11    1    4    4    0    0  0.34616295560E+02  0.60220474070E+02  0.36531321645E+03  0.37185822504E+03  0.00000000000E+00 0. -1.
        -12    1    4    4    0    0 -0.10920124040E+02  0.11504684721E+03  0.30430702436E+03  0.32551158388E+03  0.00000000000E+00 0.  1.
        -11    1    3    3    0    0 -0.14671419534E+02 -0.16195034305E+02  0.26441416205E+02  0.34302743013E+02  0.00000000000E+00 0.  1.
         11    1    3    3    0    0 -0.29343195015E+02 -0.15877260430E+03  0.84480765708E+03  0.86009868064E+03  0.00000000000E+00 0. -1.
          2    1    1    2  501    0  0.20318443030E+02 -0.29968268164E+00  0.56613735897E+02  0.60150178961E+02  0.00000000000E+00 0. -1.
<scales pt_clust_5="13000.00000" pt_clust_6="13000.00000" pt_clust_7="13000.00000" pt_clust_8="13000.00000" pt_clust_9="20.32065"></scales>
<clustering>
<clus scale="   20.321">  2  9  1 -1</clus>
<clus scale="   81.567">  5  6 -1 -1</clus>
<clus scale="   91.258">  7  8 -1 -1</clus>
<clus scale="  196.275">  2  5  1 -1</clus>
<clus scale="   20.321">  2  5  1 -1</clus>
</clustering>
</event>
<event>
 9    1  0.3197504E-005  0.1462165E+03  0.7546771E-02  0.1206904E+00
         -2   -1    0    0    0  501 -0.00000000000E+00  0.00000000000E+00  0.21561077588E+03  0.21561077588E+03  0.00000000000E+00 0.  1.
         21   -1    0    0  501  502  0.00000000000E+00 -0.00000000000E+00 -0.35518670605E+03  0.35518670605E+03  0.00000000000E+00 0. -1.
        -24    2    1    2    0    0  0.66413082838E+02  0.93450102024E+02  0.61709375226E+02  0.15335984584E+03  0.81040583566E+02 0.  0.
         23    2    1    2    0    0 -0.95054188069E+02 -0.78905083067E+02 -0.28742587877E+03  0.32550250208E+03  0.89871754579E+02 0.  0.
         13    1    3    3    0    0  0.71512919209E+02  0.94491997162E+02  0.74208381562E+02  0.13982030981E+03  0.00000000000E+00 0. -1.
        -14    1    3    3    0    0 -0.50998363709E+01 -0.10418951375E+01 -0.12499006336E+02  0.13539536029E+02  0.00000000000E+00 0.  1.
        -13    1    4    4    0    0 -0.43119048692E+02 -0.18247280945E+02 -0.29126694332E+02  0.55141453959E+02  0.00000000000E+00 0.  1.
         13    1    4    4    0    0 -0.51935139377E+02 -0.60657802122E+02 -0.25829918444E+03  0.27036104812E+03  0.00000000000E+00 0. -1.
         -1    1    1    2    0  502  0.28641105231E+02 -0.14545018958E+02  0.86140573374E+02  0.91935134016E+02  0.00000000000E+00 0.  1.
<scales pt_clust_5="13000.00000" pt_clust_6="13000.00000" pt_clust_7="13000.00000" pt_clust_8="13000.00000" pt_clust_9="32.12276"></scales>
<clustering>
<clus scale="   32.123">  2  9  1 -1</clus>
<clus scale="   81.041">  5  6 -1 -1</clus>
<clus scale="   89.872">  7  8 -1 -1</clus>
<clus scale="  140.961">  1  5  2 -1</clus>
<clus scale="   32.123">  2  5  1 -1</clus>
</clustering>
</event>
<event>
 9    1  0.3197504E-005  0.1103253E+03  0.7546771E-02  0.1263600E+00
          1   -1    0    0  502    0 -0.00000000000E+00  0.00000000000E+00  0.41396929292E+02  0.41396929292E+02  0.00000000000E+00 0. -1.
         21   -1    0    0  501  502  0.00000000000E+00 -0.00000000000E+00 -0.92647662864E+03  0.92647662864E+03  0.00000000000E+00 0. -1.
         23    2    1    2    0    0 -0.46771336046E+02  0.23121823238E+02 -0.12795792074E+03  0.16597616217E+03  0.91938459538E+02 0.  0.
        -24    2    1    2    0    0  0.54508132489E+02 -0.10270602935E+03 -0.66400287648E+03  0.67915932582E+03  0.82691625302E+02 0.  0.
         11    1    4    4    0    0  0.71426618602E+02 -0.67347589804E+02 -0.38053051231E+03  0.39298973332E+03  0.00000000000E+00 0. -1.
        -12    1    4    4    0    0 -0.16918486112E+02 -0.35358439544E+02 -0.28347236418E+03  0.28616959250E+03  0.00000000000E+00 0.  1.
        -13    1    3    3    0    0 -0.40611028776E+02 -0.18050979830E+02 -0.17202983767E+02  0.47655389848E+02  0.00000000000E+00 0.  1.
         13    1    3    3    0    0 -0.61603072700E+01  0.41172803068E+02 -0.11075493698E+03  0.11832077232E+03  0.00000000000E+00 0. -1.
          2    1    1    2  501    0 -0.77367964432E+01  0.79584206110E+02 -0.93118902116E+02  0.12273806994E+03  0.00000000000E+00 0. -1.
<scales pt_clust_5="13000.00000" pt_clust_6="13000.00000" pt_clust_7="13000.00000" pt_clust_8="13000.00000" pt_clust_9="79.95943"></scales>
<clustering>
<clus scale="   79.959">  2  9  1 -1</clus>
<clus scale="   82.692">  5  6 -1 -1</clus>
<clus scale="   91.938">  7  8 -1 -1</clus>
<clus scale="  102.747">  2  5  1 -1</clus>
<clus scale="   79.959">  2  5  1 -1</clus>
</clustering>
</event>
<event>
 9    1  0.3197504E-005  0.2395537E+03  0.7546771E-02  0.1120713E+00
         21   -1    0    0  501  502  0.00000000000E+00  0.00000000000E+00  0.58828571488E+03  0.58828571488E+03  0.00000000000E+00 0. -1.
          1   -1    0    0  502    0 -0.00000000000E+00 -0.00000000000E+00 -0.14011833413E+03  0.14011833413E+03  0.00000000000E+00 0. -1.
         23    2    1    2    0    0  0.12616360272E+03  0.15764676861E+03  0.11973461521E+03  0.25165653203E+03  0.90691089598E+02 0.  0.
        -24    2    1    2    0    0 -0.20102933669E+03 -0.16180702158E+03  0.24887829554E+03  0.36742643244E+03  0.80420587069E+02 0.  0.
         11    1    4    4    0    0 -0.53067641182E+02 -0.88490460479E+02  0.74491142371E+02  0.12726219560E+03  0.00000000000E+00 0. -1.
        -12    1    4    4    0    0 -0.14796169551E+03 -0.73316561097E+02  0.17438715317E+03  0.24016423685E+03  0.00000000000E+00 0.  1.
        -11    1    3    3    0    0  0.13705909303E+03  0.13858876993E+03  0.12141762112E+03  0.22963945840E+03  0.00000000000E+00 0. -1.
         11    1    3    3    0    0 -0.10895490311E+02  0.19057998678E+02 -0.16830059149E+01  0.22017073639E+02  0.00000000000E+00 0.  1.
          2    1    1    2  501    0  0.74865733974E+02  0.41602529629E+01  0.79554469990E+02  0.10932108453E+03  0.00000000000E+00 0. -1.
<scales pt_clust_5="13000.00000" pt_clust_6="13000.00000" pt_clust_7="13000.00000" pt_clust_8="13000.00000" pt_clust_9="74.98124"></scales>
<clustering>
<clus scale="   74.981">  1  9  2 -1</clus>
<clus scale="   80.421">  5  6 -1 -1</clus>
<clus scale="   90.691">  7  8 -1 -1</clus>
<clus scale="  235.857">  1  5  2 -1</clus>
<clus scale="   74.981">  1  5  2 -1</clus>
</clustering>
</event>
<event>
 9    1  0.3197504E-005  0.1203073E+03  0.7546771E-02  0.1242599E+00
         -2   -1    0    0    0  501 -0.00000000000E+00  0.00000000000E+00  0.10106807605E+03  0.10106807605E+03  0.00000000000E+00 0.  1.
         21   -1    0    0  501  502  0.00000000000E+00 -0.00000000000E+00 -0.28288382835E+03  0.28288382835E+03  0.00000000000E+00 0.  1.
         23    2    1    2    0    0  0.52732672567E+02  0.63855125985E+02 -0.52077387373E+01  0.12453921766E+03  0.92869178539E+02 0.  0.
        -24    2    1    2    0    0 -0.72195415141E+02 -0.11007357462E+02 -0.16325827252E+03  0.20153436115E+03  0.92895076790E+02 0.  0.
         11    1    4    4    0    0 -0.31566112245E+02 -0.12298399826E+02 -0.60941104223E+00  0.33882760548E+02  0.00000000000E+00 0. -1.
        -12    1    4    4    0    0 -0.40629302896E+02  0.12910423643E+01 -0.16264886148E+03  0.16765160060E+03  0.00000000000E+00 0.  1.
        -13    1    3    3    0    0  0.34580877253E+02  0.10021843010E+02 -0.43168905518E+02  0.56212354626E+02  0.00000000000E+00 0. -1.
         13    1    3    3    0    0  0.18151795313E+02  0.53833282975E+02  0.37961166781E+02  0.68326863036E+02  0.00000000000E+00 0.  1.
         -1    1    1    2    0  502  0.19462742574E+02 -0.52847768523E+02 -0.13349741045E+02  0.57878325583E+02  0.00000000000E+00 0.  1.
<scales pt_clust_5="13000.00000" pt_clust_6="13000.00000" pt_clust_7="13000.00000" pt_clust_8="13000.00000" pt_clust_9="56.31774"></scales>
<clustering>
<clus scale="   56.318">  2  9  1 -1</clus>
<clus scale="   92.869">  7  8 -1 -1</clus>
<clus scale="   92.895">  5  6 -1 -1</clus>
<clus scale="  120.287">  1  7  2 -1</clus>
<clus scale="   56.318">  2  5  1 -1</clus>
</clustering>
</event>
<event>
 9    1  0.3197504E-005  0.9274543E+02  0.7546771E-02  0.1300824E+00
         -2   -1    0    0    0  501 -0.00000000000E+00  0.00000000000E+00  0.25606835087E+03  0.25606835087E+03  0.00000000000E+00 0.  1.
         21   -1    0    0  501  502  0.00000000000E+00 -0.00000000000E+00 -0.48819399040E+02  0.48819399040E+02  0.00000000000E+00 0. -1.
         23    2    1    2    0    0  0.39489808130E+02  0.14108916170E+02  0.10046967046E+03  0.14144683020E+03  0.90302517284E+02 0.  0.
        -24    2    1    2    0    0 -0.42335752473E+00 -0.22400485789E+01  0.67385940487E+02  0.10670563187E+03  0.82704472967E+02 0.  0.
         13    1    4    4    0    0  0.31901206343E+02  0.88485472451E+00  0.67017671797E+02  0.74228284818E+02  0.00000000000E+00 0. -1.
        -14    1    4    4    0    0 -0.32324563868E+02 -0.31249033034E+01  0.36826869069E+00  0.32477347055E+02  0.00000000000E+00 0.  1.
        -11    1    3    3    0    0  0.91919227486E+01 -0.20960299620E+02 -0.73911242347E+01  0.24051077344E+02  0.00000000000E+00 0. -1.
         11    1    3    3    0    0  0.30297885381E+02  0.35069215789E+02  0.10786079470E+03  0.11739575285E+03  0.00000000000E+00 0.  1.
         -1    1    1    2    0  502 -0.39066450605E+02 -0.11868867591E+02  0.39393340878E+02  0.56735287840E+02  0.00000000000E+00 0.  1.
<scales pt_clust_5="13000.00000" pt_clust_6="13000.00000" pt_clust_7="13000.00000" pt_clust_8="13000.00000" pt_clust_9="40.82964"></scales>
<clustering>
<clus scale="   40.830">  2  9  1 -1</clus>
<clus scale="   82.704">  5  6 -1 -1</clus>
<clus scale="   85.365">  2  5  1 -1</clus>
<clus scale="   90.303">  7  8 -1 -1</clus>
<clus scale="   40.830">  2  5  1 -1</clus>
</clustering>
</event>
<event>
 9    1  0.3197504E-005  0.9171978E+02  0.7546771E-02  0.1307280E+00
          1   -1    0    0  502    0 -0.00000000000E+00  0.00000000000E+00  0.46402457985E+03  0.46402457985E+03  0.00000000000E+00 0. -1.
         21   -1    0    0  501  502  0.00000000000E+00 -0.00000000000E+00 -0.64433051318E+02  0.64433051318E+02  0.00000000000E+00 0. -1.
        -24    2    1    2    0    0 -0.75583422844E+01  0.10467602293E+02  0.26818901248E+03  0.27924194817E+03  0.76707365802E+02 0.  0.
         23    2    1    2    0    0  0.31174389423E+02  0.21195420410E+01  0.17424129566E+03  0.19870514031E+03  0.90262775589E+02 0.  0.
         11    1    3    3    0    0 -0.16487328197E+02  0.41819615822E+02  0.16604091853E+03  0.17201830973E+03  0.00000000000E+00 0. -1.
        -12    1    3    3    0    0  0.89289859126E+01 -0.31352013528E+02  0.10214809395E+03  0.10722363844E+03  0.00000000000E+00 0.  1.
        -13    1    4    4    0    0  0.45924994275E+01 -0.27425038137E+02  0.14911575279E+03  0.15168629304E+03  0.00000000000E+00 0.  1.
         13    1    4    4    0    0  0.26581889995E+02  0.29544580178E+02  0.25125542878E+02  0.47018847269E+02  0.00000000000E+00 0. -1.
          2    1    1    2  501    0 -0.23616047138E+02 -0.12587144334E+02 -0.42838779605E+02  0.50510542692E+02  0.00000000000E+00 0. -1.
<scales pt_clust_5="13000.00000" pt_clust_6="13000.00000" pt_clust_7="13000.00000" pt_clust_8="13000.00000" pt_clust_9="26.76105"></scales>
<clustering>
<clus scale="   26.761">  2  9  1 -1</clus>
<clus scale="   76.707">  5  6 -1 -1</clus>
<clus scale="   78.417">  1  5  2 -1</clus>
<clus scale="   90.263">  7  8 -1 -1</clus>
<clus scale="   26.761">  2  5  1 -1</clus>
</clustering>
</event>
<event>
 9    1  0.3197504E-005  0.1071488E+03  0.7546771E-02  0.1270618E+00
          1   -1    0    0  502    0 -0.00000000000E+00  0.00000000000E+00  0.87853989887E+02  0.87853989887E+02  0.00000000000E+00 0. -1.
         21   -1    0    0  501  502  0.00000000000E+00 -0.00000000000E+00 -0.32457635090E+03  0.32457635090E+03  0.00000000000E+00 0. -1.
         23    2    1    2    0    0 -0.61027845783E+02  0.13791560935E+02 -0.55092365216E+02  0.12448556794E+03  0.92449352652E+02 0.  0.
        -24    2    1    2    0    0  0.34554281127E+02  0.64711861784E+01 -0.21993053124E+03  0.23716722307E+03  0.81504469390E+02 0.  0.
         13    1    4    4    0    0  0.21714037018E+02 -0.36399459142E+02 -0.84496586809E+02  0.94530911409E+02  0.00000000000E+00 0. -1.
        -14    1    4    4    0    0  0.12840244109E+02  0.42870645320E+02 -0.13543394443E+03  0.14263631166E+03  0.00000000000E+00 0.  1.
        -11    1    3    3    0    0 -0.67012861883E+02 -0.90393863982E+01 -0.69391411397E+02  0.96889638971E+02  0.00000000000E+00 0. -1.
         11    1    3    3    0    0  0.59850160999E+01  0.22830947333E+02  0.14299046182E+02  0.27595928967E+02  0.00000000000E+00 0.  1.
          2    1    1    2  501    0  0.26473564657E+02 -0.20262747113E+02  0.38300535446E+02  0.50777549780E+02  0.00000000000E+00 0. -1.
<scales pt_clust_5="13000.00000" pt_clust_6="13000.00000" pt_clust_7="13000.00000" pt_clust_8="13000.00000" pt_clust_9="33.33811"></scales>
<clustering>
<clus scale="   33.338">  2  9  1 -1</clus>
<clus scale="   81.504">  5  6 -1 -1</clus>
<clus scale="   92.449">  7  8 -1 -1</clus>
<clus scale="   97.862">  2  5  1 -1</clus>
<clus scale="   33.338">  2  5  1 -1</clus>
</clustering>
</event>
<event>
 9    1  0.3197504E-005  0.1059606E+03  0.7546771E-02  0.1271822E+00
         -2   -1    0    0    0  501 -0.00000000000E+00  0.00000000000E+00  0.27187365885E+03  0.27187365885E+03  0.00000000000E+00 0.  1.
         21   -1    0    0  501  502  0.00000000000E+00 -0.00000000000E+00 -0.10982289952E+03  0.10982289952E+03  0.00000000000E+00 0.  1.
        -24    2    1    2    0    0  0.47014117017E+02  0.23677862553E+02  0.69292346560E+00  0.96915804782E+02  0.81370908190E+02 0.  0.
         23    2    1    2    0    0 -0.66906261807E+02  0.19691157368E+02 -0.28480452238E+01  0.11378326619E+03  0.89857279924E+02 0.  0.
         13    1    3    3    0    0 -0.76625463873E+01 -0.23011066074E+02 -0.51020154814E+01  0.24784155038E+02  0.00000000000E+00 0. -1.
        -14    1    3    3    0    0  0.54676663405E+02  0.46688928626E+02  0.57949389470E+01  0.72131649744E+02  0.00000000000E+00 0.  1.
        -11    1    4    4    0    0 -0.61295626511E+02 -0.21768073511E+02  0.17357728318E+02  0.67322311205E+02  0.00000000000E+00 0.  1.
         11    1    4    4    0    0 -0.56106352962E+01  0.41459230878E+02 -0.20205773542E+02  0.46460954982E+02  0.00000000000E+00 0. -1.
         -1    1    1    2    0  502  0.19892144789E+02 -0.43369019920E+02  0.16420588109E+03  0.17099748740E+03  0.00000000000E+00 0.  1.
<scales pt_clust_5="13000.00000" pt_clust_6="13000.00000" pt_clust_7="13000.00000" pt_clust_8="13000.00000" pt_clust_9="47.71343"></scales>
<clustering>
<clus scale="   47.713">  2  9  1 -1</clus>
<clus scale="   81.371">  5  6 -1 -1</clus>
<clus scale="   89.857">  7  8 -1 -1</clus>
<clus scale="   98.866">  1  5  2 -1</clus>
<clus scale="   47.713">  2  5  1 -1</clus>
</clustering>
</event>
<event>
 9    1  0.3197504E-005  0.9494858E+02  0.7546771E-02  0.1297137E+00
         21   -1    0    0  501  502  0.00000000000E+00  0.00000000000E+00  0.36243828048E+03  0.36243828048E+03  0.00000000000E+00 0.  1.
         -4   -1    0    0    0  501 -0.00000000000E+00 -0.00000000000E+00 -0.37037162476E+02  0.37037162476E+02  0.00000000000E+00 0.  1.
        -24    2    1    2    0    0  0.22536845366E+02 -0.22831300505E+02  0.92463952355E+02  0.12671249237E+03  0.80481647323E+02 0.  0.
         23    2    1    2    0    0 -0.32696542092E+02 -0.13538445638E+02  0.12546595492E+03  0.15885053245E+03  0.90771319468E+02 0.  0.
         13    1    3    3    0    0 -0.25543406117E+02 -0.14755832856E+02  0.63466321414E+02  0.69986957022E+02  0.00000000000E+00 0. -1.
        -14    1    3    3    0    0  0.48080251483E+02 -0.80754676496E+01  0.28997630941E+02  0.56725535349E+02  0.00000000000E+00 0.  1.
        -13    1    4    4    0    0 -0.46379460133E+02 -0.28623023798E+02  0.32019615217E+02  0.63210660273E+02  0.00000000000E+00 0.  1.
         13    1    4    4    0    0  0.13682918040E+02  0.15084578160E+02  0.93446339708E+02  0.95639872172E+02  0.00000000000E+00 0. -1.
         -3    1    1    2    0  502  0.10159696726E+02  0.36369746144E+02  0.10747121073E+03  0.11391241815E+03  0.00000000000E+00 0.  1.
<scales pt_clust_5="13000.00000" pt_clust_6="13000.00000" pt_clust_7="13000.00000" pt_clust_8="13000.00000" pt_clust_9="37.76212"></scales>
<clustering>
<clus scale="   37.762">  1  9  2 -1</clus>
<clus scale="   80.482">  5  6 -1 -1</clus>
<clus scale="   85.165">  2  5  1 -1</clus>
<clus scale="   90.771">  7  8 -1 -1</clus>
<clus scale="   37.762">  1  5  2 -1</clus>
</clustering>
</event>
<event>
 9    1  0.3197504E-005  0.1944672E+03  0.7546771E-02  0.1158204E+00
         21   -1    0    0  501  502  0.00000000000E+00  0.00000000000E+00  0.45232707147E+02  0.45232707147E+02  0.00000000000E+00 0. -1.
          1   -1    0    0  502    0 -0.00000000000E+00 -0.00000000000E+00 -0.88971793951E+03  0.88971793951E+03  0.00000000000E+00 0. -1.
        -24    2    1    2    0    0  0.14787422050E+03  0.86571277945E+02 -0.46587393516E+03  0.50118202638E+03  0.69163059850E+02 0.  0.
         23    2    1    2    0    0 -0.14208056468E+03 -0.62412057105E+02 -0.33251754217E+03  0.38140576463E+03  0.10402062155E+03 0.  0.
         11    1    3    3    0    0  0.14705114649E+03  0.61307809009E+02 -0.40949865241E+03  0.43939940084E+03  0.00000000000E+00 0. -1.
        -12    1    3    3    0    0  0.82307400992E+00  0.25263468937E+02 -0.56375282746E+02  0.61782625537E+02  0.00000000000E+00 0.  1.
        -13    1    4    4    0    0 -0.12526848395E+03 -0.89147783139E+02 -0.29228882432E+03  0.33026092281E+03  0.00000000000E+00 0. -1.
         13    1    4    4    0    0 -0.16812080728E+02  0.26735726035E+02 -0.40228717850E+02  0.51144841821E+02  0.00000000000E+00 0.  1.
          2    1    1    2  501    0 -0.57936558166E+01 -0.24159220841E+02 -0.46093755024E+02  0.52362855648E+02  0.00000000000E+00 0. -1.
<scales pt_clust_5="13000.00000" pt_clust_6="13000.00000" pt_clust_7="13000.00000" pt_clust_8="13000.00000" pt_clust_9="24.84420"></scales>
<clustering>
<clus scale="   24.844">  1  9  2 -1</clus>
<clus scale="   69.163">  5  6 -1 -1</clus>
<clus scale="  104.021">  7  8 -1 -1</clus>
<clus scale="  178.272">  2  5  1 -1</clus>
<clus scale="   24.844">  1  5  2 -1</clus>
</clustering>
</event>
<event>
 9    1  0.3197504E-005  0.1294379E+03  0.7546771E-02  0.1250241E+00
         21   -1    0    0  501  502  0.00000000000E+00  0.00000000000E+00  0.39479233318E+03  0.39479233318E+03  0.00000000000E+00 0.  1.
         -2   -1    0    0    0  501 -0.00000000000E+00 -0.00000000000E+00 -0.91978413291E+02  0.91978413291E+02  0.00000000000E+00 0.  1.
        -24    2    1    2    0    0  0.18965221621E+02  0.10987366295E+02 -0.13168520845E+02  0.83876014443E+02  0.79883502729E+02 0.  0.
         23    2    1    2    0    0  0.60966471912E+02  0.35299029196E+02  0.63455025054E+02  0.13400516044E+03  0.94699053114E+02 0.  0.
         13    1    3    3    0    0  0.37228690219E+02 -0.23336577920E+02 -0.78378467687E+01  0.44631861785E+02  0.00000000000E+00 0. -1.
        -14    1    3    3    0    0 -0.18263468598E+02  0.34323944215E+02 -0.53306740760E+01  0.39244152658E+02  0.00000000000E+00 0.  1.
        -13    1    4    4    0    0  0.38970539133E+02  0.47850312351E+02 -0.41112649307E+01  0.61848668634E+02  0.00000000000E+00 0.  1.
         13    1    4    4    0    0  0.21995932779E+02 -0.12551283155E+02  0.67566289985E+02  0.72156491807E+02  0.00000000000E+00 0. -1.
         -1    1    1    2    0  502 -0.79931693533E+02 -0.46286395492E+02  0.25252741568E+03  0.26888957158E+03  0.00000000000E+00 0.  1.
<scales pt_clust_5="13000.00000" pt_clust_6="13000.00000" pt_clust_7="13000.00000" pt_clust_8="13000.00000" pt_clust_9="88.23984"></scales>
<clustering>
<clus scale="   79.884">  5  6 -1 -1</clus>
<clus scale="   82.836">  2  5  1 -1</clus>
<clus scale="   88.240">  1  9  2 -1</clus>
<clus scale="   94.699">  7  8 -1 -1</clus>
<clus scale="   88.240">  1  5  2 -1</clus>
</clustering>
</event>
<event>
 9    1  0.3197504E-005  0.1576097E+03  0.7546771E-02  0.1194259E+00
         21   -1    0    0  501  502  0.00000000000E+00  0.00000000000E+00  0.11869253493E+03  0.11869253493E+03  0.00000000000E+00 0.  1.
         -2   -1    0    0    0  501 -0.00000000000E+00 -0.00000000000E+00 -0.39298013229E+03  0.39298013229E+03  0.00000000000E+00 0.  1.
        -24    2    1    2    0    0 -0.15890770991E+03  0.31543972211E+02 -0.19385900394E+03  0.26494622970E+03  0.79802937110E+02 0.  0.
         23    2    1    2    0    0  0.58081476664E+02 -0.26375563120E+02  0.32613146654E+01  0.11559046809E+03  0.96339980686E+02 0.  0.
         11    1    3    3    0    0 -0.46150546731E+02 -0.20311280262E+02 -0.27628512389E+02  0.57495702155E+02  0.00000000000E+00 0. -1.
        -12    1    3    3    0    0 -0.11275716318E+03  0.51855252472E+02 -0.16623049155E+03  0.20745052754E+03  0.00000000000E+00 0.  1.
        -11    1    4    4    0    0  0.64571042606E+02 -0.55767304090E+02  0.47730972938E+01  0.85452877110E+02  0.00000000000E+00 0.  1.
         11    1    4    4    0    0 -0.64895659417E+01  0.29391740970E+02 -0.15117826285E+01  0.30137590980E+02  0.00000000000E+00 0. -1.
         -1    1    1    2    0  502  0.10082623325E+03 -0.51684090908E+01 -0.83689908091E+02  0.13113596943E+03  0.00000000000E+00 0.  1.
<scales pt_clust_5="13000.00000" pt_clust_6="13000.00000" pt_clust_7="13000.00000" pt_clust_8="13000.00000" pt_clust_9="100.95866"></scales>
<clustering>
<clus scale="   79.803">  5  6 -1 -1</clus>
<clus scale="   96.340">  7  8 -1 -1</clus>
<clus scale="  100.959">  1  9  2 -1</clus>
<clus scale="  148.081">  2  5  1 -1</clus>
<clus scale="  100.959">  1  5  2 -1</clus>
</clustering>
</event>
<event>
 9    1  0.3197504E-005  0.1042406E+03  0.7546771E-02  0.1277523E+00
         21   -1    0    0  501  502  0.00000000000E+00  0.00000000000E+00  0.71255360675E+03  0.71255360675E+03  0.00000000000E+00 0. -1.
          1   -1    0    0  502    0 -0.00000000000E+00 -0.00000000000E+00 -0.16712149423E+03  0.16712149423E+03  0.00000000000E+00 0. -1.
        -24    2    1    2    0    0  0.28127048163E+02 -0.58609061370E+02 -0.12119146320E+03  0.15821370722E+03  0.78217986987E+02 0.  0.
         23    2    1    2    0    0  0.16521847145E+02 -0.15378304880E+02  0.66427267405E+02  0.11507598601E+03  0.91216429486E+02 0.  0.
         13    1    3    3    0    0 -0.47695462516E-01 -0.70511640845E+02 -0.76290205375E+02  0.10388498066E+03  0.00000000000E+00 0. -1.
        -14    1    3    3    0    0  0.28174743625E+02  0.11902579475E+02 -0.44901257822E+02  0.54328726568E+02  0.00000000000E+00 0.  1.
        -13    1    4    4    0    0 -0.23750271682E+02 -0.27581390711E+02  0.63124240450E+02  0.72866166710E+02  0.00000000000E+00 0. -1.
         13    1    4    4    0    0  0.40272118827E+02  0.12203085831E+02  0.33030269552E+01  0.42209819305E+02  0.00000000000E+00 0.  1.
          2    1    1    2  501    0 -0.44648895308E+02  0.73987366250E+02  0.60019630831E+03  0.60638540774E+03  0.00000000000E+00 0. -1.
<scales pt_clust_5="13000.00000" pt_clust_6="13000.00000" pt_clust_7="13000.00000" pt_clust_8="13000.00000" pt_clust_9="86.41559"></scales>
<clustering>
<clus scale="   78.218">  5  6 -1 -1</clus>
<clus scale="   86.416">  1  9  2 -1</clus>
<clus scale="   91.216">  7  8 -1 -1</clus>
<clus scale="   93.079">  2  5  1 -1</clus>
<clus scale="   86.416">  1  5  2 -1</clus>
</clustering>
</event>
<event>
 9    1  0.3197504E-005  0.2485624E+03  0.7546771E-02  0.1117297E+00
         21   -1    0    0  501  502  0.00000000000E+00  0.00000000000E+00  0.14213706018E+03  0.14213706018E+03  0.00000000000E+00 0. -1.
          1   -1    0    0  502    0 -0.00000000000E+00 -0.00000000000E+00 -0.11559472937E+04  0.11559472937E+04  0.00000000000E+00 0. -1.
        -24    2    1    2    0    0 -0.21536633383E+03  0.10785641309E+02 -0.12137350516E+03  0.26005778344E+03  0.79997094747E+02 0.  0.
         23    2    1    2    0    0  0.16034264514E+03  0.21934825174E+03 -0.39725967261E+03  0.48921919841E+03  0.87731164474E+02 0.  0.
         11    1    3    3    0    0 -0.11127929067E+03 -0.54326269469E+01 -0.10566454821E+03  0.15354996163E+03  0.00000000000E+00 0. -1.
        -12    1    3    3    0    0 -0.10408704316E+03  0.16218268255E+02 -0.15708956948E+02  0.10650782181E+03  0.00000000000E+00 0.  1.
        -13    1    4    4    0    0  0.12790632366E+03  0.15699833364E+03 -0.22250197283E+03  0.30085815979E+03  0.00000000000E+00 0. -1.
         13    1    4    4    0    0  0.32436321481E+02  0.62349918094E+02 -0.17475769978E+03  0.18836103862E+03  0.00000000000E+00 0.  1.
          2    1    1    2  501    0  0.55023688691E+02 -0.23013389304E+03 -0.49517705579E+03  0.54880737206E+03  0.00000000000E+00 0. -1.
<scales pt_clust_5="13000.00000" pt_clust_6="13000.00000" pt_clust_7="13000.00000" pt_clust_8="13000.00000" pt_clust_9="232.56515"></scales>
<clustering>
<clus scale="   79.997">  5  6 -1 -1</clus>
<clus scale="   87.731">  7  8 -1 -1</clus>
<clus scale="  229.997">  2  5  1 -1</clus>
<clus scale="  232.565">  1  9  2 -1</clus>
<clus scale="  232.565">  1  5  2 -1</clus>
</clustering>
</event>
<event>
 9    1  0.3197504E-005  0.1134118E+03  0.7546771E-02  0.1257983E+00
          1   -1    0    0  502    0 -0.00000000000E+00  0.00000000000E+00  0.17780266187E+03  0.17780266187E+03  0.00000000000E+00 0. -1.
         21   -1    0    0  501  502  0.00000000000E+00 -0.00000000000E+00 -0.13672419191E+03  0.13672419191E+03  0.00000000000E+00 0.  1.
        -24    2    1    2    0    0 -0.57022796881E+02  0.28947588415E+02  0.71108666853E+02  0.12599025429E+03  0.82021579088E+02 0.  0.
         23    2    1    2    0    0  0.76804173059E+02 -0.16301267209E+02 -0.71845539095E+02  0.14058083730E+03  0.91850846571E+02 0.  0.
         11    1    3    3    0    0 -0.67936102395E+02  0.27157390504E+02  0.82394363540E+02  0.11018924181E+03  0.00000000000E+00 0. -1.
        -12    1    3    3    0    0  0.10913305513E+02  0.17901979111E+01 -0.11285696687E+02  0.15801012483E+02  0.00000000000E+00 0.  1.
        -13    1    4    4    0    0  0.28298822179E+02 -0.30384663857E+02 -0.79311997150E+02  0.89523427248E+02  0.00000000000E+00 0.  1.
         13    1    4    4    0    0  0.48505350880E+02  0.14083396648E+02  0.74664580549E+01  0.51057410050E+02  0.00000000000E+00 0. -1.
          2    1    1    2  501    0 -0.19781376178E+02 -0.12646321206E+02  0.41815342206E+02  0.47955762192E+02  0.00000000000E+00 0. -1.
<scales pt_clust_5="13000.00000" pt_clust_6="13000.00000" pt_clust_7="13000.00000" pt_clust_8="13000.00000" pt_clust_9="23.47835"></scales>
<clustering>
<clus scale="   23.478">  2  9  1 -1</clus>
<clus scale="   82.022">  5  6 -1 -1</clus>
<clus scale="   91.851">  7  8 -1 -1</clus>
<clus scale="  105.609">  1  5  2 -1</clus>
<clus scale="   23.478">  2  5  1 -1</clus>
</clustering>
</event>
<event>
 9    1  0.3197504E-005  0.2942622E+03  0.7546771E-02  0.1130075E+00
          1   -1    0    0  502    0 -0.00000000000E+00  0.00000000000E+00  0.96426030830E+03  0.96426030830E+03  0.00000000000E+00 0. -1.
         21   -1    0    0  501  502  0.00000000000E+00 -0.00000000000E+00 -0.21201969677E+03  0.21201969677E+03  0.00000000000E+00 0. -1.
        -24    2    1    2    0    0  0.42075330154E+02  0.45837153591E+02  0.24452679304E+03  0.26453237776E+03  0.79452176277E+02 0.  0.
         23    2    1    2    0    0  0.20261679463E+03  0.10413254668E+03  0.56672280568E+03  0.61875068620E+03  0.98896513869E+02 0.  0.
         11    1    3    3    0    0  0.41604251832E+02  0.18418785362E+02  0.22804152461E+03  0.23253623884E+03  0.00000000000E+00 0. -1.
        -12    1    3    3    0    0  0.47107832235E+00  0.27418368229E+02  0.16485268422E+02  0.31996138924E+02  0.00000000000E+00 0.  1.
        -13    1    4    4    0    0  0.97480875718E+01  0.38061848386E+02  0.14660897607E+03  0.15178248047E+03  0.00000000000E+00 0.  1.
         13    1    4    4    0    0  0.19286870705E+03  0.66070698299E+02  0.42011382961E+03  0.46696820573E+03  0.00000000000E+00 0. -1.
          2    1    1    2  501    0 -0.24469212478E+03 -0.14996970028E+03 -0.59008987178E+02  0.29299694111E+03  0.00000000000E+00 0. -1.
<scales pt_clust_5="13000.00000" pt_clust_6="13000.00000" pt_clust_7="13000.00000" pt_clust_8="13000.00000" pt_clust_9="277.14571"></scales>
<clustering>
<clus scale="   79.452">  5  6 -1 -1</clus>
<clus scale="   98.897">  7  8 -1 -1</clus>
<clus scale="  100.916">  1  5  2 -1</clus>
<clus scale="  277.146">  2  9  1 -1</clus>
<clus scale="  277.146">  2  5  1 -1</clus>
</clustering>
</event>
<event>
 9    1  0.3197504E-005  0.1532732E+03  0.7546771E-02  0.1198693E+00
         21   -1    0    0  501  502  0.00000000000E+00  0.00000000000E+00  0.87948528345E+02  0.87948528345E+02  0.00000000000E+00 0.  1.
          1   -1    0    0  502    0 -0.00000000000E+00 -0.00000000000E+00 -0.55054487112E+03  0.55054487112E+03  0.00000000000E+00 0. -1.
        -24    2    1    2    0    0  0.14412141547E+03 -0.74173309689E+02 -0.32300612639E+03  0.37036039568E+03  0.81001251463E+02 0.  0.
         23    2    1    2    0    0 -0.56609799305E+02  0.59129158852E+02 -0.12852275487E+03  0.17865061366E+03  0.93257795598E+02 0.  0.
         13    1    3    3    0    0  0.41763860274E+02 -0.10140824203E+02 -0.27195896439E+02  0.50859346473E+02  0.00000000000E+00 0. -1.
        -14    1    3    3    0    0  0.10235755519E+03 -0.64032485486E+02 -0.29581022995E+03  0.31950104921E+03  0.00000000000E+00 0.  1.
        -11    1    4    4    0    0 -0.58364746684E+02  0.30116265450E+02 -0.23619001832E+02  0.69794629791E+02  0.00000000000E+00 0.  1.
         11    1    4    4    0    0  0.17549473792E+01  0.29012893402E+02 -0.10490375304E+03  0.10885598387E+03  0.00000000000E+00 0. -1.
          2    1    1    2  501    0 -0.87511616161E+02  0.15044150837E+02 -0.11067461522E+02  0.89482390123E+02  0.00000000000E+00 0. -1.
<scales pt_clust_5="13000.00000" pt_clust_6="13000.00000" pt_clust_7="13000.00000" pt_clust_8="13000.00000" pt_clust_9="88.79532"></scales>
<clustering>
<clus scale="   81.001">  5  6 -1 -1</clus>
<clus scale="   88.795">  1  9  2 -1</clus>
<clus scale="   93.258">  7  8 -1 -1</clus>
<clus scale="  146.140">  2  5  1 -1</clus>
<clus scale="   88.795">  1  5  2 -1</clus>
</clustering>
</event>
<event>
 9    1  0.3197504E-005  0.1299574E+03  0.7546771E-02  0.1243665E+00
         -2   -1    0    0    0  501 -0.00000000000E+00  0.00000000000E+00  0.18816619172E+03  0.18816619172E+03  0.00000000000E+00 0.  1.
         21   -1    0    0  501  502  0.00000000000E+00 -0.00000000000E+00 -0.13886060864E+03  0.13886060864E+03  0.00000000000E+00 0.  1.
        -24    2    1    2    0    0 -0.29362805203E+02  0.47798212473E+02  0.11601480574E+02  0.94116050419E+02  0.74675251255E+02 0.  0.
         23    2    1    2    0    0 -0.29873726319E+02  0.45848217925E+02  0.54848514328E+02  0.12078336056E+03  0.92659387290E+02 0.  0.
         11    1    3    3    0    0 -0.48509738334E+02  0.25253671909E+02 -0.12338009611E+02  0.56063973631E+02  0.00000000000E+00 0. -1.
        -12    1    3    3    0    0  0.19146933132E+02  0.22544540564E+02  0.23939490185E+02  0.38052076788E+02  0.00000000000E+00 0.  1.
        -11    1    4    4    0    0 -0.20826015215E+01  0.30019095458E+02  0.76470128730E+02  0.82177636309E+02  0.00000000000E+00 0. -1.
         11    1    4    4    0    0 -0.27791124798E+02  0.15829122466E+02 -0.21621614402E+02  0.38605724251E+02  0.00000000000E+00 0.  1.
         -1    1    1    2    0  502  0.59236531522E+02 -0.93646430397E+02 -0.17144411828E+02  0.11212738938E+03  0.00000000000E+00 0.  1.
<scales pt_clust_5="13000.00000" pt_clust_6="13000.00000" pt_clust_7="13000.00000" pt_clust_8="13000.00000" pt_clust_9="91.12164"></scales>
<clustering>
<clus scale="   74.675">  5  6 -1 -1</clus>
<clus scale="   92.659">  7  8 -1 -1</clus>
<clus scale="   93.398">  1  5  2 -1</clus>
<clus scale="   91.122">  2  9  1 -1</clus>
<clus scale="   91.122">  2  5  1 -1</clus>
</clustering>
</event>
<event>
 9    1  0.3197504E-005  0.1116937E+03  0.7546771E-02  0.1263294E+00
         -2   -1    0    0    0  501 -0.00000000000E+00  0.00000000000E+00  0.23240724122E+03  0.23240724122E+03  0.00000000000E+00 0.  1.
         21   -1    0    0  501  502  0.00000000000E+00 -0.00000000000E+00 -0.25912209224E+03  0.25912209224E+03  0.00000000000E+00 0.  1.
         23    2    1    2    0    0  0.81119061288E+01  0.65115454212E+02  0.19681738271E+03  0.22774250678E+03  0.93934774482E+02 0.  0.
        -24    2    1    2    0    0  0.64150600790E+01 -0.26947373424E+02 -0.85270004113E+02  0.11961928776E+03  0.79186403334E+02 0.  0.
         13    1    4    4    0    0  0.42297981267E+02 -0.14705393433E+02 -0.36043679157E+02  0.57484907780E+02  0.00000000000E+00 0. -1.
        -14    1    4    4    0    0 -0.35882921188E+02 -0.12241979991E+02 -0.49226324956E+02  0.62134379982E+02  0.00000000000E+00 0.  1.
        -11    1    3    3    0    0  0.43064872265E+02  0.31629713362E+02  0.50099287062E+02  0.73245891043E+02  0.00000000000E+00 0. -1.
         11    1    3    3    0    0 -0.34952966136E+02  0.33485740850E+02  0.14671809565E+03  0.15449661573E+03  0.00000000000E+00 0.  1.
         -1    1    1    2    0  502 -0.14526966208E+02 -0.38168080788E+02 -0.13826222962E+03  0.14416753892E+03  0.00000000000E+00 0.  1.
<scales pt_clust_5="13000.00000" pt_clust_6="13000.00000" pt_clust_7="13000.00000" pt_clust_8="13000.00000" pt_clust_9="40.83914"></scales>
<clustering>
<clus scale="   40.839">  2  9  1 -1</clus>
<clus scale="   79.186">  5  6 -1 -1</clus>
<clus scale="   93.935">  7  8 -1 -1</clus>
<clus scale="   99.610">  2  5  1 -1</clus>
<clus scale="   40.839">  2  5  1 -1</clus>
</clustering>
</event>
<event>
 9    1  0.3197504E-005  0.9800359E+02  0.7546771E-02  0.1292004E+00
         -2   -1    0    0    0  501 -0.00000000000E+00  0.00000000000E+00  0.44277983820E+03  0.44277983820E+03  0.00000000000E+00 0.  1.
         21   -1    0    0  501  502  0.00000000000E+00 -0.00000000000E+00 -0.80687362946E+02  0.80687362946E+02  0.00000000000E+00 0.  1.
        -24    2    1    2    0    0  0.95517203463E+01 -0.38577756630E+02  0.36571227113E+03  0.37588907556E+03  0.77250587070E+02 0.  0.
         23    2    1    2    0    0 -0.13354236126E+01  0.12637957699E+02  0.36560698921E+02  0.99051299376E+02  0.91175511358E+02 0.  0.
         13    1    3    3    0    0  0.39150831901E+02 -0.36642969166E+02  0.28259208988E+03  0.28763481029E+03  0.00000000000E+00 0. -1.
        -14    1    3    3    0    0 -0.29599111555E+02 -0.19347874643E+01  0.83120181242E+02  0.88254265263E+02  0.00000000000E+00 0.  1.
        -13    1    4    4    0    0 -0.42438705589E+02 -0.10377820314E+02  0.94524918372E+01  0.44700027835E+02  0.00000000000E+00 0.  1.
         13    1    4    4    0    0  0.41103281976E+02  0.23015778013E+02  0.27108207084E+02  0.54351271540E+02  0.00000000000E+00 0. -1.
         -1    1    1    2    0  502 -0.82162967337E+01  0.25939798931E+02 -0.40180494793E+02  0.48526826214E+02  0.00000000000E+00 0.  1.
<scales pt_clust_5="13000.00000" pt_clust_6="13000.00000" pt_clust_7="13000.00000" pt_clust_8="13000.00000" pt_clust_9="27.20994"></scales>
<clustering>
<clus scale="   27.210">  2  9  1 -1</clus>
<clus scale="   77.251">  5  6 -1 -1</clus>
<clus scale="   85.202">  1  5  2 -1</clus>
<clus scale="   91.176">  7  8 -1 -1</clus>
<clus scale="   27.210">  2  5  1 -1</clus>
</clustering>
</event>
<event>
 9    1  0.3197504E-005  0.1092805E+03  0.7546771E-02  0.1266840E+00
          1   -1    0    0  502    0 -0.00000000000E+00  0.00000000000E+00  0.47927609211E+03  0.47927609211E+03  0.00000000000E+00 0. -1.
         21   -1    0    0  501  502  0.00000000000E+00 -0.00000000000E+00 -0.58481412387E+02  0.58481412387E+02  0.00000000000E+00 0.  1.
        -24    2    1    2    0    0  0.43477115174E+02  0.55625009556E+02  0.35806844501E+03  0.37353936264E+03  0.79587956980E+02 0.  0.
         23    2    1    2    0    0 -0.67737841968E+01 -0.95482952092E+01  0.33059869181E+02  0.98261403354E+02  0.91789402139E+02 0.  0.
         13    1    3    3    0    0  0.38808193954E+02  0.56684526183E+02  0.36129369489E+03  0.36776669968E+03  0.00000000000E+00 0. -1.
        -14    1    3    3    0    0  0.46689212202E+01 -0.10595166268E+01 -0.32252498795E+01  0.57726629582E+01  0.00000000000E+00 0.  1.
        -13    1    4    4    0    0 -0.66278790705E-01  0.32493582621E+02  0.43624985476E+02  0.54396476560E+02  0.00000000000E+00 0. -1.
         13    1    4    4    0    0 -0.67075054061E+01 -0.42041877830E+02 -0.10565116294E+02  0.43864926793E+02  0.00000000000E+00 0.  1.
          2    1    1    2  501    0 -0.36703330977E+02 -0.46076714347E+02  0.29666365525E+02  0.65956738498E+02  0.00000000000E+00 0. -1.
<scales pt_clust_5="13000.00000" pt_clust_6="13000.00000" pt_clust_7="13000.00000" pt_clust_8="13000.00000" pt_clust_9="58.90839"></scales>
<clustering>
<clus scale="   58.908">  2  9  1 -1</clus>
<clus scale="   79.588">  5  6 -1 -1</clus>
<clus scale="   91.789">  7  8 -1 -1</clus>
<clus scale="   99.253">  1  5  2 -1</clus>
<clus scale="   58.908">  2  5  1 -1</clus>
</clustering>
</event>
<event>
 9    1  0.3197504E-005  0.9498077E+02  0.7546771E-02  0.1295170E+00
         -2   -1    0    0    0  501 -0.00000000000E+00  0.00000000000E+00  0.11797614806E+03  0.11797614806E+03  0.00000000000E+00 0.  1.
         21   -1    0    0  501  502  0.00000000000E+00 -0.00000000000E+00 -0.14512929297E+03  0.14512929297E+03  0.00000000000E+00 0.  1.
         23    2    1    2    0    0 -0.22045597186E+02 -0.21372348383E+01 -0.11392527867E+02  0.93022439030E+02  0.89625935665E+02 0.  0.
        -24    2    1    2    0    0  0.23996306998E+02 -0.54945060762E+02 -0.37992063877E+02  0.10879327229E+03  0.82448752118E+02 0.  0.
         13    1    4    4    0    0  0.34528837107E+02  0.98208697655E+01 -0.87135728266E+01  0.36940715022E+02  0.00000000000E+00 0. -1.
        -14    1    4    4    0    0 -0.10532530108E+02 -0.64765930528E+02 -0.29278491051E+02  0.71852557267E+02  0.00000000000E+00 0.  1.
        -13    1    3    3    0    0  0.18327489441E+02 -0.19076306909E+02 -0.34532845097E+02  0.43500801659E+02  0.00000000000E+00 0.  1.
         13    1    3    3    0    0 -0.40373086626E+02  0.16939072071E+02  0.23140317231E+02  0.49521637371E+02  0.00000000000E+00 0. -1.
         -1    1    1    2    0  502 -0.19507098129E+01  0.57082295601E+02  0.22231446838E+02  0.61289729713E+02  0.00000000000E+00 0.  1.
<scales pt_clust_5="13000.00000" pt_clust_6="13000.00000" pt_clust_7="13000.00000" pt_clust_8="13000.00000" pt_clust_9="57.11565"></scales>
<clustering>
<clus scale="   57.116">  2  9  1 -1</clus>
<clus scale="   82.449">  5  6 -1 -1</clus>
<clus scale="   88.240">  2  5  1 -1</clus>
<clus scale="   89.626">  7  8 -1 -1</clus>
<clus scale="   57.116">  2  5  1 -1</clus>
</clustering>
</event>
<event>
 9    1  0.3197504E-005  0.1133001E+03  0.7546771E-02  0.1257952E+00
          1   -1    0    0  502    0 -0.00000000000E+00  0.00000000000E+00  0.40371949622E+03  0.40371949622E+03  0.00000000000E+00 0. -1.
         21   -1    0    0  501  502  0.00000000000E+00 -0.00000000000E+00 -0.10377199763E+03  0.10377199763E+03  0.00000000000E+00 0.  1.
        -24    2    1    2    0    0 -0.42169605699E+02 -0.53544122963E+02  0.32568738899E+03  0.34261391393E+03  0.81650290390E+02 0.  0.
         23    2    1    2    0    0  0.68406264397E+02  0.25424661142E+02  0.33580224126E+01  0.11665149857E+03  0.90942099172E+02 0.  0.
         13    1    3    3    0    0 -0.63077685059E+02 -0.26933958496E+02  0.17047691479E+03  0.18375693442E+03  0.00000000000E+00 0. -1.
        -14    1    3    3    0    0  0.20908079360E+02 -0.26610164468E+02  0.15521047420E+03  0.15885697950E+03  0.00000000000E+00 0.  1.
        -11    1    4    4    0    0  0.82992689243E+02  0.10127802573E+02 -0.19151468442E+02  0.85773758202E+02  0.00000000000E+00 0.  1.
         11    1    4    4    0    0 -0.14586424846E+02  0.15296858569E+02  0.22509490854E+02  0.30877740370E+02  0.00000000000E+00 0. -1.
          2    1    1    2  501    0 -0.26236658698E+02  0.28119461821E+02 -0.29097912811E+02  0.48226081353E+02  0.00000000000E+00 0. -1.
<scales pt_clust_5="13000.00000" pt_clust_6="13000.00000" pt_clust_7="13000.00000" pt_clust_8="13000.00000" pt_clust_9="38.45863"></scales>
<clustering>
<clus scale="   38.459">  2  9  1 -1</clus>
<clus scale="   81.650">  5  6 -1 -1</clus>
<clus scale="   90.942">  7  8 -1 -1</clus>
<clus scale="  105.987">  1  5  2 -1</clus>
<clus scale="   38.459">  2  5  1 -1</clus>
</clustering>
</event>
<event>
 9    1  0.3197504E-005  0.1963108E+03  0.7546771E-02  0.1188673E+00
         -2   -1    0    0    0  501 -0.00000000000E+00  0.00000000000E+00  0.39280913527E+03  0.39280913527E+03  0.00000000000E+00 0.  1.
         21   -1    0    0  501  502  0.00000000000E+00 -0.00000000000E+00 -0.21797512306E+03  0.21797512306E+03  0.00000000000E+00 0.  1.
        -24    2    1    2    0    0  0.22521283613E+02 -0.27800721130E+02  0.65124405608E+02  0.10841177738E+03  0.78941984766E+02 0.  0.
         23    2    1    2    0    0  0.13327718313E+03 -0.61261090264E+02  0.22921271058E+03  0.28676598673E+03  0.90446314071E+02 0.  0.
         13    1    3    3    0    0  0.64794734267E+01  0.19589645041E+02 -0.59677974402E+01  0.21479114856E+02  0.00000000000E+00 0. -1.
        -14    1    3    3    0    0  0.16041810187E+02 -0.47390366171E+02  0.71092203048E+02  0.86932662527E+02  0.00000000000E+00 0.  1.
        -11    1    4    4    0    0  0.46581539435E+02  0.17752610965E+02  0.10319150149E+03  0.11460140048E+03  0.00000000000E+00 0. -1.
         11    1    4    4    0    0  0.86695643699E+02 -0.79013701228E+02  0.12602120909E+03  0.17216458625E+03  0.00000000000E+00 0.  1.
         -1    1    1    2    0  502 -0.15579846675E+03  0.89061811393E+02 -0.11950310398E+03  0.21560649422E+03  0.00000000000E+00 0.  1.
<scales pt_clust_5="13000.00000" pt_clust_6="13000.00000" pt_clust_7="13000.00000" pt_clust_8="13000.00000" pt_clust_9="174.23370"></scales>
<clustering>
<clus scale="   78.942">  5  6 -1 -1</clus>
<clus scale="   86.671">  1  5  2 -1</clus>
<clus scale="   90.446">  7  8 -1 -1</clus>
<clus scale="  174.234">  2  9  1 -1</clus>
<clus scale="  174.234">  2  5  1 -1</clus>
</clustering>
</event>
<event>
 9    1  0.5067256E-005  0.1988662E+03  0.7546771E-02  0.1168909E+00
         21   -1    0    0  501  502  0.00000000000E+00  0.00000000000E+00  0.35980345934E+03  0.35980345934E+03  0.00000000000E+00 0. -1.
          1   -1    0    0  502    0 -0.00000000000E+00 -0.00000000000E+00 -0.52176756973E+03  0.52176756973E+03  0.00000000000E+00 0. -1.
        -24    2    1    2    0    0 -0.51627867520E+02  0.87107667709E+02  0.76127940786E+02  0.15076571200E+03  0.81741385278E+02 0.  0.
         23    2    1    2    0    0 -0.12663079913E+03 -0.68730940166E+02 -0.43300151775E+03  0.46603455489E+03  0.94544119603E+02 0.  0.
         13    1    3    3    0    0 -0.73191078045E+02  0.76171453022E+02  0.57713673629E+02  0.12037396847E+03  0.00000000000E+00 0. -1.
        -14    1    3    3    0    0  0.21563210525E+02  0.10936214687E+02  0.18414267157E+02  0.30391743529E+02  0.00000000000E+00 0.  1.
        -11    1    4    4    0    0 -0.18312584298E+02 -0.35907739344E+02 -0.38954787410E+02  0.56055258011E+02  0.00000000000E+00 0.  1.
         11    1    4    4    0    0 -0.10831821484E+03 -0.32823200821E+02 -0.39404673034E+03  0.40997929688E+03  0.00000000000E+00 0. -1.
          2    1    1    2  501    0  0.17825866665E+03 -0.18376727543E+02  0.19490946656E+03  0.26477076219E+03  0.00000000000E+00 0. -1.
<scales pt_clust_5="13000.00000" pt_clust_6="13000.00000" pt_clust_7="13000.00000" pt_clust_8="13000.00000" pt_clust_9="174.95474"></scales>
<clustering>
<clus scale="   81.741">  5  6 -1 -1</clus>
<clus scale="   94.544">  7  8 -1 -1</clus>
<clus scale="  130.134">  2  5  1 -1</clus>
<clus scale="  174.955">  1  9  2 -1</clus>
<clus scale="  174.955">  1  5  2 -1</clus>
</clustering>
</event>
<event>
 9    1  0.3197504E-005  0.3610226E+03  0.7546771E-02  0.1058180E+00
         -2   -1    0    0    0  501 -0.00000000000E+00  0.00000000000E+00  0.88160610655E+02  0.88160610655E+02  0.00000000000E+00 0.  1.
         21   -1    0    0  501  502  0.00000000000E+00 -0.00000000000E+00 -0.11059378858E+04  0.11059378858E+04  0.00000000000E+00 0.  1.
        -24    2    1    2    0    0 -0.16549893072E+03 -0.37716018825E+02 -0.30804917394E+03  0.36124178972E+03  0.82395041893E+02 0.  0.
         23    2    1    2    0    0 -0.92078940772E+02  0.92432686036E+02 -0.26740935026E+03  0.31808865121E+03  0.11247353753E+03 0.  0.
         13    1    3    3    0    0 -0.77007392967E+02  0.33134507471E+01 -0.70543643439E+02  0.10448695209E+03  0.00000000000E+00 0. -1.
        -14    1    3    3    0    0 -0.88491537755E+02 -0.41029469572E+02 -0.23750553050E+03  0.25675483763E+03  0.00000000000E+00 0.  1.
        -13    1    4    4    0    0 -0.12717262689E+02 -0.20141466961E+02 -0.92170774434E+02  0.95199050003E+02  0.00000000000E+00 0. -1.
         13    1    4    4    0    0 -0.79361678083E+02  0.11257415300E+03 -0.17523857582E+03  0.22288960121E+03  0.00000000000E+00 0.  1.
         -1    1    1    2    0  502  0.25757787149E+03 -0.54716667211E+02 -0.44231875099E+03  0.51476805557E+03  0.00000000000E+00 0.  1.
<scales pt_clust_5="13000.00000" pt_clust_6="13000.00000" pt_clust_7="13000.00000" pt_clust_8="13000.00000" pt_clust_9="263.32541"></scales>
<clustering>
<clus scale="   82.395">  5  6 -1 -1</clus>
<clus scale="  112.474">  7  8 -1 -1</clus>
<clus scale="  169.355">  5  7 -1 -1</clus>
<clus scale="  263.325">  2  9  1 -1</clus>
<clus scale="  263.325">  2  5  1 -1</clus>
</clustering>
</event>
<event>
 9    1  0.3197504E-005  0.9356844E+02  0.7546771E-02  0.1300901E+00
         -4   -1    0    0    0  501 -0.00000000000E+00  0.00000000000E+00  0.61402662147E+03  0.61402662147E+03  0.00000000000E+00 0.  1.
         21   -1    0    0  501  502  0.00000000000E+00 -0.00000000000E+00 -0.27704123575E+02  0.27704123575E+02  0.00000000000E+00 0.  1.
        -24    2    1    2    0    0 -0.23587002889E+02 -0.11407177536E+02  0.32880457073E+03  0.33959425264E+03  0.80779578409E+02 0.  0.
         23    2    1    2    0    0 -0.25494422698E+02  0.30233398423E+02  0.20416878717E+03  0.22723960550E+03  0.91591051326E+02 0.  0.
         13    1    3    3    0    0 -0.50229447644E+02 -0.21476031226E+02  0.24713992595E+03  0.25310543322E+03  0.00000000000E+00 0. -1.
        -14    1    3    3    0    0  0.26642444755E+02  0.10068853690E+02  0.81664644781E+02  0.86488819418E+02  0.00000000000E+00 0.  1.
        -11    1    4    4    0    0  0.26607507892E+02  0.26497835832E+02  0.13755007903E+03  0.14258372636E+03  0.00000000000E+00 0. -1.
         11    1    4    4    0    0 -0.52101930591E+02  0.37355625908E+01  0.66618708142E+02  0.84655879144E+02  0.00000000000E+00 0.  1.
         -3    1    1    2    0  502  0.49081425587E+02 -0.18826220887E+02  0.53349139993E+02  0.74896886909E+02  0.00000000000E+00 0.  1.
<scales pt_clust_5="13000.00000" pt_clust_6="13000.00000" pt_clust_7="13000.00000" pt_clust_8="13000.00000" pt_clust_9="52.56817"></scales>
<clustering>
<clus scale="   52.568">  2  9  1 -1</clus>
<clus scale="   80.780">  5  6 -1 -1</clus>
<clus scale="   83.015">  1  5  2 -1</clus>
<clus scale="   91.591">  7  8 -1 -1</clus>
<clus scale="   52.568">  2  5  1 -1</clus>
</clustering>
</event>
<event>
 9    1  0.3197504E-005  0.9493513E+02  0.7546771E-02  0.1298149E+00
         21   -1    0    0  501  502  0.00000000000E+00  0.00000000000E+00  0.59350507949E+02  0.59350507949E+02  0.00000000000E+00 0. -1.
          1   -1    0    0  502    0 -0.00000000000E+00 -0.00000000000E+00 -0.50891653347E+03  0.50891653347E+03  0.00000000000E+00 0. -1.
        -24    2    1    2    0    0 -0.14481879481E+02  0.12797466603E+02 -0.33639140921E+03  0.34652817245E+03  0.80926473572E+02 0.  0.
         23    2    1    2    0    0  0.24755451487E+01 -0.31866038492E+02 -0.14966077741E+03  0.17885527713E+03  0.92570454945E+02 0.  0.
         13    1    3    3    0    0 -0.30565525706E+02  0.37372211442E+02 -0.14326636421E+03  0.15118262025E+03  0.00000000000E+00 0. -1.
        -14    1    3    3    0    0  0.16083646225E+02 -0.24574744838E+02 -0.19312504500E+03  0.19534555220E+03  0.00000000000E+00 0.  1.
        -13    1    4    4    0    0 -0.15310134282E+02 -0.43361499762E+02 -0.15079197521E+03  0.15764783430E+03  0.00000000000E+00 0. -1.
         13    1    4    4    0    0  0.17785679430E+02  0.11495461270E+02  0.11311978015E+01  0.21207442823E+02  0.00000000000E+00 0.  1.
          2    1    1    2  501    0  0.12006334332E+02  0.19068571888E+02  0.36486161097E+02  0.42883591845E+02  0.00000000000E+00 0. -1.
<scales pt_clust_5="13000.00000" pt_clust_6="13000.00000" pt_clust_7="13000.00000" pt_clust_8="13000.00000" pt_clust_9="22.53359"></scales>
<clustering>
<clus scale="   22.534">  1  9  2 -1</clus>
<clus scale="   80.926">  5  6 -1 -1</clus>
<clus scale="   83.621">  2  5  1 -1</clus>
<clus scale="   92.570">  7  8 -1 -1</clus>
<clus scale="   22.534">  1  5  2 -1</clus>
</clustering>
</event>
<event>
 9    1  0.3197504E-005  0.2433141E+03  0.7546771E-02  0.1135476E+00
          1   -1    0    0  502    0 -0.00000000000E+00  0.00000000000E+00  0.13691885613E+04  0.13691885613E+04  0.00000000000E+00 0. -1.
         21   -1    0    0  501  502  0.00000000000E+00 -0.00000000000E+00 -0.10415766582E+03  0.10415766582E+03  0.00000000000E+00 0. -1.
         23    2    1    2    0    0 -0.17335071258E+02  0.12541544947E+03  0.18315928694E+03  0.24087320684E+03  0.91886003965E+02 0.  0.
        -24    2    1    2    0    0 -0.20920766558E+03 -0.58669504934E+02  0.91183980176E+03  0.94146194137E+03  0.87685830288E+02 0.  0.
         11    1    4    4    0    0 -0.20188460807E+03 -0.75054485168E+02  0.86158393179E+03  0.88809765355E+03  0.00000000000E+00 0. -1.
        -12    1    4    4    0    0 -0.73230575096E+01  0.16384980234E+02  0.50255869964E+02  0.53364287819E+02  0.00000000000E+00 0.  1.
        -13    1    3    3    0    0 -0.30031422182E+01  0.33768655402E+02 -0.18073179534E+01  0.33950071414E+02  0.00000000000E+00 0. -1.
         13    1    3    3    0    0 -0.14331929040E+02  0.91646794063E+02  0.18496660489E+03  0.20692313543E+03  0.00000000000E+00 0.  1.
          2    1    1    2  501    0  0.22654273684E+03 -0.66745944531E+02  0.17003180681E+03  0.29101107892E+03  0.00000000000E+00 0. -1.
<scales pt_clust_5="13000.00000" pt_clust_6="13000.00000" pt_clust_7="13000.00000" pt_clust_8="13000.00000" pt_clust_9="226.96460"></scales>
<clustering>
<clus scale="   87.686">  5  6 -1 -1</clus>
<clus scale="   91.886">  7  8 -1 -1</clus>
<clus scale="  156.437">  1  7  2 -1</clus>
<clus scale="  226.965">  2  9  1 -1</clus>
<clus scale="  226.965">  2  5  1 -1</clus>
</clustering>
</event>
<event>
 9    1  0.3197504E-005  0.1485803E+03  0.7546771E-02  0.1204053E+00
          3   -1    0    0  502    0 -0.00000000000E+00  0.00000000000E+00  0.66447798884E+02  0.66447798884E+02  0.00000000000E+00 0. -1.
         21   -1    0    0  501  502  0.00000000000E+00 -0.00000000000E+00 -0.77096219634E+03  0.77096219634E+03  0.00000000000E+00 0. -1.
         23    2    1    2    0    0 -0.73810886806E+02 -0.11480597246E+03 -0.17205706258E+03  0.23744938492E+03  0.90278011127E+02 0.  0.
        -24    2    1    2    0    0  0.12491703099E+03  0.10666062514E+02 -0.21165586898E+03  0.25882934621E+03  0.80476046520E+02 0.  0.
         13    1    4    4    0    0  0.13051932087E+03 -0.67218994104E+01 -0.18438097165E+03  0.22600181362E+03  0.00000000000E+00 0. -1.
        -14    1    4    4    0    0 -0.56022898747E+01  0.17387961924E+02 -0.27274897327E+02  0.32827532590E+02  0.00000000000E+00 0.  1.
        -13    1    3    3    0    0  0.67496068198E+01 -0.60406310881E+02 -0.97697377887E+02  0.11506197127E+03  0.00000000000E+00 0.  1.
         13    1    3    3    0    0 -0.80560493625E+02 -0.54399661583E+02 -0.74359684693E+02  0.12238741365E+03  0.00000000000E+00 0. -1.
          4    1    1    2  501    0 -0.51106144188E+02  0.10413990995E+03 -0.32080146590E+03  0.34113126409E+03  0.00000000000E+00 0. -1.
<scales pt_clust_5="13000.00000" pt_clust_6="13000.00000" pt_clust_7="13000.00000" pt_clust_8="13000.00000" pt_clust_9="116.00413"></scales>
<clustering>
<clus scale="   80.476">  5  6 -1 -1</clus>
<clus scale="   90.278">  7  8 -1 -1</clus>
<clus scale="  116.004">  2  9  1 -1</clus>
<clus scale="  142.837">  2  5  1 -1</clus>
<clus scale="  116.004">  2  5  1 -1</clus>
</clustering>
</event>
<event>
 9    1  0.3197504E-005  0.1239856E+03  0.7546771E-02  0.1237885E+00
          1   -1    0    0  502    0 -0.00000000000E+00  0.00000000000E+00  0.60915686324E+03  0.60915686324E+03  0.00000000000E+00 0. -1.
         21   -1    0    0  501  502  0.00000000000E+00 -0.00000000000E+00 -0.76223477717E+02  0.76223477717E+02  0.00000000000E+00 0. -1.
         23    2    1    2    0    0 -0.87758689577E+02  0.44092155372E+02  0.25486169313E+03  0.28832339371E+03  0.92359032986E+02 0.  0.
        -24    2    1    2    0    0 -0.27418140599E+02 -0.94039717909E+02  0.50730301279E+02  0.13735602440E+03  0.81840643895E+02 0.  0.
         11    1    4    4    0    0 -0.29052616127E+02 -0.93715210800E+02  0.68402400910E+02  0.11960553369E+03  0.00000000000E+00 0. -1.
        -12    1    4    4    0    0  0.16344755280E+01 -0.32450710922E+00 -0.17672099631E+02  0.17750490711E+02  0.00000000000E+00 0.  1.
        -11    1    3    3    0    0 -0.27917347250E+02 -0.14419562671E+02  0.16075460932E+02  0.35294794365E+02  0.00000000000E+00 0.  1.
         11    1    3    3    0    0 -0.59841342327E+02  0.58511718043E+02  0.23878623219E+03  0.25302859934E+03  0.00000000000E+00 0. -1.
          2    1    1    2  501    0  0.11517683018E+03  0.49947562537E+02  0.22734139111E+03  0.25970092284E+03  0.00000000000E+00 0. -1.
<scales pt_clust_5="13000.00000" pt_clust_6="13000.00000" pt_clust_7="13000.00000" pt_clust_8="13000.00000" pt_clust_9="125.54074"></scales>
<clustering>
<clus scale="   81.841">  5  6 -1 -1</clus>
<clus scale="   92.359">  7  8 -1 -1</clus>
<clus scale="  125.541">  2  9  1 -1</clus>
<clus scale="  125.541">  2  5  1 -1</clus>
<clus scale="  123.986">  2  5  1 -1</clus>
</clustering>
</event>
<event>
 9    1  0.3197504E-005  0.1339001E+03  0.7546771E-02  0.1223883E+00
          3   -1    0    0  502    0 -0.00000000000E+00  0.00000000000E+00  0.78526730662E+02  0.78526730662E+02  0.00000000000E+00 0. -1.
         21   -1    0    0  501  502  0.00000000000E+00 -0.00000000000E+00 -0.35607530367E+03  0.35607530367E+03  0.00000000000E+00 0. -1.
        -24    2    1    2    0    0  0.35758327162E+01 -0.11275203809E+03 -0.13091665680E+03  0.19076693253E+03  0.80790116007E+02 0.  0.
         23    2    1    2    0    0  0.24238196917E+02  0.83618520736E+02 -0.15851005190E+03  0.20184138577E+03  0.89637945415E+02 0.  0.
         11    1    3    3    0    0 -0.12029722684E+02 -0.96096815446E+02 -0.13640820433E+03  0.16729169249E+03  0.00000000000E+00 0. -1.
        -12    1    3    3    0    0  0.15605555400E+02 -0.16655222648E+02  0.54915475278E+01  0.23475240042E+02  0.00000000000E+00 0.  1.
        -11    1    4    4    0    0  0.33937952847E+02  0.27509962166E+01 -0.15825320355E+02  0.37547215449E+02  0.00000000000E+00 0.  1.
         11    1    4    4    0    0 -0.96997559298E+01  0.80867524519E+02 -0.14268473154E+03  0.16429417032E+03  0.00000000000E+00 0. -1.
          4    1    1    2  501    0 -0.27814029633E+02  0.29133517358E+02  0.11878135695E+02  0.41993716026E+02  0.00000000000E+00 0. -1.
<scales pt_clust_5="13000.00000" pt_clust_6="13000.00000" pt_clust_7="13000.00000" pt_clust_8="13000.00000" pt_clust_9="40.27882"></scales>
<clustering>
<clus scale="   40.279">  2  9  1 -1</clus>
<clus scale="   80.790">  5  6 -1 -1</clus>
<clus scale="   89.638">  7  8 -1 -1</clus>
<clus scale="  128.146">  1  5  2 -1</clus>
<clus scale="   40.279">  2  5  1 -1</clus>
</clustering>
</event>
<event>
 9    1  0.3197504E-005  0.1269816E+03  0.7546771E-02  0.1232122E+00
         21   -1    0    0  501  502  0.00000000000E+00  0.00000000000E+00  0.42732603377E+03  0.42732603377E+03  0.00000000000E+00 0. -1.
          1   -1    0    0  502    0 -0.00000000000E+00 -0.00000000000E+00 -0.88670882019E+02  0.88670882019E+02  0.00000000000E+00 0. -1.
        -24    2    1    2    0    0 -0.18294746969E+02  0.52943811430E+02  0.10440939581E+03  0.15022550094E+03  0.92350605101E+02 0.  0.
         23    2    1    2    0    0  0.74705124992E+02 -0.12609186455E+03  0.20634747661E+03  0.26927746472E+03  0.91929635582E+02 0.  0.
         11    1    3    3    0    0 -0.55677272258E+02  0.38363730329E+02  0.70602086198E+02  0.97756785066E+02  0.00000000000E+00 0. -1.
        -12    1    3    3    0    0  0.37382525289E+02  0.14580081101E+02  0.33807309614E+02  0.52468715872E+02  0.00000000000E+00 0.  1.
        -11    1    4    4    0    0  0.40585610681E+02 -0.12712178511E+03  0.13314094266E+03  0.18850371523E+03  0.00000000000E+00 0. -1.
         11    1    4    4    0    0  0.34119514311E+02  0.10299205664E+01  0.73206533949E+02  0.80773749486E+02  0.00000000000E+00 0.  1.
          2    1    1    2  501    0 -0.56410378023E+02  0.73148053115E+02  0.27898279335E+02  0.96493950137E+02  0.00000000000E+00 0. -1.
<scales pt_clust_5="13000.00000" pt_clust_6="13000.00000" pt_clust_7="13000.00000" pt_clust_8="13000.00000" pt_clust_9="92.37303"></scales>
<clustering>
<clus scale="   91.930">  7  8 -1 -1</clus>
<clus scale="   92.351">  5  6 -1 -1</clus>
<clus scale="   92.373">  1  9  2 -1</clus>
<clus scale="  126.676">  1  7  2 -1</clus>
<clus scale="   92.373">  1  5  2 -1</clus>
</clustering>
</event>
<event>
 9    1  0.3197504E-005  0.1484600E+03  0.7546771E-02  0.1203911E+00
         21   -1    0    0  501  502  0.00000000000E+00  0.00000000000E+00  0.20949134589E+03  0.20949134589E+03  0.00000000000E+00 0. -1.
         -4   -1    0    0    0  501 -0.00000000000E+00 -0.00000000000E+00 -0.13388206579E+03  0.13388206579E+03  0.00000000000E+00 0.  1.
        -24    2    1    2    0    0  0.12231356266E+03 -0.17966240335E+02 -0.81189097267E+01  0.14914949794E+03  0.83043739300E+02 0.  0.
         23    2    1    2    0    0 -0.10465940491E+03  0.30546716168E+02  0.43657690462E+02  0.14866535167E+03  0.91152070444E+02 0.  0.
         11    1    3    3    0    0  0.77052819085E+02  0.30022935388E+02 -0.77833480634E-01  0.82695342289E+02  0.00000000000E+00 0. -1.
        -12    1    3    3    0    0  0.45260743579E+02 -0.47989175723E+02 -0.80410762460E+01  0.66454155649E+02  0.00000000000E+00 0.  1.
        -13    1    4    4    0    0 -0.76518157103E+02 -0.17234752869E+02  0.49744862831E+02  0.92879580377E+02  0.00000000000E+00 0. -1.
         13    1    4    4    0    0 -0.28141247809E+02  0.47781469037E+02 -0.60871723691E+01  0.55785771296E+02  0.00000000000E+00 0.  1.
         -3    1    1    2    0  502 -0.17654157752E+02 -0.12580475833E+02  0.40070499370E+02  0.45558562069E+02  0.00000000000E+00 0.  1.
<scales pt_clust_5="13000.00000" pt_clust_6="13000.00000" pt_clust_7="13000.00000" pt_clust_8="13000.00000" pt_clust_9="21.67805"></scales>
<clustering>
<clus scale="   21.678">  1  9  2 -1</clus>
<clus scale="   83.044">  5  6 -1 -1</clus>
<clus scale="   91.152">  7  8 -1 -1</clus>
<clus scale="  143.624">  2  5  1 -1</clus>
<clus scale="   21.678">  1  5  2 -1</clus>
</clustering>
</event>
<event>
 9    1  0.3197504E-005  0.9638833E+02  0.7546771E-02  0.1294164E+00
         21   -1    0    0  501  502  0.00000000000E+00  0.00000000000E+00  0.26876298924E+03  0.26876298924E+03  0.00000000000E+00 0.  1.
         -4   -1    0    0    0  501 -0.00000000000E+00 -0.00000000000E+00 -0.11292258117E+03  0.11292258117E+03  0.00000000000E+00 0.  1.
        -24    2    1    2    0    0  0.16405390913E+02  0.11242902279E+02 -0.29351727704E+02  0.88821096296E+02  0.81437850692E+02 0.  0.
         23    2    1    2    0    0 -0.16628263831E+02 -0.40679204305E+02 -0.30939298595E+01  0.10229115999E+03  0.92317994933E+02 0.  0.
         11    1    3    3    0    0 -0.25714778990E+02  0.29638994335E+01  0.12609375106E+02  0.28792896674E+02  0.00000000000E+00 0. -1.
        -12    1    3    3    0    0  0.42120169903E+02  0.82790028453E+01 -0.41961102810E+02  0.60028199621E+02  0.00000000000E+00 0.  1.
        -11    1    4    4    0    0  0.29365003483E+02  0.97879951082E+00  0.20582303109E+02  0.35873286430E+02  0.00000000000E+00 0.  1.
         11    1    4    4    0    0 -0.45993267314E+02 -0.41658003815E+02 -0.23676232968E+02  0.66417873556E+02  0.00000000000E+00 0. -1.
         -3    1    1    2    0  502  0.22287291797E+00  0.29436302026E+02  0.18828606563E+03  0.19057331413E+03  0.00000000000E+00 0.  1.
<scales pt_clust_5="13000.00000" pt_clust_6="13000.00000" pt_clust_7="13000.00000" pt_clust_8="13000.00000" pt_clust_9="29.43715"></scales>
<clustering>
<clus scale="   29.437">  1  9  2 -1</clus>
<clus scale="   81.438">  5  6 -1 -1</clus>
<clus scale="   86.025">  2  5  1 -1</clus>
<clus scale="   92.318">  7  8 -1 -1</clus>
<clus scale="   29.437">  1  5  2 -1</clus>
</clustering>
</event>
<event>
 9    1  0.3197504E-005  0.1126042E+03  0.7546771E-02  0.1259552E+00
         21   -1    0    0  501  502  0.00000000000E+00  0.00000000000E+00  0.32353577247E+02  0.32353577247E+02  0.00000000000E+00 0.  1.
         -4   -1    0    0    0  501 -0.00000000000E+00 -0.00000000000E+00 -0.10631326327E+04  0.10631326327E+04  0.00000000000E+00 0.  1.
        -24    2    1    2    0    0 -0.42985022704E+01 -0.63828154209E+02 -0.86038385587E+03  0.86657762446E+03  0.81264317977E+02 0.  0.
         23    2    1    2    0    0 -0.11441748599E+02  0.78568160837E+02 -0.16823790275E+03  0.20723654769E+03  0.91318811135E+02 0.  0.
         11    1    3    3    0    0  0.50371995474E+01 -0.25075137633E+02 -0.60279822958E+02  0.65481241302E+02  0.00000000000E+00 0. -1.
        -12    1    3    3    0    0 -0.93357018178E+01 -0.38753016576E+02 -0.80010403291E+03  0.80109638316E+03  0.00000000000E+00 0.  1.
        -11    1    4    4    0    0 -0.37604417501E+02 -0.61638038776E+00 -0.51505834579E+02  0.63775568488E+02  0.00000000000E+00 0.  1.
         11    1    4    4    0    0  0.26162668902E+02  0.79184541224E+02 -0.11673206817E+03  0.14346097920E+03  0.00000000000E+00 0. -1.
         -3    1    1    2    0  502  0.15740250869E+02 -0.14740006628E+02 -0.21572968280E+01  0.21672037800E+02  0.00000000000E+00 0.  1.
<scales pt_clust_5="13000.00000" pt_clust_6="13000.00000" pt_clust_7="13000.00000" pt_clust_8="13000.00000" pt_clust_9="21.56440"></scales>
<clustering>
<clus scale="   21.564">  1  9  2 -1</clus>
<clus scale="   81.264">  5  6 -1 -1</clus>
<clus scale="   91.319">  7  8 -1 -1</clus>
<clus scale="  104.616">  2  5  1 -1</clus>
<clus scale="   21.564">  1  5  2 -1</clus>
</clustering>
</event>
<event>
 9    1  0.3197504E-005  0.1017754E+03  0.7546771E-02  0.1282023E+00
         21   -1    0    0  501  502  0.00000000000E+00  0.00000000000E+00  0.27074211683E+03  0.27074211683E+03  0.00000000000E+00 0. -1.
          3   -1    0    0  502    0 -0.00000000000E+00 -0.00000000000E+00 -0.56136166014E+02  0.56136166014E+02  0.00000000000E+00 0. -1.
         23    2    1    2    0    0  0.34855832779E+02  0.41695906713E+02  0.41280584865E+02  0.11396087211E+03  0.91266181956E+02 0.  0.
        -24    2    1    2    0    0 -0.12671916795E+02 -0.21578593074E+02  0.15896500260E+03  0.17970517697E+03  0.79986657784E+02 0.  0.
         11    1    4    4    0    0 -0.28879448899E+02  0.22270432080E+02  0.80384814070E+02  0.88270680561E+02  0.00000000000E+00 0. -1.
        -12    1    4    4    0    0  0.16207532104E+02 -0.43849025154E+02  0.78580188531E+02  0.91434496408E+02  0.00000000000E+00 0.  1.
        -13    1    3    3    0    0 -0.10277090859E+01  0.34606423685E+02  0.62663724784E+02  0.71591920983E+02  0.00000000000E+00 0.  1.
         13    1    3    3    0    0  0.35883541865E+02  0.70894830271E+01 -0.21383139919E+02  0.42368951122E+02  0.00000000000E+00 0. -1.
          4    1    1    2  501    0 -0.22183915985E+02 -0.20117313639E+02  0.14360363351E+02  0.33212233771E+02  0.00000000000E+00 0. -1.
<scales pt_clust_5="13000.00000" pt_clust_6="13000.00000" pt_clust_7="13000.00000" pt_clust_8="13000.00000" pt_clust_9="29.94718"></scales>
<clustering>
<clus scale="   29.947">  1  9  2 -1</clus>
<clus scale="   79.987">  5  6 -1 -1</clus>
<clus scale="   91.266">  7  8 -1 -1</clus>
<clus scale="   91.796">  1  5  2 -1</clus>
<clus scale="   29.947">  1  5  2 -1</clus>
</clustering>
</event>
<event>
 9    1  0.3197504E-005  0.1172480E+03  0.7546771E-02  0.1259526E+00
          1   -1    0    0  502    0 -0.00000000000E+00  0.00000000000E+00  0.27719819505E+03  0.27719819505E+03  0.00000000000E+00 0. -1.
         21   -1    0    0  501  502  0.00000000000E+00 -0.00000000000E+00 -0.86200850300E+02  0.86200850300E+02  0.00000000000E+00 0. -1.
        -24    2    1    2    0    0 -0.38411810399E+01 -0.92862187364E+02  0.14153983945E+03  0.17872619577E+03  0.57196034726E+02 0.  0.
         23    2    1    2    0    0 -0.15820443665E+02  0.21631437182E+02 -0.27018321105E+00  0.95604099382E+02  0.91770721405E+02 0.  0.
         11    1    3    3    0    0 -0.25707907853E+02 -0.78990351453E+02  0.10358341265E+03  0.13277761681E+03  0.00000000000E+00 0. -1.
        -12    1    3    3    0    0  0.21866726814E+02 -0.13871835911E+02  0.37956426796E+02  0.45948578957E+02  0.00000000000E+00 0.  1.
        -13    1    4    4    0    0 -0.46284916524E+02  0.38999287411E+02  0.54591643018E+00  0.60527150445E+02  0.00000000000E+00 0. -1.
         13    1    4    4    0    0  0.30464472859E+02 -0.17367850228E+02 -0.81609964123E+00  0.35076948937E+02  0.00000000000E+00 0.  1.
          2    1    1    2  501    0  0.19661624705E+02  0.71230750181E+02  0.49727688510E+02  0.89068750199E+02  0.00000000000E+00 0. -1.
<scales pt_clust_5="13000.00000" pt_clust_6="13000.00000" pt_clust_7="13000.00000" pt_clust_8="13000.00000" pt_clust_9="73.89455"></scales>
<clustering>
<clus scale="   57.196">  5  6 -1 -1</clus>
<clus scale="   73.895">  2  9  1 -1</clus>
<clus scale="   91.771">  7  8 -1 -1</clus>
<clus scale="   92.718">  1  5  2 -1</clus>
<clus scale="   73.895">  2  5  1 -1</clus>
</clustering>
</event>
<event>
 9    1  0.3197504E-005  0.2716404E+03  0.7546771E-02  0.1100716E+00
          1   -1    0    0  502    0 -0.00000000000E+00  0.00000000000E+00  0.36119652495E+03  0.36119652495E+03  0.00000000000E+00 0. -1.
         21   -1    0    0  501  502  0.00000000000E+00 -0.00000000000E+00 -0.26309882691E+03  0.26309882691E+03  0.00000000000E+00 0.  1.
         23    2    1    2    0    0 -0.26353526948E+02  0.23031687434E+03  0.49485851409E+02  0.25371404795E+03  0.90452184318E+02 0.  0.
        -24    2    1    2    0    0  0.72348876096E+02 -0.27757570710E+03  0.57891224670E+02  0.30398493559E+03  0.82297108838E+02 0.  0.
         11    1    4    4    0    0  0.33237955695E+02 -0.22711065254E+02  0.30666016948E+01  0.40372741171E+02  0.00000000000E+00 0. -1.
        -12    1    4    4    0    0  0.39110920401E+02 -0.25486464185E+03  0.54824622975E+02  0.26361219442E+03  0.00000000000E+00 0.  1.
        -13    1    3    3    0    0  0.17803915679E+02  0.76822503837E+02  0.51133667592E+02  0.93985788664E+02  0.00000000000E+00 0. -1.
         13    1    3    3    0    0 -0.44157442628E+02  0.15349437051E+03 -0.16478161837E+01  0.15972825929E+03  0.00000000000E+00 0.  1.
          2    1    1    2  501    0 -0.45995349148E+02  0.47258832761E+02 -0.92793780430E+01  0.66596368324E+02  0.00000000000E+00 0. -1.
<scales pt_clust_5="13000.00000" pt_clust_6="13000.00000" pt_clust_7="13000.00000" pt_clust_8="13000.00000" pt_clust_9="65.94672"></scales>
<clustering>
<clus scale="   65.947">  2  9  1 -1</clus>
<clus scale="   82.297">  5  6 -1 -1</clus>
<clus scale="   90.452">  7  8 -1 -1</clus>
<clus scale="  269.035">  2  5  1 -1</clus>
<clus scale="   65.947">  2  5  1 -1</clus>
</clustering>
</event>
<event>
 9    1  0.3197504E-005  0.1009661E+03  0.7546771E-02  0.1284746E+00
          1   -1    0    0  502    0 -0.00000000000E+00  0.00000000000E+00  0.31248693225E+03  0.31248693225E+03  0.00000000000E+00 0. -1.
         21   -1    0    0  501  502  0.00000000000E+00 -0.00000000000E+00 -0.87390283377E+02  0.87390283377E+02  0.00000000000E+00 0. -1.
        -24    2    1    2    0    0  0.44765780468E+01  0.35449763826E+02  0.15605017215E+03  0.17908100702E+03  0.80259736745E+02 0.  0.
         23    2    1    2    0    0  0.66318747271E+02 -0.53876002714E+02  0.99120841865E+01  0.12673037662E+03  0.93067389762E+02 0.  0.
         11    1    3    3    0    0  0.35561187221E+02  0.12657468748E+02  0.12180824797E+03  0.12752277767E+03  0.00000000000E+00 0. -1.
        -12    1    3    3    0    0 -0.31084609174E+02  0.22792295079E+02  0.34241924182E+02  0.51558229354E+02  0.00000000000E+00 0.  1.
        -11    1    4    4    0    0 -0.37320431858E+01 -0.43921786503E+02 -0.21821218377E+02  0.49185536974E+02  0.00000000000E+00 0.  1.
         11    1    4    4    0    0  0.70050790457E+02 -0.99542162109E+01  0.31733302563E+02  0.77544839645E+02  0.00000000000E+00 0. -1.
          2    1    1    2  501    0 -0.70795325318E+02  0.18426238888E+02  0.59134392540E+02  0.94065831987E+02  0.00000000000E+00 0. -1.
<scales pt_clust_5="13000.00000" pt_clust_6="13000.00000" pt_clust_7="13000.00000" pt_clust_8="13000.00000" pt_clust_9="73.15401"></scales>
<clustering>
<clus scale="   73.154">  2  9  1 -1</clus>
<clus scale="   80.260">  5  6 -1 -1</clus>
<clus scale="   89.299">  1  5  2 -1</clus>
<clus scale="   93.067">  7  8 -1 -1</clus>
<clus scale="   73.154">  2  5  1 -1</clus>
</clustering>
</event>
<event>
 9    1  0.3197504E-005  0.1111404E+03  0.7546771E-02  0.1266660E+00
         21   -1    0    0  501  502  0.00000000000E+00  0.00000000000E+00  0.17519445237E+03  0.17519445237E+03  0.00000000000E+00 0. -1.
          1   -1    0    0  502    0 -0.00000000000E+00 -0.00000000000E+00 -0.21609300085E+03  0.21609300085E+03  0.00000000000E+00 0. -1.
        -24    2    1    2    0    0  0.13188916845E+02  0.51927780365E+02 -0.16615969992E+03  0.19215555594E+03  0.80276210050E+02 0.  0.
         23    2    1    2    0    0 -0.11866696666E+02 -0.28355077600E+02  0.40977134989E+02  0.11160352469E+03  0.99153377224E+02 0.  0.
         11    1    3    3    0    0 -0.82882052069E+01  0.66875432166E+02 -0.13882159496E+03  0.15431284133E+03  0.00000000000E+00 0. -1.
        -12    1    3    3    0    0  0.21477122052E+02 -0.14947651801E+02 -0.27338104954E+02  0.37842714602E+02  0.00000000000E+00 0.  1.
        -13    1    4    4    0    0  0.22642758283E+02  0.27341851837E+02  0.27016811820E+02  0.44611427745E+02  0.00000000000E+00 0. -1.
         13    1    4    4    0    0 -0.34509454949E+02 -0.55696929437E+02  0.13960323169E+02  0.66992096941E+02  0.00000000000E+00 0.  1.
          2    1    1    2  501    0 -0.13222201786E+01 -0.23572702766E+02  0.84284016449E+02  0.87528372604E+02  0.00000000000E+00 0. -1.
<scales pt_clust_5="13000.00000" pt_clust_6="13000.00000" pt_clust_7="13000.00000" pt_clust_8="13000.00000" pt_clust_9="23.60976"></scales>
<clustering>
<clus scale="   23.610">  1  9  2 -1</clus>
<clus scale="   80.276">  5  6 -1 -1</clus>
<clus scale="   94.684">  2  5  1 -1</clus>
<clus scale="   99.153">  7  8 -1 -1</clus>
<clus scale="   23.610">  1  5  2 -1</clus>
</clustering>
</event>
<event>
 9    1  0.3197504E-005  0.1005038E+03  0.7546771E-02  0.1287402E+00
         21   -1    0    0  501  502  0.00000000000E+00  0.00000000000E+00  0.64903370754E+03  0.64903370754E+03  0.00000000000E+00 0. -1.
         -2   -1    0    0    0  501 -0.00000000000E+00 -0.00000000000E+00 -0.29308510476E+02  0.29308510476E+02  0.00000000000E+00 0.  1.
        -24    2    1    2    0    0 -0.26518305046E+02  0.15083229866E+02  0.66988043516E+02  0.10825570674E+03  0.79379945458E+02 0.  0.
         23    2    1    2    0    0  0.50838824578E+02 -0.17659526823E+00  0.37686171272E+03  0.39191281482E+03  0.94796026465E+02 0.  0.
         11    1    3    3    0    0 -0.98365549597E+01  0.43542584611E+02  0.15789528934E+02  0.47350012799E+02  0.00000000000E+00 0. -1.
        -12    1    3    3    0    0 -0.16681750086E+02 -0.28459354745E+02  0.51198514583E+02  0.60905693937E+02  0.00000000000E+00 0.  1.
        -11    1    4    4    0    0  0.10974629093E+01  0.34094205034E+02  0.57242032558E+02  0.66635347474E+02  0.00000000000E+00 0.  1.
         11    1    4    4    0    0  0.49741361669E+02 -0.34270800302E+02  0.31961968016E+03  0.32527746734E+03  0.00000000000E+00 0. -1.
         -1    1    1    2    0  502 -0.24320519532E+02 -0.14906634598E+02  0.17587544083E+03  0.17817369646E+03  0.00000000000E+00 0.  1.
<scales pt_clust_5="13000.00000" pt_clust_6="13000.00000" pt_clust_7="13000.00000" pt_clust_8="13000.00000" pt_clust_9="28.52535"></scales>
<clustering>
<clus scale="   28.525">  1  9  2 -1</clus>
<clus scale="   79.380">  5  6 -1 -1</clus>
<clus scale="   86.116">  2  5  1 -1</clus>
<clus scale="   94.796">  7  8 -1 -1</clus>
<clus scale="   28.525">  1  5  2 -1</clus>
</clustering>
</event>
<event>
 9    1  0.3197504E-005  0.9057954E+02  0.7546771E-02  0.1308170E+00
         21   -1    0    0  501  502  0.00000000000E+00  0.00000000000E+00  0.37676343036E+02  0.37676343036E+02  0.00000000000E+00 0. -1.
          3   -1    0    0  502    0 -0.00000000000E+00 -0.00000000000E+00 -0.51190555727E+03  0.51190555727E+03  0.00000000000E+00 0. -1.
        -24    2    1    2    0    0 -0.28630464018E+02 -0.18906386556E+02 -0.14533790203E+03  0.16938990623E+03  0.79954234699E+02 0.  0.
         23    2    1    2    0    0 -0.41493370891E+02 -0.31320428441E+02 -0.17254116845E+03  0.20162701257E+03  0.90445167482E+02 0.  0.
         11    1    3    3    0    0 -0.56510640103E+02 -0.16810753586E+02 -0.94977853438E+02  0.11178929521E+03  0.00000000000E+00 0. -1.
        -12    1    3    3    0    0  0.27880176084E+02 -0.20956329694E+01 -0.50360048588E+02  0.57600611020E+02  0.00000000000E+00 0.  1.
        -11    1    4    4    0    0 -0.21756709869E+02 -0.54012083962E+02 -0.15766646950E+03  0.16807550459E+03  0.00000000000E+00 0.  1.
         11    1    4    4    0    0 -0.19736661021E+02  0.22691655521E+02 -0.14874698945E+02  0.33551507973E+02  0.00000000000E+00 0. -1.
          4    1    1    2  501    0  0.70123834909E+02  0.50226814997E+02 -0.15635014376E+03  0.17856498151E+03  0.00000000000E+00 0. -1.
<scales pt_clust_5="13000.00000" pt_clust_6="13000.00000" pt_clust_7="13000.00000" pt_clust_8="13000.00000" pt_clust_9="86.25597"></scales>
<clustering>
<clus scale="   79.954">  5  6 -1 -1</clus>
<clus scale="   86.256">  1  9  2 -1</clus>
<clus scale="   80.106">  2  5  1 -1</clus>
<clus scale="   90.445">  7  8 -1 -1</clus>
<clus scale="   86.256">  1  5  2 -1</clus>
</clustering>
</event>
<event>
 9    1  0.6651728E-005  0.1046456E+03  0.7546771E-02  0.1274414E+00
          1   -1    0    0  502    0 -0.00000000000E+00  0.00000000000E+00  0.53081787108E+03  0.53081787108E+03  0.00000000000E+00 0. -1.
         21   -1    0    0  501  502  0.00000000000E+00 -0.00000000000E+00 -0.13636568644E+03  0.13636568644E+03  0.00000000000E+00 0.  1.
         23    2    1    2    0    0 -0.49667120041E+02  0.20651511333E+02  0.49698788762E+03  0.50811332387E+03  0.91043295836E+02 0.  0.
        -24    2    1    2    0    0  0.18789257718E+02 -0.45790518343E+01 -0.60219334267E+02  0.10427569563E+03  0.82903851287E+02 0.  0.
         13    1    4    4    0    0 -0.37999011198E+01 -0.22941914459E+02  0.12174017365E+02  0.26248378738E+02  0.00000000000E+00 0. -1.
        -14    1    4    4    0    0  0.22589158838E+02  0.18362862625E+02 -0.72393351633E+02  0.78027316892E+02  0.00000000000E+00 0.  1.
        -13    1    3    3    0    0 -0.38672521610E+02 -0.33082993770E+02  0.23659169591E+03  0.24200346894E+03  0.00000000000E+00 0.  1.
         13    1    3    3    0    0 -0.10994598431E+02  0.53734505103E+02  0.26039619171E+03  0.26610985493E+03  0.00000000000E+00 0. -1.
          2    1    1    2  501    0  0.30877862323E+02 -0.16072459499E+02 -0.42316368713E+02  0.54794538022E+02  0.00000000000E+00 0. -1.
<scales pt_clust_5="13000.00000" pt_clust_6="13000.00000" pt_clust_7="13000.00000" pt_clust_8="13000.00000" pt_clust_9="34.81043"></scales>
<clustering>
<clus scale="   34.810">  2  9  1 -1</clus>
<clus scale="   82.904">  5  6 -1 -1</clus>
<clus scale="   91.043">  7  8 -1 -1</clus>
<clus scale="   97.647">  2  5  1 -1</clus>
<clus scale="   34.810">  2  5  1 -1</clus>
</clustering>
</event>
<event>
 9    1  0.3197504E-005  0.9257903E+02  0.7546771E-02  0.1303968E+00
          1   -1    0    0  502    0 -0.00000000000E+00  0.00000000000E+00  0.21932821173E+03  0.21932821173E+03  0.00000000000E+00 0. -1.
         21   -1    0    0  501  502  0.00000000000E+00 -0.00000000000E+00 -0.82899415022E+02  0.82899415022E+02  0.00000000000E+00 0.  1.
         23    2    1    2    0    0 -0.15794049597E+02 -0.53331473951E+01  0.70171813975E+02  0.11680145865E+03  0.91872753313E+02 0.  0.
        -24    2    1    2    0    0 -0.68588418412E+00 -0.23526599379E+02 -0.25863139807E+02  0.87494609465E+02  0.80202452390E+02 0.  0.
         13    1    4    4    0    0  0.16890262700E+02  0.25982604469E+02 -0.80221284487E+01  0.32011423803E+02  0.00000000000E+00 0. -1.
        -14    1    4    4    0    0 -0.17576146884E+02 -0.49509203847E+02 -0.17841011358E+02  0.55483185662E+02  0.00000000000E+00 0.  1.
        -11    1    3    3    0    0 -0.31127145692E+02 -0.38409979984E+02  0.62247987365E+02  0.79492375058E+02  0.00000000000E+00 0.  1.
         11    1    3    3    0    0  0.15333096095E+02  0.33076832589E+02  0.79238266104E+01  0.37309083588E+02  0.00000000000E+00 0. -1.
          2    1    1    2  501    0  0.16479933781E+02  0.28859746774E+02  0.92120122543E+02  0.97931558645E+02  0.00000000000E+00 0. -1.
<scales pt_clust_5="13000.00000" pt_clust_6="13000.00000" pt_clust_7="13000.00000" pt_clust_8="13000.00000" pt_clust_9="33.23363"></scales>
<clustering>
<clus scale="   33.234">  2  9  1 -1</clus>
<clus scale="   80.202">  5  6 -1 -1</clus>
<clus scale="   81.011">  2  5  1 -1</clus>
<clus scale="   91.873">  7  8 -1 -1</clus>
<clus scale="   33.234">  2  5  1 -1</clus>
</clustering>
</event>
<event>
 9    1  0.3197504E-005  0.1334889E+03  0.7546771E-02  0.1233235E+00
         21   -1    0    0  501  502  0.00000000000E+00  0.00000000000E+00  0.60223705911E+02  0.60223705911E+02  0.00000000000E+00 0. -1.
          1   -1    0    0  502    0 -0.00000000000E+00 -0.00000000000E+00 -0.54771108708E+03  0.54771108708E+03  0.00000000000E+00 0. -1.
         23    2    1    2    0    0 -0.42764744461E+02 -0.31967261206E+02 -0.14237052253E+03  0.17783942370E+03  0.92232129860E+02 0.  0.
        -24    2    1    2    0    0 -0.81948444596E+02  0.50861887183E+02 -0.13142823346E+03  0.18195586226E+03  0.80821260344E+02 0.  0.
         11    1    4    4    0    0 -0.51662549865E+02  0.68669529798E+02 -0.68540355526E+02  0.10991953292E+03  0.00000000000E+00 0. -1.
        -12    1    4    4    0    0 -0.30285894730E+02 -0.17807642616E+02 -0.62887877930E+02  0.72036329346E+02  0.00000000000E+00 0.  1.
        -13    1    3    3    0    0 -0.20335937682E+02 -0.63264016700E+02 -0.74685750784E+02  0.99969232970E+02  0.00000000000E+00 0. -1.
         13    1    3    3    0    0 -0.22428806780E+02  0.31296755494E+02 -0.67684771745E+02  0.77870190729E+02  0.00000000000E+00 0.  1.
          2    1    1    2  501    0  0.12471318906E+03 -0.18894625976E+02 -0.21368862519E+03  0.24813950703E+03  0.00000000000E+00 0. -1.
<scales pt_clust_5="13000.00000" pt_clust_6="13000.00000" pt_clust_7="13000.00000" pt_clust_8="13000.00000" pt_clust_9="106.24136"></scales>
<clustering>
<clus scale="   80.821">  5  6 -1 -1</clus>
<clus scale="   92.232">  7  8 -1 -1</clus>
<clus scale="  106.572">  2  7  1 -1</clus>
<clus scale="  106.241">  1  9  2 -1</clus>
<clus scale="  106.241">  1  5  2 -1</clus>
</clustering>
</event>
<event>
 9    1  0.3197504E-005  0.1719658E+03  0.7546771E-02  0.1192992E+00
         -4   -1    0    0    0  501 -0.00000000000E+00  0.00000000000E+00  0.95916333073E+02  0.95916333073E+02  0.00000000000E+00 0.  1.
         21   -1    0    0  501  502  0.00000000000E+00 -0.00000000000E+00 -0.58929266022E+03  0.58929266022E+03  0.00000000000E+00 0.  1.
         23    2    1    2    0    0  0.53333073988E+02  0.46534651694E+02 -0.21475098289E+03  0.24465999852E+03  0.93437891853E+02 0.  0.
        -24    2    1    2    0    0  0.11190942379E+03  0.26009990895E+02 -0.41992084844E+02  0.14295345095E+03  0.73973746626E+02 0.  0.
         11    1    4    4    0    0  0.40961371222E+02  0.19378229050E+02 -0.54211762791E+02  0.70655961662E+02  0.00000000000E+00 0. -1.
        -12    1    4    4    0    0  0.70948052569E+02  0.66317618447E+01  0.12219677947E+02  0.72297489290E+02  0.00000000000E+00 0.  1.
        -13    1    3    3    0    0 -0.25167013547E+02  0.14183264069E+02 -0.31771669577E+02  0.42941617788E+02  0.00000000000E+00 0. -1.
         13    1    3    3    0    0  0.78500087536E+02  0.32351387625E+02 -0.18297931332E+03  0.20171838074E+03  0.00000000000E+00 0.  1.
         -3    1    1    2    0  502 -0.16524249778E+03 -0.72544642589E+02 -0.23663325940E+03  0.29759554381E+03  0.00000000000E+00 0.  1.
<scales pt_clust_5="13000.00000" pt_clust_6="13000.00000" pt_clust_7="13000.00000" pt_clust_8="13000.00000" pt_clust_9="155.24210"></scales>
<clustering>
<clus scale="   73.974">  5  6 -1 -1</clus>
<clus scale="   93.438">  7  8 -1 -1</clus>
<clus scale="  117.220">  1  7  2 -1</clus>
<clus scale="  155.242">  2  9  1 -1</clus>
<clus scale="  155.242">  2  5  1 -1</clus>
</clustering>
</event>
<event>
 9    1  0.3197504E-005  0.1914043E+03  0.7546771E-02  0.1159017E+00
          1   -1    0    0  502    0 -0.00000000000E+00  0.00000000000E+00  0.40782671853E+03  0.40782671853E+03  0.00000000000E+00 0. -1.
         21   -1    0    0  501  502  0.00000000000E+00 -0.00000000000E+00 -0.23632367290E+03  0.23632367290E+03  0.00000000000E+00 0. -1.
         23    2    1    2    0    0  0.63809160263E+02  0.15833470978E+03  0.33138268635E+03  0.38524289189E+03  0.97242540483E+02 0.  0.
        -24    2    1    2    0    0 -0.40021890710E+02 -0.12900475143E+03 -0.94601511983E+02  0.18349321216E+03  0.80475680861E+02 0.  0.
         11    1    4    4    0    0  0.31577395284E+00 -0.99677502502E+02 -0.34692954120E+02  0.10554290731E+03  0.00000000000E+00 0. -1.
        -12    1    4    4    0    0 -0.40337664663E+02 -0.29327248932E+02 -0.59908557863E+02  0.77950304846E+02  0.00000000000E+00 0.  1.
        -13    1    3    3    0    0  0.65209582295E+02  0.36763377040E+02  0.12333552338E+03  0.14427573199E+03  0.00000000000E+00 0.  1.
         13    1    3    3    0    0 -0.14004220324E+01  0.12157133274E+03  0.20804716297E+03  0.24096715990E+03  0.00000000000E+00 0. -1.
          2    1    1    2  501    0 -0.23787269553E+02 -0.29329958347E+02 -0.65278128744E+02  0.75414287385E+02  0.00000000000E+00 0. -1.
<scales pt_clust_5="13000.00000" pt_clust_6="13000.00000" pt_clust_7="13000.00000" pt_clust_8="13000.00000" pt_clust_9="37.76348"></scales>
<clustering>
<clus scale="   37.763">  2  9  1 -1</clus>
<clus scale="   80.476">  5  6 -1 -1</clus>
<clus scale="   97.243">  7  8 -1 -1</clus>
<clus scale="  183.455">  2  5  1 -1</clus>
<clus scale="   37.763">  2  5  1 -1</clus>
</clustering>
</event>
<event>
 9    1  0.3197504E-005  0.1423651E+03  0.7546771E-02  0.1212690E+00
          1   -1    0    0  502    0 -0.00000000000E+00  0.00000000000E+00  0.53790215239E+03  0.53790215239E+03  0.00000000000E+00 0. -1.
         21   -1    0    0  501  502  0.00000000000E+00 -0.00000000000E+00 -0.10852277541E+03  0.10852277541E+03  0.00000000000E+00 0. -1.
         23    2    1    2    0    0 -0.10966905967E+02  0.14587288579E+03  0.36473764761E+03  0.40379059138E+03  0.92812274344E+02 0.  0.
        -24    2    1    2    0    0 -0.30955433641E+02 -0.61471601478E+02  0.96094073196E+02  0.14328490619E+03  0.80990720328E+02 0.  0.
         13    1    4    4    0    0 -0.52170992259E+02 -0.34206664061E+02  0.31163106237E+02  0.69735553986E+02  0.00000000000E+00 0. -1.
        -14    1    4    4    0    0  0.21215558618E+02 -0.27264937417E+02  0.64930966960E+02  0.73549352207E+02  0.00000000000E+00 0.  1.
        -11    1    3    3    0    0 -0.38506531993E+02  0.10350719572E+03  0.31100390805E+03  0.33003018558E+03  0.00000000000E+00 0. -1.
         11    1    3    3    0    0  0.27539626026E+02  0.42365690071E+02  0.53733739560E+02  0.73760405801E+02  0.00000000000E+00 0.  1.
          2    1    1    2  501    0  0.41922339608E+02 -0.84401284315E+02 -0.31452343831E+02  0.99349430219E+02  0.00000000000E+00 0. -1.
<scales pt_clust_5="13000.00000" pt_clust_6="13000.00000" pt_clust_7="13000.00000" pt_clust_8="13000.00000" pt_clust_9="94.23937"></scales>
<clustering>
<clus scale="   80.991">  5  6 -1 -1</clus>
<clus scale="   92.812">  7  8 -1 -1</clus>
<clus scale="   94.239">  2  9  1 -1</clus>
<clus scale="  134.956">  2  5  1 -1</clus>
<clus scale="   94.239">  2  5  1 -1</clus>
</clustering>
</event>
<event>
 9    1  0.3197504E-005  0.1251663E+03  0.7546771E-02  0.1250775E+00
         21   -1    0    0  501  502  0.00000000000E+00  0.00000000000E+00  0.62133081112E+02  0.62133081112E+02  0.00000000000E+00 0.  1.
         -2   -1    0    0    0  501 -0.00000000000E+00 -0.00000000000E+00 -0.41933558216E+03  0.41933558216E+03  0.00000000000E+00 0.  1.
        -24    2    1    2    0    0  0.35404709773E+02 -0.15998169116E+01 -0.71034266383E+02  0.11515724451E+03  0.83422245678E+02 0.  0.
         23    2    1    2    0    0  0.63286268270E+02  0.36847594002E+02 -0.10607642367E+03  0.15794785351E+03  0.91282089343E+02 0.  0.
         11    1    3    3    0    0  0.22058991221E+01  0.27802550938E+02 -0.64577349351E+02  0.70342603583E+02  0.00000000000E+00 0. -1.
        -12    1    3    3    0    0  0.33198810651E+02 -0.29402367850E+02 -0.64569170322E+01  0.44814640926E+02  0.00000000000E+00 0.  1.
        -11    1    4    4    0    0  0.50357782340E+02  0.67082680186E+02 -0.71336778072E+02  0.11011325138E+03  0.00000000000E+00 0.  1.
         11    1    4    4    0    0  0.12928485930E+02 -0.30235086184E+02 -0.34739645593E+02  0.47834602130E+02  0.00000000000E+00 0. -1.
         -1    1    1    2    0  502 -0.98690978043E+02 -0.35247777090E+02 -0.18009181100E+03  0.20836356526E+03  0.00000000000E+00 0.  1.
<scales pt_clust_5="13000.00000" pt_clust_6="13000.00000" pt_clust_7="13000.00000" pt_clust_8="13000.00000" pt_clust_9="85.63991"></scales>
<clustering>
<clus scale="   83.422">  5  6 -1 -1</clus>
<clus scale="   90.638">  2  5  1 -1</clus>
<clus scale="   85.640">  1  9  2 -1</clus>
<clus scale="   91.282">  7  8 -1 -1</clus>
<clus scale="   85.640">  1  5  2 -1</clus>
</clustering>
</event>
<event>
 9    1  0.3197504E-005  0.1843982E+03  0.7546771E-02  0.1195443E+00
          1   -1    0    0  502    0 -0.00000000000E+00  0.00000000000E+00  0.18398343112E+03  0.18398343112E+03  0.00000000000E+00 0. -1.
         21   -1    0    0  501  502  0.00000000000E+00 -0.00000000000E+00 -0.49594278239E+03  0.49594278239E+03  0.00000000000E+00 0.  1.
        -24    2    1    2    0    0 -0.38677435420E+01  0.56738143198E+02  0.31215261493E+02  0.95349794237E+02  0.69878568798E+02 0.  0.
         23    2    1    2    0    0  0.60635497376E+02 -0.15789630933E+03 -0.40829379643E+03  0.45154987857E+03  0.92658300210E+02 0.  0.
         13    1    3    3    0    0  0.65032770254E+01  0.71161897461E+02  0.30132055729E+02  0.77551589569E+02  0.00000000000E+00 0. -1.
        -14    1    3    3    0    0 -0.10371020567E+02 -0.14423754263E+02  0.10832057641E+01  0.17798204667E+02  0.00000000000E+00 0.  1.
        -13    1    4    4    0    0  0.35640683109E+01 -0.12824162422E+03 -0.26096162786E+03  0.29079131345E+03  0.00000000000E+00 0.  1.
         13    1    4    4    0    0  0.57071429066E+02 -0.29654685108E+02 -0.14733216857E+03  0.16075856512E+03  0.00000000000E+00 0. -1.
          2    1    1    2  501    0 -0.56767753834E+02  0.10115816613E+03  0.65119183666E+02  0.13302654070E+03  0.00000000000E+00 0. -1.
<scales pt_clust_5="13000.00000" pt_clust_6="13000.00000" pt_clust_7="13000.00000" pt_clust_8="13000.00000" pt_clust_9="159.42756"></scales>
<clustering>
<clus scale="   69.879">  5  6 -1 -1</clus>
<clus scale="   90.095">  1  5  2 -1</clus>
<clus scale="   92.658">  7  8 -1 -1</clus>
<clus scale="  159.428">  2  9  1 -1</clus>
<clus scale="  159.428">  2  5  1 -1</clus>
</clustering>
</event>
<event>
 9    1  0.3197504E-005  0.1071243E+03  0.7546771E-02  0.1270669E+00
         21   -1    0    0  501  502  0.00000000000E+00  0.00000000000E+00  0.21921673748E+02  0.21921673748E+02  0.00000000000E+00 0. -1.
          1   -1    0    0  502    0 -0.00000000000E+00 -0.00000000000E+00 -0.95989846437E+03  0.95989846437E+03  0.00000000000E+00 0. -1.
        -24    2    1    2    0    0 -0.36619247849E+02  0.66716642523E+02 -0.33835748512E+03  0.35617225861E+03  0.81122194030E+02 0.  0.
         23    2    1    2    0    0  0.31457925622E+01 -0.28691635460E+02 -0.19208568858E+03  0.21497766840E+03  0.92116123435E+02 0.  0.
         13    1    3    3    0    0 -0.34336593898E+02  0.77377279921E+02 -0.33378052933E+03  0.34434820587E+03  0.00000000000E+00 0. -1.
        -14    1    3    3    0    0 -0.22826539515E+01 -0.10660637398E+02 -0.45769557886E+01  0.11824052735E+02  0.00000000000E+00 0.  1.
        -13    1    4    4    0    0 -0.34002169522E+02 -0.37766974488E+02 -0.66471454415E+02  0.83671656768E+02  0.00000000000E+00 0.  1.
         13    1    4    4    0    0  0.37147962085E+02  0.90753390282E+01 -0.12561423417E+03  0.13130601163E+03  0.00000000000E+00 0. -1.
          2    1    1    2  501    0  0.33473455287E+02 -0.38025007063E+02 -0.40753361692E+03  0.41067021111E+03  0.00000000000E+00 0. -1.
<scales pt_clust_5="13000.00000" pt_clust_6="13000.00000" pt_clust_7="13000.00000" pt_clust_8="13000.00000" pt_clust_9="50.65941"></scales>
<clustering>
<clus scale="   50.659">  1  9  2 -1</clus>
<clus scale="   81.122">  5  6 -1 -1</clus>
<clus scale="   92.116">  7  8 -1 -1</clus>
<clus scale="   97.832">  2  5  1 -1</clus>
<clus scale="   50.659">  1  5  2 -1</clus>
</clustering>
</event>
<event>
 9    1  0.3197504E-005  0.1238090E+03  0.7546771E-02  0.1241416E+00
          1   -1    0    0  502    0 -0.00000000000E+00  0.00000000000E+00  0.29808698219E+03  0.29808698219E+03  0.00000000000E+00 0. -1.
         21   -1    0    0  501  502  0.00000000000E+00 -0.00000000000E+00 -0.90182646728E+02  0.90182646728E+02  0.00000000000E+00 0. -1.
        -24    2    1    2    0    0 -0.89578883451E+02 -0.10878491745E+01  0.16249140750E+03  0.20195561647E+03  0.79731134043E+02 0.  0.
         23    2    1    2    0    0  0.49091889350E+02  0.16172762139E+01 -0.21080086861E+02  0.10846288526E+03  0.94377954176E+02 0.  0.
         11    1    3    3    0    0 -0.34229886740E+02  0.26913570648E+02  0.11755447318E+03  0.12535980056E+03  0.00000000000E+00 0. -1.
        -12    1    3    3    0    0 -0.55348996711E+02 -0.28001419822E+02  0.44936934321E+02  0.76595815912E+02  0.00000000000E+00 0.  1.
        -13    1    4    4    0    0  0.30120665801E+02  0.36730146702E+02 -0.41996381315E+02  0.63403897582E+02  0.00000000000E+00 0. -1.
         13    1    4    4    0    0  0.18971223549E+02 -0.35112870488E+02  0.20916294454E+02  0.45058987678E+02  0.00000000000E+00 0.  1.
          2    1    1    2  501    0  0.40486994101E+02 -0.52942703942E+00  0.66493014818E+02  0.77851127184E+02  0.00000000000E+00 0. -1.
<scales pt_clust_5="13000.00000" pt_clust_6="13000.00000" pt_clust_7="13000.00000" pt_clust_8="13000.00000" pt_clust_9="40.49048"></scales>
<clustering>
<clus scale="   40.490">  2  9  1 -1</clus>
<clus scale="   79.731">  5  6 -1 -1</clus>
<clus scale="   94.378">  7  8 -1 -1</clus>
<clus scale="  113.042">  1  5  2 -1</clus>
<clus scale="   40.490">  2  5  1 -1</clus>
</clustering>
</event>
<event>
 9    1  0.3197504E-005  0.2721079E+03  0.7546771E-02  0.1119369E+00
         -2   -1    0    0    0  501 -0.00000000000E+00  0.00000000000E+00  0.61091817463E+03  0.61091817463E+03  0.00000000000E+00 0.  1.
         21   -1    0    0  501  502  0.00000000000E+00 -0.00000000000E+00 -0.12162247573E+04  0.12162247573E+04  0.00000000000E+00 0.  1.
        -24    2    1    2    0    0  0.42284707199E+02 -0.14098084099E+03  0.34005614189E+03  0.37859839558E+03  0.77685079089E+02 0.  0.
         23    2    1    2    0    0  0.20062326200E+03  0.43635634354E+02  0.18327051743E+03  0.28997068645E+03  0.91329921710E+02 0.  0.
         11    1    3    3    0    0  0.24047224057E+02 -0.18644915646E+02  0.22617301326E+02  0.37913641128E+02  0.00000000000E+00 0. -1.
        -12    1    3    3    0    0  0.18237483142E+02 -0.12233592535E+03  0.31743884056E+03  0.34068475445E+03  0.00000000000E+00 0.  1.
        -11    1    4    4    0    0  0.98183999188E+02  0.42784535364E+02  0.41055148655E+02  0.11470021532E+03  0.00000000000E+00 0.  1.
         11    1    4    4    0    0  0.10243926281E+03  0.85109898962E+00  0.14221536877E+03  0.17527047113E+03  0.00000000000E+00 0. -1.
         -1    1    1    2    0  502 -0.24290796920E+03  0.97345206640E+02 -0.11286332420E+04  0.11585738499E+04  0.00000000000E+00 0.  1.
<scales pt_clust_5="13000.00000" pt_clust_6="13000.00000" pt_clust_7="13000.00000" pt_clust_8="13000.00000" pt_clust_9="256.32310"></scales>
<clustering>
<clus scale="   77.685">  5  6 -1 -1</clus>
<clus scale="   91.330">  7  8 -1 -1</clus>
<clus scale="  166.429">  1  5  2 -1</clus>
<clus scale="  256.323">  2  9  1 -1</clus>
<clus scale="  256.323">  2  5  1 -1</clus>
</clustering>
</event>
<event>
 9    1  0.3197504E-005  0.9656673E+02  0.7546771E-02  0.1294736E+00
          1   -1    0    0  502    0 -0.00000000000E+00  0.00000000000E+00  0.53748832828E+03  0.53748832828E+03  0.00000000000E+00 0. -1.
         21   -1    0    0  501  502  0.00000000000E+00 -0.00000000000E+00 -0.37519504456E+02  0.37519504456E+02  0.00000000000E+00 0.  1.
         23    2    1    2    0    0  0.68817904968E+00 -0.26276192796E+02  0.40900456377E+03  0.42024936513E+03  0.92918694647E+02 0.  0.
        -24    2    1    2    0    0 -0.31300387062E+02  0.21316412210E+02  0.85324960354E+02  0.12323849927E+03  0.80456666491E+02 0.  0.
         11    1    4    4    0    0 -0.48125508732E+02 -0.13372391304E+02  0.54041598856E+02  0.73589264480E+02  0.00000000000E+00 0. -1.
        -12    1    4    4    0    0  0.16825121669E+02  0.34688803514E+02  0.31283361498E+02  0.49649234788E+02  0.00000000000E+00 0.  1.
        -11    1    3    3    0    0 -0.51891402144E+01 -0.60515605848E+02  0.22865909299E+03  0.23658834827E+03  0.00000000000E+00 0. -1.
         11    1    3    3    0    0  0.58773192641E+01  0.34239413052E+02  0.18034547077E+03  0.18366101686E+03  0.00000000000E+00 0.  1.
          2    1    1    2  501    0  0.30612208013E+02  0.49597805857E+01  0.56392997076E+01  0.31519968339E+02  0.00000000000E+00 0. -1.
<scales pt_clust_5="13000.00000" pt_clust_6="13000.00000" pt_clust_7="13000.00000" pt_clust_8="13000.00000" pt_clust_9="31.01140"></scales>
<clustering>
<clus scale="   31.011">  2  9  1 -1</clus>
<clus scale="   80.457">  5  6 -1 -1</clus>
<clus scale="   84.644">  2  5  1 -1</clus>
<clus scale="   92.919">  7  8 -1 -1</clus>
<clus scale="   31.011">  2  5  1 -1</clus>
</clustering>
</event>
<event>
 9    1  0.3197504E-005  0.9275174E+02  0.7546771E-02  0.1312462E+00
          1   -1    0    0  502    0 -0.00000000000E+00  0.00000000000E+00  0.12943156289E+03  0.12943156289E+03  0.00000000000E+00 0. -1.
         21   -1    0    0  501  502  0.00000000000E+00 -0.00000000000E+00 -0.19185311627E+03  0.19185311627E+03  0.00000000000E+00 0. -1.
        -24    2    1    2    0    0 -0.18445568726E+02 -0.65614516364E+01  0.91554987373E+02  0.11470587384E+03  0.66270884458E+02 0.  0.
         23    2    1    2    0    0  0.35091011347E+00  0.38620718049E+02 -0.94149153864E+02  0.13633259934E+03  0.90723929975E+02 0.  0.
         13    1    3    3    0    0 -0.20592217748E+02  0.26351311330E+02  0.61877997565E+02  0.70337170993E+02  0.00000000000E+00 0. -1.
        -14    1    3    3    0    0  0.21466490223E+01 -0.32912762967E+02  0.29676989808E+02  0.44368702846E+02  0.00000000000E+00 0.  1.
        -11    1    4    4    0    0  0.40076140364E+02  0.44522593567E+01 -0.64669982028E+02  0.76211063602E+02  0.00000000000E+00 0.  1.
         11    1    4    4    0    0 -0.39725230250E+02  0.34168458693E+02 -0.29479171836E+02  0.60121535742E+02  0.00000000000E+00 0. -1.
          2    1    1    2  501    0  0.18094658612E+02 -0.32059266413E+02 -0.59827386886E+02  0.70246205982E+02  0.00000000000E+00 0. -1.
<scales pt_clust_5="13000.00000" pt_clust_6="13000.00000" pt_clust_7="13000.00000" pt_clust_8="13000.00000" pt_clust_9="36.81322"></scales>
<clustering>
<clus scale="   36.813">  2  9  1 -1</clus>
<clus scale="   66.271">  5  6 -1 -1</clus>
<clus scale="   69.021">  1  5  2 -1</clus>
<clus scale="   90.724">  7  8 -1 -1</clus>
<clus scale="   36.813">  2  5  1 -1</clus>
</clustering>
</event>
<event>
 9    1  0.3197504E-005  0.9939029E+02  0.7546771E-02  0.1286571E+00
         21   -1    0    0  501  502  0.00000000000E+00  0.00000000000E+00  0.51029798331E+03  0.51029798331E+03  0.00000000000E+00 0.  1.
          1   -1    0    0  502    0 -0.00000000000E+00 -0.00000000000E+00 -0.49759546408E+02  0.49759546408E+02  0.00000000000E+00 0. -1.
         23    2    1    2    0    0  0.47507838184E+02  0.56393137251E+00  0.56437963958E+02  0.11722901555E+03  0.91104805602E+02 0.  0.
        -24    2    1    2    0    0 -0.36606624527E+01  0.52550742813E+02  0.31885994854E+03  0.33323978102E+03  0.81253331303E+02 0.  0.
         13    1    4    4    0    0 -0.83636974714E+01  0.33261740630E+02  0.36140263177E+02  0.49823824097E+02  0.00000000000E+00 0. -1.
        -14    1    4    4    0    0  0.47030350188E+01  0.19289002183E+02  0.28271968536E+03  0.28341595692E+03  0.00000000000E+00 0.  1.
        -11    1    3    3    0    0  0.17936597142E+02 -0.43561923894E+02  0.39491254463E+02  0.61472936398E+02  0.00000000000E+00 0.  1.
         11    1    3    3    0    0  0.29571241042E+02  0.44125855266E+02  0.16946709495E+02  0.55756079152E+02  0.00000000000E+00 0. -1.
          2    1    1    2  501    0 -0.43847175731E+02 -0.53114674186E+02  0.85240524403E+02  0.10958873315E+03  0.00000000000E+00 0. -1.
<scales pt_clust_5="13000.00000" pt_clust_6="13000.00000" pt_clust_7="13000.00000" pt_clust_8="13000.00000" pt_clust_9="68.87487"></scales>
<clustering>
<clus scale="   68.875">  1  9  2 -1</clus>
<clus scale="   81.253">  5  6 -1 -1</clus>
<clus scale="   90.446">  1  5  2 -1</clus>
<clus scale="   91.105">  7  8 -1 -1</clus>
<clus scale="   68.875">  1  5  2 -1</clus>
</clustering>
</event>
<event>
 9    1  0.3197504E-005  0.1375449E+03  0.7546771E-02  0.1219117E+00
         21   -1    0    0  501  502  0.00000000000E+00  0.00000000000E+00  0.36025573060E+03  0.36025573060E+03  0.00000000000E+00 0. -1.
          1   -1    0    0  502    0 -0.00000000000E+00 -0.00000000000E+00 -0.32741338797E+03  0.32741338797E+03  0.00000000000E+00 0. -1.
        -24    2    1    2    0    0 -0.96600234945E+02 -0.32503875430E+01 -0.26225737379E+02  0.12855480919E+03  0.80600119447E+02 0.  0.
         23    2    1    2    0    0  0.13648480769E+03 -0.80146822615E+02  0.27159061084E+03  0.32735646180E+03  0.91373832591E+02 0.  0.
         13    1    3    3    0    0 -0.34533786140E+02 -0.40134888330E+02 -0.44034411323E+01  0.53129859215E+02  0.00000000000E+00 0. -1.
        -14    1    3    3    0    0 -0.62066448806E+02  0.36884500787E+02 -0.21822296247E+02  0.75424949978E+02  0.00000000000E+00 0.  1.
        -11    1    4    4    0    0  0.55962192619E+02  0.61771426447E+01  0.45838845336E+02  0.72602505713E+02  0.00000000000E+00 0.  1.
         11    1    4    4    0    0  0.80522615076E+02 -0.86323965259E+02  0.22575176550E+03  0.25475395609E+03  0.00000000000E+00 0. -1.
          2    1    1    2  501    0 -0.39884572750E+02  0.83397210158E+02 -0.21252253082E+03  0.23175784757E+03  0.00000000000E+00 0. -1.
<scales pt_clust_5="13000.00000" pt_clust_6="13000.00000" pt_clust_7="13000.00000" pt_clust_8="13000.00000" pt_clust_9="92.44394"></scales>
<clustering>
<clus scale="   80.600">  5  6 -1 -1</clus>
<clus scale="   91.374">  7  8 -1 -1</clus>
<clus scale="   92.444">  1  9  2 -1</clus>
<clus scale="  130.636">  2  5  1 -1</clus>
<clus scale="   92.444">  1  5  2 -1</clus>
</clustering>
</event>
<event>
 9    1  0.3197504E-005  0.1892296E+03  0.7546771E-02  0.1193613E+00
         21   -1    0    0  501  502  0.00000000000E+00  0.00000000000E+00  0.17538329636E+03  0.17538329636E+03  0.00000000000E+00 0.  1.
          1   -1    0    0  502    0 -0.00000000000E+00 -0.00000000000E+00 -0.47842131691E+03  0.47842131691E+03  0.00000000000E+00 0. -1.
        -24    2    1    2    0    0  0.30852401925E+02  0.77897513675E+01 -0.28081304924E+03  0.29391721507E+03  0.80739146390E+02 0.  0.
         23    2    1    2    0    0  0.13901950006E+03  0.47990851265E+02 -0.47349749496E+02  0.17933493161E+03  0.91046557950E+02 0.  0.
         11    1    3    3    0    0  0.48531588592E+02  0.26746886291E+02 -0.23332509084E+03  0.23981515597E+03  0.00000000000E+00 0. -1.
        -12    1    3    3    0    0 -0.17679186667E+02 -0.18957134924E+02 -0.47487958395E+02  0.54102059095E+02  0.00000000000E+00 0.  1.
        -13    1    4    4    0    0  0.92880442625E+02  0.31987521619E+02 -0.74656068513E+02  0.12338357560E+03  0.00000000000E+00 0.  1.
         13    1    4    4    0    0  0.46139057437E+02  0.16003329645E+02  0.27306319017E+02  0.55951356009E+02  0.00000000000E+00 0. -1.
          2    1    1    2  501    0 -0.16987190199E+03 -0.55780602632E+02  0.25124778187E+02  0.18055246660E+03  0.00000000000E+00 0. -1.
<scales pt_clust_5="13000.00000" pt_clust_6="13000.00000" pt_clust_7="13000.00000" pt_clust_8="13000.00000" pt_clust_9="165.88661"></scales>
<clustering>
<clus scale="   80.739">  5  6 -1 -1</clus>
<clus scale="   86.783">  2  5  1 -1</clus>
<clus scale="   91.047">  7  8 -1 -1</clus>
<clus scale="  165.887">  1  9  2 -1</clus>
<clus scale="  165.887">  1  5  2 -1</clus>
</clustering>
</event>
<event>
 9    1  0.3197504E-005  0.1856084E+03  0.7546771E-02  0.1163968E+00
         -4   -1    0    0    0  501 -0.00000000000E+00  0.00000000000E+00  0.20164156735E+03  0.20164156735E+03  0.00000000000E+00 0.  1.
         21   -1    0    0  501  502  0.00000000000E+00 -0.00000000000E+00 -0.34836258056E+03  0.34836258056E+03  0.00000000000E+00 0. -1.
         23    2    1    2    0    0  0.77315759688E+02 -0.16816506596E+03 -0.37568449303E+02  0.20922573849E+03  0.90037798494E+02 0.  0.
        -24    2    1    2    0    0 -0.33377460321E+02  0.11950872566E+03 -0.18826660944E+03  0.23803092380E+03  0.76275907649E+02 0.  0.
         13    1    4    4    0    0 -0.31093528871E+02  0.90130895282E+02 -0.18533202624E+03  0.20841867904E+03  0.00000000000E+00 0. -1.
        -14    1    4    4    0    0 -0.22839314497E+01  0.29377830383E+02 -0.29345831910E+01  0.29612244754E+02  0.00000000000E+00 0.  1.
        -13    1    3    3    0    0  0.60633538161E+02 -0.50062858395E+02  0.12957631053E+02  0.79690751929E+02  0.00000000000E+00 0.  1.
         13    1    3    3    0    0  0.16682221527E+02 -0.11810220756E+03 -0.50526080357E+02  0.12953498656E+03  0.00000000000E+00 0. -1.
         -3    1    1    2    0  502 -0.43938299367E+02  0.48656340291E+02  0.79114045537E+02  0.10274748563E+03  0.00000000000E+00 0.  1.
<scales pt_clust_5="13000.00000" pt_clust_6="13000.00000" pt_clust_7="13000.00000" pt_clust_8="13000.00000" pt_clust_9="65.55927"></scales>
<clustering>
<clus scale="   65.559">  2  9  1 -1</clus>
<clus scale="   76.276">  5  6 -1 -1</clus>
<clus scale="   90.038">  7  8 -1 -1</clus>
<clus scale="  179.337">  2  5  1 -1</clus>
<clus scale="   65.559">  2  5  1 -1</clus>
</clustering>
</event>
<event>
 9    1  0.3197504E-005  0.2334225E+03  0.7546771E-02  0.1125677E+00
         21   -1    0    0  501  502  0.00000000000E+00  0.00000000000E+00  0.98502656925E+03  0.98502656925E+03  0.00000000000E+00 0.  1.
         -4   -1    0    0    0  501 -0.00000000000E+00 -0.00000000000E+00 -0.90665141639E+02  0.90665141639E+02  0.00000000000E+00 0.  1.
        -24    2    1    2    0    0  0.33497725380E+02  0.17808654384E+03  0.29747943713E+03  0.35560019338E+03  0.71558139414E+02 0.  0.
         23    2    1    2    0    0  0.52366035447E+02 -0.25813320106E+03  0.36133719169E+03  0.45691590125E+03  0.93982038489E+02 0.  0.
         11    1    3    3    0    0  0.15121104361E+01  0.11448542987E+03  0.12777509822E+03  0.17156828336E+03  0.00000000000E+00 0. -1.
        -12    1    3    3    0    0  0.31985614944E+02  0.63601113974E+02  0.16970433891E+03  0.18403191003E+03  0.00000000000E+00 0.  1.
        -11    1    4    4    0    0  0.68275972689E+02 -0.21376872145E+03  0.24960835224E+03  0.33565310102E+03  0.00000000000E+00 0.  1.
         11    1    4    4    0    0 -0.15909937242E+02 -0.44364479607E+02  0.11172883946E+03  0.12126280023E+03  0.00000000000E+00 0. -1.
         -3    1    1    2    0  502 -0.85863760827E+02  0.80046657219E+02  0.23554479879E+03  0.26317561625E+03  0.00000000000E+00 0.  1.
<scales pt_clust_5="13000.00000" pt_clust_6="13000.00000" pt_clust_7="13000.00000" pt_clust_8="13000.00000" pt_clust_9="117.38847"></scales>
<clustering>
<clus scale="   71.558">  5  6 -1 -1</clus>
<clus scale="   93.982">  7  8 -1 -1</clus>
<clus scale="  117.388">  1  9  2 -1</clus>
<clus scale="  225.331">  2  5  1 -1</clus>
<clus scale="  117.388">  1  5  2 -1</clus>
</clustering>
</event>
<event>
 9    1  0.3197504E-005  0.1011582E+03  0.7546771E-02  0.1282658E+00
         -2   -1    0    0    0  501 -0.00000000000E+00  0.00000000000E+00  0.39324335519E+03  0.39324335519E+03  0.00000000000E+00 0.  1.
         21   -1    0    0  501  502  0.00000000000E+00 -0.00000000000E+00 -0.10908923643E+03  0.10908923643E+03  0.00000000000E+00 0. -1.
        -24    2    1    2    0    0 -0.10127431312E+02 -0.41048249795E+02  0.16935390904E+03  0.19255445464E+03  0.81295435414E+02 0.  0.
         23    2    1    2    0    0 -0.36609907031E+02  0.63912008764E+02 -0.56963586260E+02  0.13030688056E+03  0.91159216784E+02 0.  0.
         13    1    3    3    0    0 -0.35530690324E+02  0.79582694898E+01  0.65258690039E+02  0.74729248851E+02  0.00000000000E+00 0. -1.
        -14    1    3    3    0    0  0.25403259012E+02 -0.49006519285E+02  0.10409521900E+03  0.11782520579E+03  0.00000000000E+00 0.  1.
        -13    1    4    4    0    0  0.22491374360E+02  0.32020425171E+02  0.43493417147E+01  0.39371135647E+02  0.00000000000E+00 0. -1.
         13    1    4    4    0    0 -0.59101281391E+02  0.31891583593E+02 -0.61312927975E+02  0.90935744914E+02  0.00000000000E+00 0.  1.
         -1    1    1    2    0  502  0.46737338343E+02 -0.22863758969E+02  0.17176379598E+03  0.17947125642E+03  0.00000000000E+00 0.  1.
<scales pt_clust_5="13000.00000" pt_clust_6="13000.00000" pt_clust_7="13000.00000" pt_clust_8="13000.00000" pt_clust_9="52.03012"></scales>
<clustering>
<clus scale="   52.030">  2  9  1 -1</clus>
<clus scale="   81.295">  5  6 -1 -1</clus>
<clus scale="   91.159">  7  8 -1 -1</clus>
<clus scale="   92.368">  1  5  2 -1</clus>
<clus scale="   52.030">  2  5  1 -1</clus>
</clustering>
</event>
<event>
 9    1  0.3197504E-005  0.1543530E+03  0.7546771E-02  0.1197439E+00
         -4   -1    0    0    0  501 -0.00000000000E+00  0.00000000000E+00  0.46487633607E+03  0.46487633607E+03  0.00000000000E+00 0.  1.
         21   -1    0    0  501  502  0.00000000000E+00 -0.00000000000E+00 -0.20957468122E+03  0.20957468122E+03  0.00000000000E+00 0.  1.
        -24    2    1    2    0    0 -0.11930647974E+02 -0.13761556858E+03  0.36195587927E+03  0.39574262487E+03  0.80745164100E+02 0.  0.
         23    2    1    2    0    0 -0.20851910813E+02  0.79622204223E+02  0.28799206400E+02  0.12775953223E+03  0.93373476948E+02 0.  0.
         13    1    3    3    0    0  0.33450415409E+02 -0.46513349562E+02  0.15139882549E+03  0.16187657748E+03  0.00000000000E+00 0. -1.
        -14    1    3    3    0    0 -0.45381063383E+02 -0.91102219019E+02  0.21055705378E+03  0.23386604739E+03  0.00000000000E+00 0.  1.
        -13    1    4    4    0    0 -0.46370981891E+02  0.51089916910E+02  0.48857802801E+02  0.84543080533E+02  0.00000000000E+00 0. -1.
         13    1    4    4    0    0  0.25519071078E+02  0.28532287313E+02 -0.20058596401E+02  0.43216451700E+02  0.00000000000E+00 0.  1.
         -3    1    1    2    0  502  0.32782558787E+02  0.57993364358E+02 -0.13545343082E+03  0.15094886019E+03  0.00000000000E+00 0.  1.
<scales pt_clust_5="13000.00000" pt_clust_6="13000.00000" pt_clust_7="13000.00000" pt_clust_8="13000.00000" pt_clust_9="66.61776"></scales>
<clustering>
<clus scale="   66.618">  2  9  1 -1</clus>
<clus scale="   80.745">  5  6 -1 -1</clus>
<clus scale="   93.373">  7  8 -1 -1</clus>
<clus scale="  147.058">  1  5  2 -1</clus>
<clus scale="   66.618">  2  5  1 -1</clus>
</clustering>
</event>
<event>
 9    1  0.3197504E-005  0.1223292E+03  0.7546771E-02  0.1241588E+00
         21   -1    0    0  501  502  0.00000000000E+00  0.00000000000E+00  0.48235525035E+03  0.48235525035E+03  0.00000000000E+00 0. -1.
          3   -1    0    0  502    0 -0.00000000000E+00 -0.00000000000E+00 -0.55212099660E+02  0.55212099660E+02  0.00000000000E+00 0. -1.
         23    2    1    2    0    0  0.66078998990E+02  0.25213966792E+02  0.22764625134E+03  0.25470328956E+03  0.89714947106E+02 0.  0.
        -24    2    1    2    0    0 -0.89696645851E+02 -0.32164499721E+02  0.21828358859E+03  0.25189564359E+03  0.81997846874E+02 0.  0.
         11    1    4    4    0    0 -0.98003131624E+02 -0.28520660651E+02  0.22012711412E+03  0.24263962633E+03  0.00000000000E+00 0. -1.
        -12    1    4    4    0    0  0.83064857728E+01 -0.36438390701E+01 -0.18435255377E+01  0.92560172575E+01  0.00000000000E+00 0.  1.
        -11    1    3    3    0    0  0.44682034099E+02 -0.27080077562E+02  0.14876847574E+03  0.15767648571E+03  0.00000000000E+00 0. -1.
         11    1    3    3    0    0  0.21396964892E+02  0.52294044354E+02  0.78877775597E+02  0.97026803846E+02  0.00000000000E+00 0.  1.
          4    1    1    2  501    0  0.23617646861E+02  0.69505329288E+01 -0.18786689231E+02  0.30968416871E+02  0.00000000000E+00 0. -1.
<scales pt_clust_5="13000.00000" pt_clust_6="13000.00000" pt_clust_7="13000.00000" pt_clust_8="13000.00000" pt_clust_9="24.61917"></scales>
<clustering>
<clus scale="   24.619">  1  9  2 -1</clus>
<clus scale="   81.998">  5  6 -1 -1</clus>
<clus scale="   89.715">  7  8 -1 -1</clus>
<clus scale="  116.787">  1  5  2 -1</clus>
<clus scale="   24.619">  1  5  2 -1</clus>
</clustering>
</event>
<event>
 9    1  0.3197504E-005  0.1819650E+03  0.7546771E-02  0.1167055E+00
         21   -1    0    0  501  502  0.00000000000E+00  0.00000000000E+00  0.43984516146E+03  0.43984516146E+03  0.00000000000E+00 0.  1.
         -2   -1    0    0    0  501 -0.00000000000E+00 -0.00000000000E+00 -0.26244394344E+03  0.26244394344E+03  0.00000000000E+00 0.  1.
         23    2    1    2    0    0 -0.85477549112E+02 -0.13709393365E+03 -0.17052499681E+03  0.25262223098E+03  0.92941158818E+02 0.  0.
        -24    2    1    2    0    0  0.25132626373E+01  0.12996740029E+03  0.33021560998E+03  0.36453447215E+03  0.83337810634E+02 0.  0.
         13    1    4    4    0    0  0.39536819827E+02  0.57015236453E+02  0.18900727789E+03  0.20133963446E+03  0.00000000000E+00 0. -1.
        -14    1    4    4    0    0 -0.37023557189E+02  0.72952163832E+02  0.14120833209E+03  0.16319483769E+03  0.00000000000E+00 0.  1.
        -11    1    3    3    0    0 -0.77834815296E+02 -0.11680465011E+03 -0.18058636730E+03  0.22872039877E+03  0.00000000000E+00 0.  1.
         11    1    3    3    0    0 -0.76427338153E+01 -0.20289283541E+02  0.10061370490E+02  0.23901832208E+02  0.00000000000E+00 0. -1.
         -1    1    1    2    0  502  0.82964286474E+02  0.71265333622E+01  0.17710604846E+02  0.85132401775E+02  0.00000000000E+00 0.  1.
<scales pt_clust_5="13000.00000" pt_clust_6="13000.00000" pt_clust_7="13000.00000" pt_clust_8="13000.00000" pt_clust_9="83.26985"></scales>
<clustering>
<clus scale="   83.270">  1  9  2 -1</clus>
<clus scale="   83.338">  5  6 -1 -1</clus>
<clus scale="   92.941">  7  8 -1 -1</clus>
<clus scale="  177.252">  1  5  2 -1</clus>
<clus scale="   83.270">  1  5  2 -1</clus>
</clustering>
</event>
<event>
 9    1  0.3197504E-005  0.9696581E+02  0.7546771E-02  0.1291211E+00
         21   -1    0    0  501  502  0.00000000000E+00  0.00000000000E+00  0.38216310095E+03  0.38216310095E+03  0.00000000000E+00 0.  1.
          3   -1    0    0  502    0 -0.00000000000E+00 -0.00000000000E+00 -0.46687195356E+02  0.46687195356E+02  0.00000000000E+00 0. -1.
        -24    2    1    2    0    0  0.29093145878E+02 -0.33205031654E+02  0.30850417344E+02  0.97803217898E+02  0.81637833856E+02 0.  0.
         23    2    1    2    0    0 -0.41900835570E+01  0.13999279225E+02  0.17110534109E+03  0.19387327210E+03  0.89979282427E+02 0.  0.
         13    1    3    3    0    0  0.29939434942E+02 -0.42234926404E+02 -0.12710855012E+02  0.53307828770E+02  0.00000000000E+00 0. -1.
        -14    1    3    3    0    0 -0.84628906415E+00  0.90298947500E+01  0.43561272356E+02  0.44495389128E+02  0.00000000000E+00 0.  1.
        -13    1    4    4    0    0  0.21014072969E+01  0.47891389677E+02  0.13796314947E+03  0.14605420819E+03  0.00000000000E+00 0.  1.
         13    1    4    4    0    0 -0.62914908538E+01 -0.33892110452E+02  0.33142191621E+02  0.47819063913E+02  0.00000000000E+00 0. -1.
          4    1    1    2  501    0 -0.24903062321E+02  0.19205752429E+02  0.13352014716E+03  0.13717380631E+03  0.00000000000E+00 0. -1.
<scales pt_clust_5="13000.00000" pt_clust_6="13000.00000" pt_clust_7="13000.00000" pt_clust_8="13000.00000" pt_clust_9="31.44874"></scales>
<clustering>
<clus scale="   31.449">  1  9  2 -1</clus>
<clus scale="   81.638">  5  6 -1 -1</clus>
<clus scale="   89.280">  2  5  1 -1</clus>
<clus scale="   89.979">  7  8 -1 -1</clus>
<clus scale="   31.449">  1  5  2 -1</clus>
</clustering>
</event>
<event>
 9    1  0.3197504E-005  0.1367374E+03  0.7546771E-02  0.1219851E+00
         21   -1    0    0  501  502  0.00000000000E+00  0.00000000000E+00  0.64093659601E+03  0.64093659601E+03  0.00000000000E+00 0.  1.
          1   -1    0    0  502    0 -0.00000000000E+00 -0.00000000000E+00 -0.37583386465E+02  0.37583386465E+02  0.00000000000E+00 0. -1.
         23    2    1    2    0    0 -0.83054934074E+02 -0.67639722684E+02  0.17999565871E+03  0.22830830332E+03  0.90845968827E+02 0.  0.
        -24    2    1    2    0    0  0.57909240106E+02  0.76166282385E+02  0.33195759425E+03  0.35503310904E+03  0.81840585725E+02 0.  0.
         13    1    4    4    0    0  0.74567923033E+02  0.53088209089E+02  0.29173910708E+03  0.30576206385E+03  0.00000000000E+00 0. -1.
        -14    1    4    4    0    0 -0.16658682927E+02  0.23078073296E+02  0.40218487177E+02  0.49271045196E+02  0.00000000000E+00 0.  1.
        -11    1    3    3    0    0 -0.51195848930E+02 -0.80864924446E+02  0.87838019910E+02  0.12990638435E+03  0.00000000000E+00 0. -1.
         11    1    3    3    0    0 -0.31859085144E+02  0.13225201763E+02  0.92157638800E+02  0.98401918971E+02  0.00000000000E+00 0.  1.
          2    1    1    2  501    0  0.25145693969E+02 -0.85265597012E+01  0.91399956577E+02  0.95178570108E+02  0.00000000000E+00 0. -1.
<scales pt_clust_5="13000.00000" pt_clust_6="13000.00000" pt_clust_7="13000.00000" pt_clust_8="13000.00000" pt_clust_9="26.55199"></scales>
<clustering>
<clus scale="   26.552">  1  9  2 -1</clus>
<clus scale="   81.841">  5  6 -1 -1</clus>
<clus scale="   90.846">  7  8 -1 -1</clus>
<clus scale="  130.928">  1  5  2 -1</clus>
<clus scale="   26.552">  1  5  2 -1</clus>
</clustering>
</event>
<event>
 9    1  0.3197504E-005  0.1415633E+03  0.7546771E-02  0.1213620E+00
         21   -1    0    0  501  502  0.00000000000E+00  0.00000000000E+00  0.70778069200E+02  0.70778069200E+02  0.00000000000E+00 0.  1.
          3   -1    0    0  502    0 -0.00000000000E+00 -0.00000000000E+00 -0.53229952653E+03  0.53229952653E+03  0.00000000000E+00 0. -1.
         23    2    1    2    0    0 -0.39412957311E+02 -0.97419812371E+02 -0.36751522257E+03  0.39284877020E+03  0.90657136403E+02 0.  0.
        -24    2    1    2    0    0  0.11481076694E+02  0.12501418249E+03 -0.78952381403E+02  0.16817816896E+03  0.79309879825E+02 0.  0.
         11    1    4    4    0    0  0.44637042183E+02  0.61496071010E+02 -0.49626520988E+02  0.90758051267E+02  0.00000000000E+00 0. -1.
        -12    1    4    4    0    0 -0.33155965489E+02  0.63518111483E+02 -0.29325860415E+02  0.77420117689E+02  0.00000000000E+00 0.  1.
        -13    1    3    3    0    0 -0.25332940625E+02  0.66678307899E+01 -0.32437961238E+02  0.41694594103E+02  0.00000000000E+00 0.  1.
         13    1    3    3    0    0 -0.14080016686E+02 -0.10408764316E+03 -0.33507726133E+03  0.35115417609E+03  0.00000000000E+00 0. -1.
          4    1    1    2  501    0  0.27931880617E+02 -0.27594370122E+02 -0.15053853355E+02  0.42050656571E+02  0.00000000000E+00 0. -1.
<scales pt_clust_5="13000.00000" pt_clust_6="13000.00000" pt_clust_7="13000.00000" pt_clust_8="13000.00000" pt_clust_9="39.26371"></scales>
<clustering>
<clus scale="   39.264">  1  9  2 -1</clus>
<clus scale="   79.310">  5  6 -1 -1</clus>
<clus scale="   90.657">  7  8 -1 -1</clus>
<clus scale="  134.579">  1  5  2 -1</clus>
<clus scale="   39.264">  1  5  2 -1</clus>
</clustering>
</event>
<event>
 9    1  0.3197504E-005  0.2739396E+03  0.7546771E-02  0.1099046E+00
         21   -1    0    0  501  502  0.00000000000E+00  0.00000000000E+00  0.32572182168E+03  0.32572182168E+03  0.00000000000E+00 0. -1.
          1   -1    0    0  502    0 -0.00000000000E+00 -0.00000000000E+00 -0.16120450932E+03  0.16120450932E+03  0.00000000000E+00 0. -1.
        -24    2    1    2    0    0 -0.13995468780E+03  0.79555119244E+02  0.44699437031E+02  0.18543533923E+03  0.80448080949E+02 0.  0.
         23    2    1    2    0    0 -0.22692327901E+02 -0.15434875460E+01  0.22925714409E+02  0.96727818217E+02  0.91177619713E+02 0.  0.
         13    1    3    3    0    0 -0.90537945153E+02  0.49710183274E+02  0.67476518464E+02  0.12337464236E+03  0.00000000000E+00 0. -1.
        -14    1    3    3    0    0 -0.49416742649E+02  0.29844935971E+02 -0.22777081434E+02  0.62060696868E+02  0.00000000000E+00 0.  1.
        -13    1    4    4    0    0  0.26244405552E+02 -0.13544284935E+02  0.34105783575E+02  0.45115639755E+02  0.00000000000E+00 0. -1.
         13    1    4    4    0    0 -0.48936733453E+02  0.12000797389E+02 -0.11180069166E+02  0.51612178462E+02  0.00000000000E+00 0.  1.
          2    1    1    2  501    0  0.16264701570E+03 -0.78011631698E+02  0.96892160919E+02  0.20476317356E+03  0.00000000000E+00 0. -1.
<scales pt_clust_5="13000.00000" pt_clust_6="13000.00000" pt_clust_7="13000.00000" pt_clust_8="13000.00000" pt_clust_9="180.38810"></scales>
<clustering>
<clus scale="   80.448">  5  6 -1 -1</clus>
<clus scale="   91.178">  7  8 -1 -1</clus>
<clus scale="   92.411">  5  7 -1 -1</clus>
<clus scale="  180.388">  1  9  2 -1</clus>
<clus scale="  180.388">  1  5  2 -1</clus>
</clustering>
</event>
<event>
 9    1  0.3197504E-005  0.1623635E+03  0.7546771E-02  0.1187459E+00
          1   -1    0    0  502    0 -0.00000000000E+00  0.00000000000E+00  0.36374443489E+03  0.36374443489E+03  0.00000000000E+00 0. -1.
         21   -1    0    0  501  502  0.00000000000E+00 -0.00000000000E+00 -0.17403380533E+03  0.17403380533E+03  0.00000000000E+00 0. -1.
         23    2    1    2    0    0  0.14299849087E+03 -0.75064014372E+02  0.19925605779E+03  0.27078009593E+03  0.86808462365E+02 0.  0.
        -24    2    1    2    0    0 -0.23359604411E+02  0.99444685387E+02 -0.51436940935E+02  0.13791375675E+03  0.77068338747E+02 0.  0.
         11    1    4    4    0    0 -0.19817872386E+02  0.26518562096E+02 -0.55680071427E+02  0.64778488371E+02  0.00000000000E+00 0. -1.
        -12    1    4    4    0    0 -0.35417320245E+01  0.72926123291E+02  0.42431304921E+01  0.73135268375E+02  0.00000000000E+00 0.  1.
        -13    1    3    3    0    0  0.19171334716E+02 -0.24248862283E+02  0.20565030106E+00  0.30912613750E+02  0.00000000000E+00 0.  1.
         13    1    3    3    0    0  0.12382715615E+03 -0.50815152089E+02  0.19905040749E+03  0.23986748218E+03  0.00000000000E+00 0. -1.
          2    1    1    2  501    0 -0.11963888646E+03 -0.24380671015E+02  0.41891512702E+02  0.12908438755E+03  0.00000000000E+00 0. -1.
<scales pt_clust_5="13000.00000" pt_clust_6="13000.00000" pt_clust_7="13000.00000" pt_clust_8="13000.00000" pt_clust_9="122.09783"></scales>
<clustering>
<clus scale="   77.068">  5  6 -1 -1</clus>
<clus scale="   86.808">  7  8 -1 -1</clus>
<clus scale="  122.098">  2  9  1 -1</clus>
<clus scale="  157.371">  2  5  1 -1</clus>
<clus scale="  122.098">  2  5  1 -1</clus>
</clustering>
</event>
<event>
 9    1  0.3197504E-005  0.9323901E+02  0.7546771E-02  0.1304835E+00
         -2   -1    0    0    0  501 -0.00000000000E+00  0.00000000000E+00  0.95925323745E+02  0.95925323745E+02  0.00000000000E+00 0.  1.
         21   -1    0    0  501  502  0.00000000000E+00 -0.00000000000E+00 -0.43766826828E+03  0.43766826828E+03  0.00000000000E+00 0. -1.
         23    2    1    2    0    0  0.11368421996E+02 -0.18651926064E+02  0.57368989224E+02  0.11039664604E+03  0.91755562054E+02 0.  0.
        -24    2    1    2    0    0  0.30459044849E+02 -0.59980383758E+01 -0.16871689492E+03  0.18774199986E+03  0.76275408917E+02 0.  0.
         11    1    4    4    0    0  0.35039699675E+02 -0.80912712336E+01 -0.24677396417E+02  0.43614482886E+02  0.00000000000E+00 0. -1.
        -12    1    4    4    0    0 -0.45806548261E+01  0.20932328578E+01 -0.14403949850E+03  0.14412751698E+03  0.00000000000E+00 0.  1.
        -13    1    3    3    0    0 -0.47054228837E+01 -0.46036546197E+02  0.62977543011E+02  0.78151618754E+02  0.00000000000E+00 0.  1.
         13    1    3    3    0    0  0.16073844880E+02  0.27384620133E+02 -0.56085537873E+01  0.32245027286E+02  0.00000000000E+00 0. -1.
         -1    1    1    2    0  502 -0.41827466845E+02  0.24649964440E+02 -0.23039503884E+03  0.23545494612E+03  0.00000000000E+00 0.  1.
<scales pt_clust_5="13000.00000" pt_clust_6="13000.00000" pt_clust_7="13000.00000" pt_clust_8="13000.00000" pt_clust_9="48.55057"></scales>
<clustering>
<clus scale="   48.551">  2  9  1 -1</clus>
<clus scale="   76.275">  5  6 -1 -1</clus>
<clus scale="   78.054">  2  5  1 -1</clus>
<clus scale="   91.756">  7  8 -1 -1</clus>
<clus scale="   48.551">  2  5  1 -1</clus>
</clustering>
</event>
<event>
 9    1  0.3197504E-005  0.1008541E+03  0.7546771E-02  0.1282990E+00
          1   -1    0    0  502    0 -0.00000000000E+00  0.00000000000E+00  0.43795919403E+03  0.43795919403E+03  0.00000000000E+00 0. -1.
         21   -1    0    0  501  502  0.00000000000E+00 -0.00000000000E+00 -0.62214112599E+02  0.62214112599E+02  0.00000000000E+00 0. -1.
        -24    2    1    2    0    0 -0.16691739273E+02  0.45553130446E+02  0.32226363867E+03  0.33545290060E+03  0.79505307122E+02 0.  0.
         23    2    1    2    0    0  0.37281557593E+02 -0.31561962257E+02  0.79344083582E+02  0.12882375443E+03  0.88960688548E+02 0.  0.
         11    1    3    3    0    0 -0.35005143350E+02  0.58907585551E+02  0.26852061001E+03  0.27712593111E+03  0.00000000000E+00 0. -1.
        -12    1    3    3    0    0  0.18313404077E+02 -0.13354455106E+02  0.53743028662E+02  0.58326969490E+02  0.00000000000E+00 0.  1.
        -13    1    4    4    0    0  0.62820808444E+02 -0.36668072321E+02  0.70554820184E+02  0.10133599633E+03  0.00000000000E+00 0. -1.
         13    1    4    4    0    0 -0.25539250851E+02  0.51061100640E+01  0.87892633979E+01  0.27487758095E+02  0.00000000000E+00 0.  1.
          2    1    1    2  501    0 -0.20589818320E+02 -0.13991168189E+02 -0.25862640822E+02  0.35896651599E+02  0.00000000000E+00 0. -1.
<scales pt_clust_5="13000.00000" pt_clust_6="13000.00000" pt_clust_7="13000.00000" pt_clust_8="13000.00000" pt_clust_9="24.89364"></scales>
<clustering>
<clus scale="   24.894">  2  9  1 -1</clus>
<clus scale="   79.505">  5  6 -1 -1</clus>
<clus scale="   88.961">  7  8 -1 -1</clus>
<clus scale="   92.621">  1  5  2 -1</clus>
<clus scale="   24.894">  2  5  1 -1</clus>
</clustering>
</event>
<event>
 9    1  0.3197504E-005  0.2747051E+03  0.7546771E-02  0.1123908E+00
          1   -1    0    0  502    0 -0.00000000000E+00  0.00000000000E+00  0.55875141526E+03  0.55875141526E+03  0.00000000000E+00 0. -1.
         21   -1    0    0  501  502  0.00000000000E+00 -0.00000000000E+00 -0.33945374566E+03  0.33945374566E+03  0.00000000000E+00 0. -1.
        -24    2    1    2    0    0  0.10626037237E+03  0.49591925891E+02  0.66856128685E+02  0.15916690520E+03  0.84342966034E+02 0.  0.
         23    2    1    2    0    0  0.32689759923E+02  0.18652257046E+03  0.34496684861E+03  0.40419024727E+03  0.92240661602E+02 0.  0.
         13    1    3    3    0    0  0.11998119544E+03  0.51149467209E+02  0.62890885769E+02  0.14479992668E+03  0.00000000000E+00 0. -1.
        -14    1    3    3    0    0 -0.13720823064E+02 -0.15575413182E+01  0.39652429159E+01  0.14366978523E+02  0.00000000000E+00 0.  1.
        -13    1    4    4    0    0  0.26710493048E+02  0.15244185247E+03  0.33363120047E+03  0.36777948115E+03  0.00000000000E+00 0. -1.
         13    1    4    4    0    0  0.59792668759E+01  0.34080717988E+02  0.11335648138E+02  0.36410766123E+02  0.00000000000E+00 0.  1.
          2    1    1    2  501    0 -0.13895013229E+03 -0.23611449635E+03 -0.19252530769E+03  0.33484800844E+03  0.00000000000E+00 0. -1.
<scales pt_clust_5="13000.00000" pt_clust_6="13000.00000" pt_clust_7="13000.00000" pt_clust_8="13000.00000" pt_clust_9="258.75577"></scales>
<clustering>
<clus scale="   84.343">  5  6 -1 -1</clus>
<clus scale="   92.241">  7  8 -1 -1</clus>
<clus scale="  144.445">  1  5  2 -1</clus>
<clus scale="  258.756">  2  9  1 -1</clus>
<clus scale="  258.756">  2  5  1 -1</clus>
</clustering>
</event>
<event>
 9    1  0.3197504E-005  0.1594752E+03  0.7546771E-02  0.1220262E+00
         -2   -1    0    0    0  501 -0.00000000000E+00  0.00000000000E+00  0.12639118126E+03  0.12639118126E+03  0.00000000000E+00 0.  1.
         21   -1    0    0  501  502  0.00000000000E+00 -0.00000000000E+00 -0.43770302388E+03  0.43770302388E+03  0.00000000000E+00 0. -1.
        -24    2    1    2    0    0 -0.31483974371E+02  0.75575918569E+01 -0.75835516194E+02  0.11156091836E+03  0.75142898214E+02 0.  0.
         23    2    1    2    0    0 -0.38100608590E+02  0.12135911726E+03 -0.26043794137E+03  0.30392435603E+03  0.91446165399E+02 0.  0.
         13    1    3    3    0    0 -0.20293187463E+02  0.23190431366E+02  0.24845131748E+01  0.30915730140E+02  0.00000000000E+00 0. -1.
        -14    1    3    3    0    0 -0.11190786908E+02 -0.15632839509E+02 -0.78320029369E+02  0.80645188220E+02  0.00000000000E+00 0.  1.
        -11    1    4    4    0    0 -0.19173009286E+02  0.34291032672E+02 -0.13726486663E+02  0.41616050304E+02  0.00000000000E+00 0.  1.
         11    1    4    4    0    0 -0.18927599304E+02  0.87068084591E+02 -0.24671145471E+03  0.26230830573E+03  0.00000000000E+00 0. -1.
         -1    1    1    2    0  502  0.69584582961E+02 -0.12891670912E+03  0.24961614941E+02  0.14860893074E+03  0.00000000000E+00 0.  1.
<scales pt_clust_5="13000.00000" pt_clust_6="13000.00000" pt_clust_7="13000.00000" pt_clust_8="13000.00000" pt_clust_9="130.65201"></scales>
<clustering>
<clus scale="   75.143">  5  6 -1 -1</clus>
<clus scale="   81.822">  1  5  2 -1</clus>
<clus scale="   91.446">  7  8 -1 -1</clus>
<clus scale="  130.652">  2  9  1 -1</clus>
<clus scale="  130.652">  2  5  1 -1</clus>
</clustering>
</event>
<event>
 9    1  0.3197504E-005  0.1168454E+03  0.7546771E-02  0.1251643E+00
         21   -1    0    0  501  502  0.00000000000E+00  0.00000000000E+00  0.16898030531E+03  0.16898030531E+03  0.00000000000E+00 0. -1.
          1   -1    0    0  502    0 -0.00000000000E+00 -0.00000000000E+00 -0.15097393381E+03  0.15097393381E+03  0.00000000000E+00 0. -1.
         23    2    1    2    0    0  0.16152809311E+02 -0.95795461268E+02 -0.58116206742E+02  0.14630084813E+03  0.92675568669E+02 0.  0.
        -24    2    1    2    0    0  0.31870905199E+01  0.34165048050E+02  0.32501037794E+02  0.95709960547E+02  0.83226624562E+02 0.  0.
         11    1    4    4    0    0 -0.31703815221E+02  0.13097095199E+02 -0.11072343286E+02  0.36045285240E+02  0.00000000000E+00 0. -1.
        -12    1    4    4    0    0  0.34890905741E+02  0.21067952851E+02  0.43573381080E+02  0.59664675307E+02  0.00000000000E+00 0.  1.
        -11    1    3    3    0    0  0.28440717892E+02  0.81559300584E+01 -0.12657805211E+02  0.32180951852E+02  0.00000000000E+00 0.  1.
         11    1    3    3    0    0 -0.12287908581E+02 -0.10395139133E+03 -0.45458401530E+02  0.11411989627E+03  0.00000000000E+00 0. -1.
          2    1    1    2  501    0 -0.19339899831E+02  0.61630413218E+02  0.43621540447E+02  0.77943430447E+02  0.00000000000E+00 0. -1.
<scales pt_clust_5="13000.00000" pt_clust_6="13000.00000" pt_clust_7="13000.00000" pt_clust_8="13000.00000" pt_clust_9="64.59365"></scales>
<clustering>
<clus scale="   64.594">  1  9  2 -1</clus>
<clus scale="   83.227">  5  6 -1 -1</clus>
<clus scale="   92.676">  7  8 -1 -1</clus>
<clus scale="  109.502">  1  5  2 -1</clus>
<clus scale="   64.594">  1  5  2 -1</clus>
</clustering>
</event>
<event>
 9    1  0.3197504E-005  0.1887484E+03  0.7546771E-02  0.1188398E+00
         21   -1    0    0  501  502  0.00000000000E+00  0.00000000000E+00  0.16835481561E+03  0.16835481561E+03  0.00000000000E+00 0. -1.
          1   -1    0    0  502    0 -0.00000000000E+00 -0.00000000000E+00 -0.34755981578E+03  0.34755981578E+03  0.00000000000E+00 0. -1.
         23    2    1    2    0    0 -0.24702470392E+02 -0.22028059653E+02  0.21198957738E+02  0.10037240075E+03  0.92356784090E+02 0.  0.
        -24    2    1    2    0    0 -0.15361927786E+03  0.54601070488E+02 -0.84193112656E+02  0.20021780684E+03  0.80115732070E+02 0.  0.
         13    1    4    4    0    0 -0.14551700941E+03  0.59487518347E+02 -0.96676127536E+02  0.18455416143E+03  0.00000000000E+00 0. -1.
        -14    1    4    4    0    0 -0.81022684544E+01 -0.48864478592E+01  0.12483014880E+02  0.15663645402E+02  0.00000000000E+00 0.  1.
        -13    1    3    3    0    0 -0.21206134453E+02  0.15304094212E+02  0.47740203167E+02  0.54433835402E+02  0.00000000000E+00 0. -1.
         13    1    3    3    0    0 -0.34963359383E+01 -0.37332153866E+02 -0.26541245429E+02  0.45938565347E+02  0.00000000000E+00 0.  1.
          2    1    1    2  501    0  0.17832174826E+03 -0.32573010835E+02 -0.11621084525E+03  0.21532442381E+03  0.00000000000E+00 0. -1.
<scales pt_clust_5="13000.00000" pt_clust_6="13000.00000" pt_clust_7="13000.00000" pt_clust_8="13000.00000" pt_clust_9="170.90190"></scales>
<clustering>
<clus scale="   80.116">  5  6 -1 -1</clus>
<clus scale="   92.357">  7  8 -1 -1</clus>
<clus scale="   98.108">  2  7  1 -1</clus>
<clus scale="  170.902">  1  9  2 -1</clus>
<clus scale="  170.902">  1  5  2 -1</clus>
</clustering>
</event>
<event>
 9    1  0.3197504E-005  0.1452108E+03  0.7546771E-02  0.1223993E+00
         -4   -1    0    0    0  501 -0.00000000000E+00  0.00000000000E+00  0.58109532894E+02  0.58109532894E+02  0.00000000000E+00 0.  1.
         21   -1    0    0  501  502  0.00000000000E+00 -0.00000000000E+00 -0.10764964149E+04  0.10764964149E+04  0.00000000000E+00 0.  1.
         23    2    1    2    0    0  0.38487187627E+02 -0.69015800811E+01 -0.31178424663E+02  0.10497886877E+03  0.92301534684E+02 0.  0.
        -24    2    1    2    0    0  0.93142549143E+02  0.18281519263E+02 -0.23018129093E+03  0.26115715683E+03  0.78802826505E+02 0.  0.
         11    1    4    4    0    0  0.55933823177E+02  0.40801475232E+02 -0.85149060681E+02  0.10974386311E+03  0.00000000000E+00 0. -1.
        -12    1    4    4    0    0  0.37208725966E+02 -0.22519955970E+02 -0.14503223024E+03  0.15141329372E+03  0.00000000000E+00 0.  1.
        -13    1    3    3    0    0  0.39859618200E+02 -0.46086929089E+02 -0.21252126874E+02  0.64532527399E+02  0.00000000000E+00 0.  1.
         13    1    3    3    0    0 -0.13724305721E+01  0.39185349008E+02 -0.99262977895E+01  0.40446341372E+02  0.00000000000E+00 0. -1.
         -3    1    1    2    0  502 -0.13162973677E+03 -0.11379939181E+02 -0.75702716639E+03  0.76846992216E+03  0.00000000000E+00 0.  1.
<scales pt_clust_5="13000.00000" pt_clust_6="13000.00000" pt_clust_7="13000.00000" pt_clust_8="13000.00000" pt_clust_9="121.96845"></scales>
<clustering>
<clus scale="   78.803">  5  6 -1 -1</clus>
<clus scale="   92.302">  7  8 -1 -1</clus>
<clus scale="  100.242">  1  7  2 -1</clus>
<clus scale="  121.968">  2  9  1 -1</clus>
<clus scale="  121.968">  2  5  1 -1</clus>
</clustering>
</event>
<event>
 9    1  0.3197504E-005  0.1040574E+03  0.7546771E-02  0.1278300E+00
         -2   -1    0    0    0  501 -0.00000000000E+00  0.00000000000E+00  0.29272759732E+02  0.29272759732E+02  0.00000000000E+00 0.  1.
         21   -1    0    0  501  502  0.00000000000E+00 -0.00000000000E+00 -0.51619247479E+03  0.51619247479E+03  0.00000000000E+00 0. -1.
         23    2    1    2    0    0  0.53936853494E+02 -0.20426479125E+01 -0.16167662354E+03  0.19358440959E+03  0.91772743578E+02 0.  0.
        -24    2    1    2    0    0 -0.35062034996E+02  0.38035644053E+02 -0.22452792764E+03  0.24327466130E+03  0.78062244521E+02 0.  0.
         11    1    4    4    0    0 -0.58589046092E+02  0.38121204636E+02 -0.16047353491E+03  0.17503616190E+03  0.00000000000E+00 0. -1.
        -12    1    4    4    0    0  0.23527011096E+02 -0.85560582648E-01 -0.64054392731E+02  0.68238499397E+02  0.00000000000E+00 0.  1.
        -11    1    3    3    0    0  0.67138733669E+02  0.23729089375E+02 -0.80903390551E+02  0.10777772425E+03  0.00000000000E+00 0. -1.
         11    1    3    3    0    0 -0.13201880175E+02 -0.25771737288E+02 -0.80773232986E+02  0.85806685346E+02  0.00000000000E+00 0.  1.
         -1    1    1    2    0  502 -0.18874818499E+02 -0.35992996141E+02 -0.10071516388E+03  0.10860616363E+03  0.00000000000E+00 0.  1.
<scales pt_clust_5="13000.00000" pt_clust_6="13000.00000" pt_clust_7="13000.00000" pt_clust_8="13000.00000" pt_clust_9="40.64178"></scales>
<clustering>
<clus scale="   40.642">  2  9  1 -1</clus>
<clus scale="   78.062">  5  6 -1 -1</clus>
<clus scale="   91.773">  7  8 -1 -1</clus>
<clus scale="   92.192">  2  5  1 -1</clus>
<clus scale="   40.642">  2  5  1 -1</clus>
</clustering>
</event>
<event>
 9    1  0.3197504E-005  0.2898426E+03  0.7546771E-02  0.1113389E+00
          1   -1    0    0  502    0 -0.00000000000E+00  0.00000000000E+00  0.66699813187E+03  0.66699813187E+03  0.00000000000E+00 0. -1.
         21   -1    0    0  501  502  0.00000000000E+00 -0.00000000000E+00 -0.22625040750E+03  0.22625040750E+03  0.00000000000E+00 0. -1.
         23    2    1    2    0    0 -0.10625405535E+03  0.92067663656E+02  0.44945610059E+02  0.16627415121E+03  0.76554598348E+02 0.  0.
        -24    2    1    2    0    0 -0.18381817107E+03 -0.17515026351E+03  0.31871352519E+03  0.41554660276E+03  0.81448960106E+02 0.  0.
         13    1    4    4    0    0 -0.79311786860E+02 -0.10938123923E+03  0.21674192436E+03  0.25540492713E+03  0.00000000000E+00 0. -1.
        -14    1    4    4    0    0 -0.10450638421E+03 -0.65769024283E+02  0.10197160083E+03  0.16014167562E+03  0.00000000000E+00 0.  1.
        -11    1    3    3    0    0 -0.12035673184E+02  0.24159267393E+02  0.42209097400E+02  0.50101252812E+02  0.00000000000E+00 0.  1.
         11    1    3    3    0    0 -0.94218382169E+02  0.67908396264E+02  0.27365126586E+01  0.11617289840E+03  0.00000000000E+00 0. -1.
          2    1    1    2  501    0  0.29007222642E+03  0.83082599858E+02  0.77088589124E+02  0.31142778539E+03  0.00000000000E+00 0. -1.
<scales pt_clust_5="13000.00000" pt_clust_6="13000.00000" pt_clust_7="13000.00000" pt_clust_8="13000.00000" pt_clust_9="278.16329"></scales>
<clustering>
<clus scale="   76.555">  7  8 -1 -1</clus>
<clus scale="   81.449">  5  6 -1 -1</clus>
<clus scale="  160.084">  1  7  2 -1</clus>
<clus scale="  278.163">  2  9  1 -1</clus>
<clus scale="  278.163">  2  5  1 -1</clus>
</clustering>
</event>
<event>
 9    1  0.3197504E-005  0.3296839E+03  0.7546771E-02  0.1110978E+00
         21   -1    0    0  501  502  0.00000000000E+00  0.00000000000E+00  0.57830698096E+02  0.57830698096E+02  0.00000000000E+00 0. -1.
          1   -1    0    0  502    0 -0.00000000000E+00 -0.00000000000E+00 -0.26765086761E+04  0.26765086761E+04  0.00000000000E+00 0. -1.
        -24    2    1    2    0    0  0.72513915305E+02  0.29633937621E+02 -0.25476347739E+03  0.27978055370E+03  0.85066389629E+02 0.  0.
         23    2    1    2    0    0  0.38918811157E+02 -0.32307150640E+03 -0.14216014780E+04  0.14613434904E+04  0.93188854766E+02 0.  0.
         13    1    3    3    0    0  0.38205815337E+02  0.42115237973E+02 -0.64242337915E+02  0.85793097484E+02  0.00000000000E+00 0. -1.
        -14    1    3    3    0    0  0.34308099968E+02 -0.12481300352E+02 -0.19052113948E+03  0.19398745622E+03  0.00000000000E+00 0.  1.
        -11    1    4    4    0    0 -0.30852670723E+02 -0.88033212489E+02 -0.40044329201E+03  0.41116488652E+03  0.00000000000E+00 0.  1.
         11    1    4    4    0    0  0.69771481880E+02 -0.23503829391E+03 -0.10211581860E+04  0.10501786039E+04  0.00000000000E+00 0. -1.
          2    1    1    2  501    0 -0.11143272646E+03  0.29343756878E+03 -0.94231302265E+03  0.99321533011E+03  0.00000000000E+00 0. -1.
<scales pt_clust_5="13000.00000" pt_clust_6="13000.00000" pt_clust_7="13000.00000" pt_clust_8="13000.00000" pt_clust_9="316.23932"></scales>
<clustering>
<clus scale="   85.066">  5  6 -1 -1</clus>
<clus scale="   93.189">  7  8 -1 -1</clus>
<clus scale="  115.641">  2  5  1 -1</clus>
<clus scale="  316.239">  1  9  2 -1</clus>
<clus scale="  316.239">  1  5  2 -1</clus>
</clustering>
</event>
<event>
 9    1  0.3197504E-005  0.2359052E+03  0.7546771E-02  0.1162582E+00
         -4   -1    0    0    0  501 -0.00000000000E+00  0.00000000000E+00  0.19001872328E+03  0.19001872328E+03  0.00000000000E+00 0.  1.
         21   -1    0    0  501  502  0.00000000000E+00 -0.00000000000E+00 -0.86880394928E+03  0.86880394928E+03  0.00000000000E+00 0. -1.
        -24    2    1    2    0    0 -0.47691431481E+01 -0.42305010045E+02  0.11298868388E+03  0.14457405012E+03  0.79515751167E+02 0.  0.
         23    2    1    2    0    0  0.28742330932E+02 -0.19615433966E+03 -0.35829543817E+03  0.41892937121E+03  0.88450836619E+02 0.  0.
         13    1    3    3    0    0 -0.36684933388E+02 -0.96006224219E+01  0.78978061166E+02  0.87609876350E+02  0.00000000000E+00 0. -1.
        -14    1    3    3    0    0  0.31915790240E+02 -0.32704387623E+02  0.34010622711E+02  0.56964173773E+02  0.00000000000E+00 0.  1.
        -13    1    4    4    0    0  0.60682734641E+02 -0.13152919894E+03 -0.23193242639E+03  0.27345013233E+03  0.00000000000E+00 0. -1.
         13    1    4    4    0    0 -0.31940403709E+02 -0.64625140720E+02 -0.12636301177E+03  0.14547923889E+03  0.00000000000E+00 0.  1.
         -3    1    1    2    0  502 -0.23973187784E+02  0.23845934970E+03 -0.43347847171E+03  0.49531925122E+03  0.00000000000E+00 0.  1.
<scales pt_clust_5="13000.00000" pt_clust_6="13000.00000" pt_clust_7="13000.00000" pt_clust_8="13000.00000" pt_clust_9="218.69554"></scales>
<clustering>
<clus scale="   79.516">  5  6 -1 -1</clus>
<clus scale="   88.451">  7  8 -1 -1</clus>
<clus scale="   90.195">  1  5  2 -1</clus>
<clus scale="  218.696">  2  9  1 -1</clus>
<clus scale="  218.696">  2  5  1 -1</clus>
</clustering>
</event>
<event>
 9    1  0.4897276E-005  0.9395349E+02  0.7546771E-02  0.1298170E+00
         21   -1    0    0  501  502  0.00000000000E+00  0.00000000000E+00  0.39105394855E+03  0.39105394855E+03  0.00000000000E+00 0. -1.
          1   -1    0    0  502    0 -0.00000000000E+00 -0.00000000000E+00 -0.66290582661E+02  0.66290582661E+02  0.00000000000E+00 0. -1.
         23    2    1    2    0    0  0.90655031605E+01 -0.25893404243E+02 -0.14330414751E+02  0.95794518246E+02  0.90656368823E+02 0.  0.
        -24    2    1    2    0    0 -0.24700380305E+02  0.21298018089E+01  0.17614315810E+03  0.19613519027E+03  0.82631446017E+02 0.  0.
         11    1    4    4    0    0 -0.41837800738E+02 -0.28637291220E+02  0.95100157541E+02  0.10777075662E+03  0.00000000000E+00 0. -1.
        -12    1    4    4    0    0  0.17137420433E+02  0.30767093029E+02  0.81043000563E+02  0.88364433642E+02  0.00000000000E+00 0.  1.
        -11    1    3    3    0    0  0.61077095331E+01  0.33026957754E+02 -0.15028287249E+02  0.36795834980E+02  0.00000000000E+00 0. -1.
         11    1    3    3    0    0  0.29577936274E+01 -0.58920361998E+02  0.69787249747E+00  0.58998683266E+02  0.00000000000E+00 0.  1.
          2    1    1    2  501    0  0.15634877145E+02  0.23763602434E+02  0.16295062254E+03  0.16541482270E+03  0.00000000000E+00 0. -1.
<scales pt_clust_5="13000.00000" pt_clust_6="13000.00000" pt_clust_7="13000.00000" pt_clust_8="13000.00000" pt_clust_9="28.44571"></scales>
<clustering>
<clus scale="   28.446">  1  9  2 -1</clus>
<clus scale="   82.631">  5  6 -1 -1</clus>
<clus scale="   86.236">  1  5  2 -1</clus>
<clus scale="   90.656">  7  8 -1 -1</clus>
<clus scale="   28.446">  1  5  2 -1</clus>
</clustering>
</event>
<event>
 9    1  0.3197504E-005  0.8555520E+02  0.7546771E-02  0.1314256E+00
         21   -1    0    0  501  502  0.00000000000E+00  0.00000000000E+00  0.10966450814E+03  0.10966450814E+03  0.00000000000E+00 0. -1.
          3   -1    0    0  502    0 -0.00000000000E+00 -0.00000000000E+00 -0.10821618319E+03  0.10821618319E+03  0.00000000000E+00 0. -1.
        -24    2    1    2    0    0 -0.32154358790E+02 -0.17403078090E+02 -0.64477608661E+01  0.89464762989E+02  0.81397790389E+02 0.  0.
         23    2    1    2    0    0 -0.23674799446E+01  0.17676119119E+02  0.28192208089E+02  0.88368899986E+02  0.81830383962E+02 0.  0.
         13    1    3    3    0    0  0.55735077580E+01 -0.43179744710E+02 -0.33954795716E+01  0.43670168576E+02  0.00000000000E+00 0. -1.
        -14    1    3    3    0    0 -0.37727866548E+02  0.25776666620E+02 -0.30522812945E+01  0.45794594413E+02  0.00000000000E+00 0.  1.
        -11    1    4    4    0    0  0.28849109881E+02 -0.40796228472E+01  0.39122794293E+02  0.48780195743E+02  0.00000000000E+00 0.  1.
         11    1    4    4    0    0 -0.31216589826E+02  0.21755741966E+02 -0.10930586203E+02  0.39588704242E+02  0.00000000000E+00 0. -1.
          4    1    1    2  501    0  0.34521838735E+02 -0.27304102859E+00 -0.20296122275E+02  0.40047028360E+02  0.00000000000E+00 0. -1.
<scales pt_clust_5="13000.00000" pt_clust_6="13000.00000" pt_clust_7="13000.00000" pt_clust_8="13000.00000" pt_clust_9="34.52294"></scales>
<clustering>
<clus scale="   34.523">  1  9  2 -1</clus>
<clus scale="   81.398">  5  6 -1 -1</clus>
<clus scale="   81.830">  7  8 -1 -1</clus>
<clus scale="   85.142">  2  5  1 -1</clus>
<clus scale="   34.523">  1  5  2 -1</clus>
</clustering>
</event>
<event>
 9    1  0.3197504E-005  0.1707315E+03  0.7546771E-02  0.1182383E+00
          3   -1    0    0  502    0 -0.00000000000E+00  0.00000000000E+00  0.13655532438E+03  0.13655532438E+03  0.00000000000E+00 0. -1.
         21   -1    0    0  501  502  0.00000000000E+00 -0.00000000000E+00 -0.71320728904E+03  0.71320728904E+03  0.00000000000E+00 0. -1.
        -24    2    1    2    0    0  0.10458434249E+03  0.12506378016E+03  0.16960565781E+02  0.18303014312E+03  0.81446538893E+02 0.  0.
         23    2    1    2    0    0 -0.79677363003E+02  0.78917798963E+01 -0.15608089405E+03  0.20876798322E+03  0.11319038373E+03 0.  0.
         13    1    3    3    0    0  0.75518441706E+02  0.12308835932E+03  0.35228682667E+02  0.14864332922E+03  0.00000000000E+00 0. -1.
        -14    1    3    3    0    0  0.29065900784E+02  0.19754208364E+01 -0.18268116886E+02  0.34386813904E+02  0.00000000000E+00 0.  1.
        -11    1    4    4    0    0 -0.87749457889E+02 -0.31629091544E+02 -0.80996402850E+02  0.12353454604E+03  0.00000000000E+00 0.  1.
         11    1    4    4    0    0  0.80720948860E+01  0.39520871440E+02 -0.75084491197E+02  0.85233437180E+02  0.00000000000E+00 0. -1.
          4    1    1    2  501    0 -0.24906979487E+02 -0.13295556006E+03 -0.43753163639E+03  0.45796448708E+03  0.00000000000E+00 0. -1.
<scales pt_clust_5="13000.00000" pt_clust_6="13000.00000" pt_clust_7="13000.00000" pt_clust_8="13000.00000" pt_clust_9="135.26839"></scales>
<clustering>
<clus scale="   81.447">  5  6 -1 -1</clus>
<clus scale="  113.190">  7  8 -1 -1</clus>
<clus scale="  135.268">  2  9  1 -1</clus>
<clus scale="  151.561">  1  5  2 -1</clus>
<clus scale="  135.268">  2  5  1 -1</clus>
</clustering>
</event>
<event>
 9    1  0.3197504E-005  0.9184149E+02  0.7546771E-02  0.1311319E+00
         21   -1    0    0  501  502  0.00000000000E+00  0.00000000000E+00  0.20374996790E+03  0.20374996790E+03  0.00000000000E+00 0.  1.
         -2   -1    0    0    0  501 -0.00000000000E+00 -0.00000000000E+00 -0.16092431922E+03  0.16092431922E+03  0.00000000000E+00 0.  1.
        -24    2    1    2    0    0 -0.82985243801E+01  0.22876815770E+01  0.74579388780E+00  0.71651484841E+02  0.71128616446E+02 0.  0.
         23    2    1    2    0    0  0.29837085963E+02 -0.32539434007E+02  0.14894503206E+03  0.17988905722E+03  0.90699414927E+02 0.  0.
         11    1    3    3    0    0  0.12699730679E+02  0.32470865058E+02 -0.31076633108E+00  0.34867417637E+02  0.00000000000E+00 0. -1.
        -12    1    3    3    0    0 -0.20998255059E+02 -0.30183183481E+02  0.10565602189E+01  0.36784067204E+02  0.00000000000E+00 0.  1.
        -11    1    4    4    0    0  0.49650611410E+02 -0.38512086897E+01  0.13208505819E+03  0.14116117603E+03  0.00000000000E+00 0.  1.
         11    1    4    4    0    0 -0.19813525447E+02 -0.28688225317E+02  0.16859973871E+02  0.38727881189E+02  0.00000000000E+00 0. -1.
         -1    1    1    2    0  502 -0.21538561583E+02  0.30251752430E+02 -0.10686517727E+03  0.11313374507E+03  0.00000000000E+00 0.  1.
<scales pt_clust_5="13000.00000" pt_clust_6="13000.00000" pt_clust_7="13000.00000" pt_clust_8="13000.00000" pt_clust_9="37.13596"></scales>
<clustering>
<clus scale="   37.136">  1  9  2 -1</clus>
<clus scale="   71.129">  5  6 -1 -1</clus>
<clus scale="   72.579">  2  5  1 -1</clus>
<clus scale="   90.699">  7  8 -1 -1</clus>
<clus scale="   37.136">  1  5  2 -1</clus>
</clustering>
</event>
<event>
 9    1  0.3197504E-005  0.1337492E+03  0.7546771E-02  0.1224567E+00
          1   -1    0    0  502    0 -0.00000000000E+00  0.00000000000E+00  0.43001274089E+03  0.43001274089E+03  0.00000000000E+00 0. -1.
         21   -1    0    0  501  502  0.00000000000E+00 -0.00000000000E+00 -0.30087199282E+03  0.30087199282E+03  0.00000000000E+00 0. -1.
        -24    2    1    2    0    0 -0.14793551547E+01 -0.95941791173E+02  0.37613289827E+03  0.39640242903E+03  0.80323799678E+02 0.  0.
         23    2    1    2    0    0 -0.29425447740E+02  0.13911039712E+03 -0.16002565954E+03  0.23259115747E+03  0.90955347605E+02 0.  0.
         13    1    3    3    0    0  0.66835693441E+01 -0.57925785708E+02  0.33407215865E+03  0.33912280067E+03  0.00000000000E+00 0. -1.
        -14    1    3    3    0    0 -0.81629244988E+01 -0.38016005465E+02  0.42060739627E+02  0.57279628367E+02  0.00000000000E+00 0.  1.
        -13    1    4    4    0    0 -0.19610399028E+02  0.11646001825E+02  0.54834868288E+01  0.23457743633E+02  0.00000000000E+00 0.  1.
         13    1    4    4    0    0 -0.98150487120E+01  0.12746439530E+03 -0.16550914637E+03  0.20913341384E+03  0.00000000000E+00 0. -1.
          2    1    1    2  501    0  0.30904802894E+02 -0.43168605950E+02 -0.86966490664E+02  0.10189114721E+03  0.00000000000E+00 0. -1.
<scales pt_clust_5="13000.00000" pt_clust_6="13000.00000" pt_clust_7="13000.00000" pt_clust_8="13000.00000" pt_clust_9="53.09082"></scales>
<clustering>
<clus scale="   53.091">  2  9  1 -1</clus>
<clus scale="   80.324">  5  6 -1 -1</clus>
<clus scale="   90.955">  7  8 -1 -1</clus>
<clus scale="  126.759">  1  5  2 -1</clus>
<clus scale="   53.091">  2  5  1 -1</clus>
</clustering>
</event>
<event>
 9    1  0.3197504E-005  0.1344513E+03  0.7546771E-02  0.1225401E+00
         -4   -1    0    0    0  501 -0.00000000000E+00  0.00000000000E+00  0.12209311322E+04  0.12209311322E+04  0.00000000000E+00 0.  1.
         21   -1    0    0  501  502  0.00000000000E+00 -0.00000000000E+00 -0.44110079211E+02  0.44110079211E+02  0.00000000000E+00 0.  1.
        -24    2    1    2    0    0  0.77089808917E+02 -0.33100963016E+02  0.24780158556E+03  0.27648697408E+03  0.89447798405E+02 0.  0.
         23    2    1    2    0    0 -0.20436301418E+02 -0.89864080754E+02  0.15725134701E+03  0.20500075887E+03  0.93830323333E+02 0.  0.
         11    1    3    3    0    0  0.69311938203E+02 -0.47730629280E+02  0.24578810432E+03  0.25979636251E+03  0.00000000000E+00 0. -1.
        -12    1    3    3    0    0  0.77778707135E+01  0.14629666264E+02  0.20134812375E+01  0.16690611568E+02  0.00000000000E+00 0.  1.
        -13    1    4    4    0    0 -0.50807521047E+02 -0.18782510344E+02  0.67668680442E+02  0.86678931711E+02  0.00000000000E+00 0. -1.
         13    1    4    4    0    0  0.30371219629E+02 -0.71081570410E+02  0.89582666563E+02  0.11832182716E+03  0.00000000000E+00 0.  1.
         -3    1    1    2    0  502 -0.56653507499E+02  0.12296504377E+03  0.77176812039E+03  0.78355347842E+03  0.00000000000E+00 0.  1.
<scales pt_clust_5="13000.00000" pt_clust_6="13000.00000" pt_clust_7="13000.00000" pt_clust_8="13000.00000" pt_clust_9="96.29656"></scales>
<clustering>
<clus scale="   89.448">  5  6 -1 -1</clus>
<clus scale="   93.830">  7  8 -1 -1</clus>
<clus scale="  122.635">  1  5  2 -1</clus>
<clus scale="   96.297">  2  9  1 -1</clus>
<clus scale="   96.297">  2  5  1 -1</clus>
</clustering>
</event>
<event>
 9    1  0.3197504E-005  0.5774575E+03  0.7546771E-02  0.1040480E+00
         21   -1    0    0  501  502  0.00000000000E+00  0.00000000000E+00  0.43187439727E+03  0.43187439727E+03  0.00000000000E+00 0. -1.
         -4   -1    0    0    0  501 -0.00000000000E+00 -0.00000000000E+00 -0.11881843972E+04  0.11881843972E+04  0.00000000000E+00 0.  1.
        -24    2    1    2    0    0  0.11422718184E+03 -0.47169952898E+02 -0.21476987791E+03  0.25985615936E+03  0.78270489794E+02 0.  0.
         23    2    1    2    0    0  0.83592314050E+02  0.57136839875E+03 -0.65765078773E+01  0.58553972000E+03  0.96767717649E+02 0.  0.
         13    1    3    3    0    0  0.59926139006E+02 -0.64566938556E+02 -0.11396097836E+03  0.14403866245E+03  0.00000000000E+00 0. -1.
        -14    1    3    3    0    0  0.54301042839E+02  0.17396985658E+02 -0.10080889955E+03  0.11581749691E+03  0.00000000000E+00 0.  1.
        -13    1    4    4    0    0  0.60212992663E+02  0.53882432426E+03 -0.21945422972E+02  0.54262220604E+03  0.00000000000E+00 0. -1.
         13    1    4    4    0    0  0.23379321387E+02  0.32544074492E+02  0.15368915095E+02  0.42917513957E+02  0.00000000000E+00 0.  1.
         -3    1    1    2    0  502 -0.19781949589E+03 -0.52419844585E+03 -0.53496361413E+03  0.77466291510E+03  0.00000000000E+00 0.  1.
<scales pt_clust_5="13000.00000" pt_clust_6="13000.00000" pt_clust_7="13000.00000" pt_clust_8="13000.00000" pt_clust_9="569.29208"></scales>
<clustering>
<clus scale="   78.270">  5  6 -1 -1</clus>
<clus scale="   96.768">  7  8 -1 -1</clus>
<clus scale="  146.284">  2  5  1 -1</clus>
<clus scale="  569.292">  1  9  2 -1</clus>
<clus scale="  569.292">  1  5  2 -1</clus>
</clustering>
</event>
<event>
 9    1  0.3197504E-005  0.1184304E+03  0.7546771E-02  0.1253164E+00
          1   -1    0    0  502    0 -0.00000000000E+00  0.00000000000E+00  0.76062022120E+03  0.76062022120E+03  0.00000000000E+00 0. -1.
         21   -1    0    0  501  502  0.00000000000E+00 -0.00000000000E+00 -0.33256832874E+02  0.33256832874E+02  0.00000000000E+00 0. -1.
        -24    2    1    2    0    0 -0.58204937540E+02 -0.44280805619E+02  0.42181181017E+03  0.43515118130E+03  0.77991941198E+02 0.  0.
         23    2    1    2    0    0  0.98659452351E+00  0.69200493719E+02  0.23832269186E+03  0.26699445621E+03  0.98481736828E+02 0.  0.
         11    1    3    3    0    0 -0.60989427524E+02 -0.62953184619E+02  0.33191575003E+03  0.34329415789E+03  0.00000000000E+00 0. -1.
        -12    1    3    3    0    0  0.27844899839E+01  0.18672379000E+02  0.89896060141E+02  0.91857023416E+02  0.00000000000E+00 0.  1.
        -11    1    4    4    0    0 -0.39322898468E+02  0.18779679003E+02  0.42757191941E+02  0.61050341113E+02  0.00000000000E+00 0. -1.
         11    1    4    4    0    0  0.40309492992E+02  0.50420814716E+02  0.19556549992E+03  0.20594411509E+03  0.00000000000E+00 0.  1.
          2    1    1    2  501    0  0.57218343016E+02 -0.24919688100E+02  0.67228886298E+02  0.91731416567E+02  0.00000000000E+00 0. -1.
<scales pt_clust_5="13000.00000" pt_clust_6="13000.00000" pt_clust_7="13000.00000" pt_clust_8="13000.00000" pt_clust_9="62.40937"></scales>
<clustering>
<clus scale="   62.409">  2  9  1 -1</clus>
<clus scale="   77.992">  5  6 -1 -1</clus>
<clus scale="   98.482">  7  8 -1 -1</clus>
<clus scale="  102.029">  1  5  2 -1</clus>
<clus scale="   62.409">  2  5  1 -1</clus>
</clustering>
</event>
<event>
 9    1  0.3197504E-005  0.2924821E+03  0.7546771E-02  0.1089548E+00
         21   -1    0    0  501  502  0.00000000000E+00  0.00000000000E+00  0.26962009777E+04  0.26962009777E+04  0.00000000000E+00 0. -1.
         -4   -1    0    0    0  501 -0.00000000000E+00 -0.00000000000E+00 -0.41392358835E+02  0.41392358835E+02  0.00000000000E+00 0.  1.
         23    2    1    2    0    0 -0.80390832495E+01  0.25064544387E+03  0.98439345279E+03  0.10199211671E+04  0.91219251500E+02 0.  0.
        -24    2    1    2    0    0  0.48560781298E+02 -0.30931798879E+03  0.12362183645E+04  0.12776592855E+04  0.78368599304E+02 0.  0.
         13    1    4    4    0    0  0.46772299994E+02 -0.28491394606E+03  0.11978217345E+04  0.12321284480E+04  0.00000000000E+00 0. -1.
        -14    1    4    4    0    0  0.17884813045E+01 -0.24404042736E+02  0.38396630057E+02  0.45530837539E+02  0.00000000000E+00 0.  1.
        -11    1    3    3    0    0 -0.18458500726E+02  0.21481169592E+03  0.92486129962E+03  0.94965952030E+03  0.00000000000E+00 0.  1.
         11    1    3    3    0    0  0.10419417477E+02  0.35833747955E+02  0.59532153167E+02  0.70261646819E+02  0.00000000000E+00 0. -1.
         -3    1    1    2    0  502 -0.40521698049E+02  0.58672544922E+02  0.43419680152E+03  0.44001288389E+03  0.00000000000E+00 0.  1.
<scales pt_clust_5="13000.00000" pt_clust_6="13000.00000" pt_clust_7="13000.00000" pt_clust_8="13000.00000" pt_clust_9="71.30551"></scales>
<clustering>
<clus scale="   71.306">  1  9  2 -1</clus>
<clus scale="   78.369">  5  6 -1 -1</clus>
<clus scale="   91.219">  7  8 -1 -1</clus>
<clus scale="  288.732">  1  5  2 -1</clus>
<clus scale="   71.306">  1  5  2 -1</clus>
</clustering>
</event>
<event>
 9    1  0.3197504E-005  0.9674403E+02  0.7546771E-02  0.1292621E+00
          1   -1    0    0  502    0 -0.00000000000E+00  0.00000000000E+00  0.85695282137E+03  0.85695282137E+03  0.00000000000E+00 0. -1.
         21   -1    0    0  501  502  0.00000000000E+00 -0.00000000000E+00 -0.20468997571E+02  0.20468997571E+02  0.00000000000E+00 0. -1.
        -24    2    1    2    0    0 -0.31704375005E+02  0.30130305652E+02  0.45304167413E+03  0.46210195993E+03  0.79865262516E+02 0.  0.
         23    2    1    2    0    0  0.27896246595E+02  0.16357741574E+02  0.15410734460E+03  0.18128974729E+03  0.89839426364E+02 0.  0.
         13    1    3    3    0    0 -0.45564731787E+02  0.46735856946E+02  0.39069581890E+03  0.39611060073E+03  0.00000000000E+00 0. -1.
        -14    1    3    3    0    0  0.13860356782E+02 -0.16605551294E+02  0.62345855237E+02  0.65991359200E+02  0.00000000000E+00 0.  1.
        -13    1    4    4    0    0  0.41297513879E+01  0.48583782885E+02  0.11676862137E+03  0.12653991363E+03  0.00000000000E+00 0.  1.
         13    1    4    4    0    0  0.23766495207E+02 -0.32226041311E+02  0.37338723232E+02  0.54749833658E+02  0.00000000000E+00 0. -1.
          2    1    1    2  501    0  0.38081284106E+01 -0.46488047226E+02  0.22933480507E+03  0.23403011173E+03  0.00000000000E+00 0. -1.
<scales pt_clust_5="13000.00000" pt_clust_6="13000.00000" pt_clust_7="13000.00000" pt_clust_8="13000.00000" pt_clust_9="46.64378"></scales>
<clustering>
<clus scale="   46.644">  2  9  1 -1</clus>
<clus scale="   79.865">  5  6 -1 -1</clus>
<clus scale="   87.560">  1  5  2 -1</clus>
<clus scale="   89.839">  7  8 -1 -1</clus>
<clus scale="   46.644">  2  5  1 -1</clus>
</clustering>
</event>
<event>
 9    1  0.3197504E-005  0.1346596E+03  0.7546771E-02  0.1223467E+00
         21   -1    0    0  501  502  0.00000000000E+00  0.00000000000E+00  0.15432959167E+03  0.15432959167E+03  0.00000000000E+00 0.  1.
          3   -1    0    0  502    0 -0.00000000000E+00 -0.00000000000E+00 -0.16105175974E+03  0.16105175974E+03  0.00000000000E+00 0. -1.
        -24    2    1    2    0    0 -0.94493667112E+02  0.76252055658E+01 -0.64186084615E+02  0.13968799770E+03  0.80035531861E+02 0.  0.
         23    2    1    2    0    0  0.10638127481E+03 -0.24767126375E+02  0.38861428688E+02  0.14774316193E+03  0.91582995564E+02 0.  0.
         11    1    3    3    0    0 -0.68070866377E+02 -0.27298849326E+02 -0.61668989376E+02  0.95822410085E+02  0.00000000000E+00 0. -1.
        -12    1    3    3    0    0 -0.26422800735E+02  0.34924054892E+02 -0.25170952392E+01  0.43865587620E+02  0.00000000000E+00 0.  1.
        -11    1    4    4    0    0  0.55756265653E+02 -0.27064662800E+02  0.65764924049E+02  0.90367485122E+02  0.00000000000E+00 0.  1.
         11    1    4    4    0    0  0.50625009160E+02  0.22975364253E+01 -0.26903495361E+02  0.57375676804E+02  0.00000000000E+00 0. -1.
          4    1    1    2  501    0 -0.11887607701E+02  0.17141920809E+02  0.18602487854E+02  0.27950191775E+02  0.00000000000E+00 0. -1.
<scales pt_clust_5="13000.00000" pt_clust_6="13000.00000" pt_clust_7="13000.00000" pt_clust_8="13000.00000" pt_clust_9="20.86050"></scales>
<clustering>
<clus scale="   20.861">  1  9  2 -1</clus>
<clus scale="   80.036">  5  6 -1 -1</clus>
<clus scale="   91.583">  7  8 -1 -1</clus>
<clus scale="  127.088">  2  5  1 -1</clus>
<clus scale="   20.861">  1  5  2 -1</clus>
</clustering>
</event>
<event>
 9    1  0.3197504E-005  0.2356434E+03  0.7546771E-02  0.1156218E+00
         21   -1    0    0  501  502  0.00000000000E+00  0.00000000000E+00  0.99388615534E+03  0.99388615534E+03  0.00000000000E+00 0. -1.
          1   -1    0    0  502    0 -0.00000000000E+00 -0.00000000000E+00 -0.89640916209E+02  0.89640916209E+02  0.00000000000E+00 0. -1.
        -24    2    1    2    0    0 -0.29179765580E+02 -0.57919726375E+02  0.34652386162E+03  0.36207195520E+03  0.82529756150E+02 0.  0.
         23    2    1    2    0    0  0.50444268067E+02 -0.18387665121E+03  0.21474961000E+03  0.30127979510E+03  0.91087171980E+02 0.  0.
         11    1    3    3    0    0 -0.52677728334E+02 -0.38404574015E+02  0.29548767522E+03  0.30259349063E+03  0.00000000000E+00 0. -1.
        -12    1    3    3    0    0  0.23497962753E+02 -0.19515152360E+02  0.51036186399E+02  0.59478464568E+02  0.00000000000E+00 0.  1.
        -13    1    4    4    0    0  0.84554020727E+01 -0.16187577344E+03  0.18168126476E+03  0.24348170735E+03  0.00000000000E+00 0. -1.
         13    1    4    4    0    0  0.41988865994E+02 -0.22000877767E+02  0.33068345238E+02  0.57798087743E+02  0.00000000000E+00 0.  1.
          2    1    1    2  501    0 -0.21264502487E+02  0.24179637758E+03  0.34297176751E+03  0.42017532125E+03  0.00000000000E+00 0. -1.
<scales pt_clust_5="13000.00000" pt_clust_6="13000.00000" pt_clust_7="13000.00000" pt_clust_8="13000.00000" pt_clust_9="217.32679"></scales>
<clustering>
<clus scale="   82.530">  5  6 -1 -1</clus>
<clus scale="   91.087">  7  8 -1 -1</clus>
<clus scale="  104.963">  2  5  1 -1</clus>
<clus scale="  217.327">  1  9  2 -1</clus>
<clus scale="  217.327">  1  5  2 -1</clus>
</clustering>
</event>
<event>
 9    1  0.3197504E-005  0.2868894E+03  0.7546771E-02  0.1092318E+00
         21   -1    0    0  501  502  0.00000000000E+00  0.00000000000E+00  0.74267751500E+02  0.74267751500E+02  0.00000000000E+00 0. -1.
          1   -1    0    0  502    0 -0.00000000000E+00 -0.00000000000E+00 -0.22359606046E+04  0.22359606046E+04  0.00000000000E+00 0. -1.
        -24    2    1    2    0    0  0.16419980365E+03  0.24716804068E+03 -0.17346645596E+04  0.17618550493E+04  0.83776276827E+02 0.  0.
         23    2    1    2    0    0 -0.94925700434E+02 -0.15587333643E+03 -0.16593406959E+03  0.26323506286E+03  0.91930393528E+02 0.  0.
         11    1    3    3    0    0  0.15658758752E+03  0.24048032216E+03 -0.15139011327E+04  0.15408592076E+04  0.00000000000E+00 0. -1.
        -12    1    3    3    0    0  0.76122161263E+01  0.66877185264E+01 -0.22076342682E+03  0.22099584167E+03  0.00000000000E+00 0.  1.
        -13    1    4    4    0    0 -0.35490068395E+02 -0.12402266257E+03 -0.72401947736E+02  0.14792973948E+03  0.00000000000E+00 0. -1.
         13    1    4    4    0    0 -0.59435632039E+02 -0.31850673858E+02 -0.93532121855E+02  0.11530532338E+03  0.00000000000E+00 0.  1.
          2    1    1    2  501    0 -0.69274103213E+02 -0.91294704255E+02 -0.26109422396E+03  0.28513824399E+03  0.00000000000E+00 0. -1.
<scales pt_clust_5="13000.00000" pt_clust_6="13000.00000" pt_clust_7="13000.00000" pt_clust_8="13000.00000" pt_clust_9="114.60203"></scales>
<clustering>
<clus scale="   83.776">  5  6 -1 -1</clus>
<clus scale="   91.930">  7  8 -1 -1</clus>
<clus scale="  114.602">  1  9  2 -1</clus>
<clus scale="  284.381">  2  5  1 -1</clus>
<clus scale="  114.602">  1  5  2 -1</clus>
</clustering>
</event>
<event>
 9    1  0.3197504E-005  0.1078821E+03  0.7546771E-02  0.1266137E+00
         21   -1    0    0  501  502  0.00000000000E+00  0.00000000000E+00  0.48678765378E+02  0.48678765378E+02  0.00000000000E+00 0.  1.
          1   -1    0    0  502    0 -0.00000000000E+00 -0.00000000000E+00 -0.33367248736E+03  0.33367248736E+03  0.00000000000E+00 0. -1.
        -24    2    1    2    0    0 -0.63515836735E+02  0.23596121263E+02 -0.17789332441E+03  0.20855314280E+03  0.85190023163E+02 0.  0.
         23    2    1    2    0    0  0.51983305293E+02  0.67033463472E+01 -0.72234373124E+02  0.12618827188E+03  0.89210293234E+02 0.  0.
         11    1    3    3    0    0 -0.62762297854E+02 -0.18163021947E+02 -0.12606343040E+03  0.14198940060E+03  0.00000000000E+00 0. -1.
        -12    1    3    3    0    0 -0.75353888151E+00  0.41759143210E+02 -0.51829894007E+02  0.66563742197E+02  0.00000000000E+00 0.  1.
        -11    1    4    4    0    0  0.62584930281E+02 -0.11845565444E+02 -0.15486279262E+02  0.65551626710E+02  0.00000000000E+00 0.  1.
         11    1    4    4    0    0 -0.10601624988E+02  0.18548911791E+02 -0.56748093862E+02  0.60636645174E+02  0.00000000000E+00 0. -1.
          2    1    1    2  501    0  0.11532531442E+02 -0.30299467611E+02 -0.34866024447E+02  0.47609838056E+02  0.00000000000E+00 0. -1.
<scales pt_clust_5="13000.00000" pt_clust_6="13000.00000" pt_clust_7="13000.00000" pt_clust_8="13000.00000" pt_clust_9="32.42001"></scales>
<clustering>
<clus scale="   32.420">  1  9  2 -1</clus>
<clus scale="   85.190">  5  6 -1 -1</clus>
<clus scale="   89.210">  7  8 -1 -1</clus>
<clus scale="  104.582">  2  5  1 -1</clus>
<clus scale="   32.420">  1  5  2 -1</clus>
</clustering>
</event>
<event>
 9    1  0.3197504E-005  0.9274656E+02  0.7546771E-02  0.1298530E+00
         21   -1    0    0  501  502  0.00000000000E+00  0.00000000000E+00  0.10400413026E+03  0.10400413026E+03  0.00000000000E+00 0. -1.
          1   -1    0    0  502    0 -0.00000000000E+00 -0.00000000000E+00 -0.17703926825E+03  0.17703926825E+03  0.00000000000E+00 0. -1.
        -24    2    1    2    0    0  0.32290464848E+02 -0.15923156394E+02 -0.81483730473E+02  0.12052511801E+03  0.81181800361E+02 0.  0.
         23    2    1    2    0    0 -0.40873124353E+02 -0.36247486510E+01 -0.43683393371E+02  0.10418421811E+03  0.85219489257E+02 0.  0.
         11    1    3    3    0    0  0.39424316796E+02  0.21148757428E+02 -0.65970788372E+02  0.79710047133E+02  0.00000000000E+00 0. -1.
        -12    1    3    3    0    0 -0.71338519475E+01 -0.37071913822E+02 -0.15512942101E+02  0.40815070876E+02  0.00000000000E+00 0.  1.
        -13    1    4    4    0    0 -0.25098631729E+01 -0.40502838529E+02 -0.25604310434E+02  0.47982914197E+02  0.00000000000E+00 0. -1.
         13    1    4    4    0    0 -0.38363261180E+02  0.36878089878E+02 -0.18079082937E+02  0.56201303910E+02  0.00000000000E+00 0.  1.
          2    1    1    2  501    0  0.85826595047E+01  0.19547905045E+02  0.52131985858E+02  0.56334062390E+02  0.00000000000E+00 0. -1.
<scales pt_clust_5="13000.00000" pt_clust_6="13000.00000" pt_clust_7="13000.00000" pt_clust_8="13000.00000" pt_clust_9="21.34907"></scales>
<clustering>
<clus scale="   21.349">  1  9  2 -1</clus>
<clus scale="   81.182">  5  6 -1 -1</clus>
<clus scale="   85.219">  7  8 -1 -1</clus>
<clus scale="   89.051">  2  5  1 -1</clus>
<clus scale="   21.349">  1  5  2 -1</clus>
</clustering>
</event>
<event>
 9    1  0.3197504E-005  0.9170968E+02  0.7546771E-02  0.1305977E+00
          1   -1    0    0  502    0 -0.00000000000E+00  0.00000000000E+00  0.44115394283E+03  0.44115394283E+03  0.00000000000E+00 0. -1.
         21   -1    0    0  501  502  0.00000000000E+00 -0.00000000000E+00 -0.25729538866E+02  0.25729538866E+02  0.00000000000E+00 0.  1.
         23    2    1    2    0    0  0.12948620109E+02  0.83101971608E+01  0.17473862657E+03  0.19774192116E+03  0.91277344553E+02 0.  0.
        -24    2    1    2    0    0  0.44617760275E+01  0.23221586849E+02  0.14991662816E+03  0.17148699715E+03  0.79835112910E+02 0.  0.
         11    1    4    4    0    0  0.19152666504E+02  0.21487722672E+02  0.15357437667E+03  0.15624863529E+03  0.00000000000E+00 0. -1.
        -12    1    4    4    0    0 -0.14690890476E+02  0.17338641769E+01 -0.36577485173E+01  0.15238361860E+02  0.00000000000E+00 0.  1.
        -13    1    3    3    0    0  0.31725312622E+02 -0.46905803808E+01  0.17173882426E+03  0.17470752921E+03  0.00000000000E+00 0.  1.
         13    1    3    3    0    0 -0.18776692513E+02  0.13000777542E+02  0.29998023086E+01  0.23034391946E+02  0.00000000000E+00 0. -1.
          2    1    1    2  501    0 -0.17410396136E+02 -0.31531784010E+02  0.90769149241E+02  0.97654563388E+02  0.00000000000E+00 0. -1.
<scales pt_clust_5="13000.00000" pt_clust_6="13000.00000" pt_clust_7="13000.00000" pt_clust_8="13000.00000" pt_clust_9="36.01911"></scales>
<clustering>
<clus scale="   36.019">  2  9  1 -1</clus>
<clus scale="   79.835">  5  6 -1 -1</clus>
<clus scale="   80.329">  2  5  1 -1</clus>
<clus scale="   91.277">  7  8 -1 -1</clus>
<clus scale="   36.019">  2  5  1 -1</clus>
</clustering>
</event>
<event>
 9    1  0.3197504E-005  0.1104562E+03  0.7546771E-02  0.1263853E+00
         -4   -1    0    0    0  501 -0.00000000000E+00  0.00000000000E+00  0.44683248321E+03  0.44683248321E+03  0.00000000000E+00 0.  1.
         21   -1    0    0  501  502  0.00000000000E+00 -0.00000000000E+00 -0.81640298659E+02  0.81640298659E+02  0.00000000000E+00 0.  1.
        -24    2    1    2    0    0  0.11384736059E+02  0.66086172564E+02  0.20241175750E+03  0.22808612033E+03  0.80967674379E+02 0.  0.
         23    2    1    2    0    0 -0.50973849678E+02 -0.40551591138E+02  0.20716367234E+03  0.23566274612E+03  0.91528016883E+02 0.  0.
         13    1    3    3    0    0  0.20722321479E+02  0.15351001253E+02  0.80819853886E+01  0.27025660673E+02  0.00000000000E+00 0. -1.
        -14    1    3    3    0    0 -0.93375854197E+01  0.50735171310E+02  0.19432977211E+03  0.20106045966E+03  0.00000000000E+00 0.  1.
        -13    1    4    4    0    0  0.34840683936E+01  0.20985799836E+02  0.90483288436E+02  0.92950352412E+02  0.00000000000E+00 0.  1.
         13    1    4    4    0    0 -0.54457918071E+02 -0.61537390974E+02  0.11668038391E+03  0.14271239370E+03  0.00000000000E+00 0. -1.
         -3    1    1    2    0  502  0.39589113618E+02 -0.25534581426E+02 -0.44383245287E+02  0.64723915425E+02  0.00000000000E+00 0.  1.
<scales pt_clust_5="13000.00000" pt_clust_6="13000.00000" pt_clust_7="13000.00000" pt_clust_8="13000.00000" pt_clust_9="47.10958"></scales>
<clustering>
<clus scale="   47.110">  2  9  1 -1</clus>
<clus scale="   80.968">  5  6 -1 -1</clus>
<clus scale="   91.528">  7  8 -1 -1</clus>
<clus scale="  101.877">  1  5  2 -1</clus>
<clus scale="   47.110">  2  5  1 -1</clus>
</clustering>
</event>
<event>
 9    1  0.3197504E-005  0.1017988E+03  0.7546771E-02  0.1278885E+00
         21   -1    0    0  501  502  0.00000000000E+00  0.00000000000E+00  0.27050416240E+03  0.27050416240E+03  0.00000000000E+00 0.  1.
         -2   -1    0    0    0  501 -0.00000000000E+00 -0.00000000000E+00 -0.73358924587E+02  0.73358924587E+02  0.00000000000E+00 0.  1.
         23    2    1    2    0    0 -0.44268642032E+02 -0.41570291013E+02 -0.88627564305E+01  0.10476491540E+03  0.84907816391E+02 0.  0.
        -24    2    1    2    0    0  0.43387993233E+02  0.13032624058E+02  0.14118835131E+03  0.16826908090E+03  0.79548512214E+02 0.  0.
         11    1    4    4    0    0  0.13579054567E+02  0.45340643307E+02  0.66916644405E+02  0.81963418407E+02  0.00000000000E+00 0. -1.
        -12    1    4    4    0    0  0.29808938666E+02 -0.32308019250E+02  0.74271706900E+02  0.86305662492E+02  0.00000000000E+00 0.  1.
        -11    1    3    3    0    0 -0.62987177847E+02 -0.51583307068E+02  0.85408101706E+00  0.81418373821E+02  0.00000000000E+00 0.  1.
         11    1    3    3    0    0  0.18718535815E+02  0.10013016056E+02 -0.97168374476E+01  0.23346541576E+02  0.00000000000E+00 0. -1.
         -1    1    1    2    0  502  0.88064879862E+00  0.28537666955E+02  0.64819642939E+02  0.70829090692E+02  0.00000000000E+00 0.  1.
<scales pt_clust_5="13000.00000" pt_clust_6="13000.00000" pt_clust_7="13000.00000" pt_clust_8="13000.00000" pt_clust_9="28.55125"></scales>
<clustering>
<clus scale="   28.551">  1  9  2 -1</clus>
<clus scale="   79.549">  5  6 -1 -1</clus>
<clus scale="   84.908">  7  8 -1 -1</clus>
<clus scale="   97.374">  1  5  2 -1</clus>
<clus scale="   28.551">  1  5  2 -1</clus>
</clustering>
</event>
<event>
 9    1  0.3197504E-005  0.1919579E+03  0.7546771E-02  0.1157759E+00
         21   -1    0    0  501  502  0.00000000000E+00  0.00000000000E+00  0.58220488690E+03  0.58220488690E+03  0.00000000000E+00 0.  1.
         -2   -1    0    0    0  501 -0.00000000000E+00 -0.00000000000E+00 -0.16135712068E+03  0.16135712068E+03  0.00000000000E+00 0.  1.
        -24    2    1    2    0    0  0.17119853307E+03 -0.10734343883E+03  0.26624246143E+02  0.21962204545E+03  0.81813451106E+02 0.  0.
         23    2    1    2    0    0 -0.60098623542E+01  0.14313363668E+03  0.24576771561E+03  0.29897916316E+03  0.91996812823E+02 0.  0.
         11    1    3    3    0    0  0.24065689613E+02 -0.57728921002E+02  0.11749097093E+02  0.63638251227E+02  0.00000000000E+00 0. -1.
        -12    1    3    3    0    0  0.14713284345E+03 -0.49614517829E+02  0.14875149050E+02  0.15598379423E+03  0.00000000000E+00 0.  1.
        -11    1    4    4    0    0 -0.11956838133E+02  0.10229638986E+03  0.86642972857E+02  0.13459020062E+03  0.00000000000E+00 0.  1.
         11    1    4    4    0    0  0.59469757791E+01  0.40837246827E+02  0.15912474275E+03  0.16438896254E+03  0.00000000000E+00 0. -1.
         -1    1    1    2    0  502 -0.16518867071E+03 -0.35790197854E+02  0.14845580447E+03  0.22496079897E+03  0.00000000000E+00 0.  1.
<scales pt_clust_5="13000.00000" pt_clust_6="13000.00000" pt_clust_7="13000.00000" pt_clust_8="13000.00000" pt_clust_9="169.02140"></scales>
<clustering>
<clus scale="   81.813">  5  6 -1 -1</clus>
<clus scale="   91.997">  7  8 -1 -1</clus>
<clus scale="  169.021">  1  9  2 -1</clus>
<clus scale="  187.291">  2  5  1 -1</clus>
<clus scale="  169.021">  1  5  2 -1</clus>
</clustering>
</event>
<event>
 9    1  0.3197504E-005  0.1227770E+03  0.7546771E-02  0.1250105E+00
          3   -1    0    0  502    0 -0.00000000000E+00  0.00000000000E+00  0.28226605948E+03  0.28226605948E+03  0.00000000000E+00 0. -1.
         21   -1    0    0  501  502  0.00000000000E+00 -0.00000000000E+00 -0.86572649163E+02  0.86572649163E+02  0.00000000000E+00 0.  1.
        -24    2    1    2    0    0  0.32560411766E+02 -0.42837813878E+02  0.48259404616E+02  0.10863367541E+03  0.81098992518E+02 0.  0.
         23    2    1    2    0    0  0.64738164908E+02  0.22555531232E+02  0.72128616971E+02  0.13550825868E+03  0.91979175899E+02 0.  0.
         13    1    3    3    0    0 -0.26388476001E+02 -0.38983926112E+01  0.13546856105E+02  0.29917661021E+02  0.00000000000E+00 0. -1.
        -14    1    3    3    0    0  0.58948887767E+02 -0.38939421267E+02  0.34712548511E+02  0.78716014392E+02  0.00000000000E+00 0.  1.
        -13    1    4    4    0    0  0.57152881755E+01  0.48405083785E+02  0.42158264726E+02  0.64444052789E+02  0.00000000000E+00 0.  1.
         13    1    4    4    0    0  0.59022876732E+02 -0.25849552553E+02  0.29970352245E+02  0.71064205889E+02  0.00000000000E+00 0. -1.
          4    1    1    2  501    0 -0.97298576674E+02  0.20282282646E+02  0.75305388729E+02  0.12469677455E+03  0.00000000000E+00 0. -1.
<scales pt_clust_5="13000.00000" pt_clust_6="13000.00000" pt_clust_7="13000.00000" pt_clust_8="13000.00000" pt_clust_9="81.32665"></scales>
<clustering>
<clus scale="   81.099">  5  6 -1 -1</clus>
<clus scale="   91.979">  7  8 -1 -1</clus>
<clus scale="   97.326">  1  5  2 -1</clus>
<clus scale="   81.327">  2  9  1 -1</clus>
<clus scale="   81.327">  2  5  1 -1</clus>
</clustering>
</event>
<event>
 9    1  0.3197504E-005  0.1833606E+03  0.7546771E-02  0.1181067E+00
         21   -1    0    0  501  502  0.00000000000E+00  0.00000000000E+00  0.15818321851E+04  0.15818321851E+04  0.00000000000E+00 0. -1.
          1   -1    0    0  502    0 -0.00000000000E+00 -0.00000000000E+00 -0.87015166669E+02  0.87015166669E+02  0.00000000000E+00 0. -1.
        -24    2    1    2    0    0  0.35582365460E+02 -0.93037277576E+02  0.64161761664E+02  0.14140848570E+03  0.77185415831E+02 0.  0.
         23    2    1    2    0    0  0.11944611580E+03  0.13370225850E+03  0.18997622581E+03  0.27645048542E+03  0.90499922690E+02 0.  0.
         13    1    3    3    0    0  0.42437047903E+02 -0.11232378143E+02  0.23685753850E+02  0.49880700565E+02  0.00000000000E+00 0. -1.
        -14    1    3    3    0    0 -0.68546824430E+01 -0.81804899433E+02  0.40476007813E+02  0.91527785132E+02  0.00000000000E+00 0.  1.
        -13    1    4    4    0    0  0.12411143091E+03  0.10188936340E+03  0.12339725322E+03  0.20251412730E+03  0.00000000000E+00 0. -1.
         13    1    4    4    0    0 -0.46653151069E+01  0.31812895105E+02  0.66578972596E+02  0.73936358119E+02  0.00000000000E+00 0.  1.
          2    1    1    2  501    0 -0.15502848126E+03 -0.40664980926E+02  0.12406790309E+04  0.12509883806E+04  0.00000000000E+00 0. -1.
<scales pt_clust_5="13000.00000" pt_clust_6="13000.00000" pt_clust_7="13000.00000" pt_clust_8="13000.00000" pt_clust_9="159.47059"></scales>
<clustering>
<clus scale="   77.185">  5  6 -1 -1</clus>
<clus scale="   90.500">  7  8 -1 -1</clus>
<clus scale="  126.014">  2  5  1 -1</clus>
<clus scale="  159.471">  1  9  2 -1</clus>
<clus scale="  159.471">  1  5  2 -1</clus>
</clustering>
</event>
<event>
 9    1  0.3197504E-005  0.1303125E+03  0.7546771E-02  0.1230508E+00
         -2   -1    0    0    0  501 -0.00000000000E+00  0.00000000000E+00  0.50030558365E+02  0.50030558365E+02  0.00000000000E+00 0.  1.
         21   -1    0    0  501  502  0.00000000000E+00 -0.00000000000E+00 -0.53703288239E+03  0.53703288239E+03  0.00000000000E+00 0.  1.
        -24    2    1    2    0    0 -0.48019282620E+02 -0.91472070991E+02 -0.95881401280E+02  0.16178442588E+03  0.79422705003E+02 0.  0.
         23    2    1    2    0    0  0.16335269860E+02  0.70303013604E+02 -0.21450003463E+03  0.24459436204E+03  0.92772745562E+02 0.  0.
         11    1    3    3    0    0 -0.36076659473E+02 -0.86368427386E+02 -0.10876195942E+03  0.14349283754E+03  0.00000000000E+00 0. -1.
        -12    1    3    3    0    0 -0.11942623148E+02 -0.51036436057E+01  0.12880558145E+02  0.18291588335E+02  0.00000000000E+00 0.  1.
        -13    1    4    4    0    0  0.59553511913E+01  0.90141306044E+02 -0.19497732202E+03  0.21488852311E+03  0.00000000000E+00 0.  1.
         13    1    4    4    0    0  0.10379918669E+02 -0.19838292440E+02 -0.19522712617E+02  0.29705838928E+02  0.00000000000E+00 0. -1.
         -1    1    1    2    0  502  0.31684012760E+02  0.21169057387E+02 -0.17662088811E+03  0.18068465284E+03  0.00000000000E+00 0.  1.
<scales pt_clust_5="13000.00000" pt_clust_6="13000.00000" pt_clust_7="13000.00000" pt_clust_8="13000.00000" pt_clust_9="38.10519"></scales>
<clustering>
<clus scale="   38.105">  2  9  1 -1</clus>
<clus scale="   79.423">  5  6 -1 -1</clus>
<clus scale="   92.773">  7  8 -1 -1</clus>
<clus scale="  121.171">  1  5  2 -1</clus>
<clus scale="   38.105">  2  5  1 -1</clus>
</clustering>
</event>
<event>
 9    1  0.3197504E-005  0.1901484E+03  0.7546771E-02  0.1171792E+00
          1   -1    0    0  502    0 -0.00000000000E+00  0.00000000000E+00  0.54739740731E+03  0.54739740731E+03  0.00000000000E+00 0. -1.
         21   -1    0    0  501  502  0.00000000000E+00 -0.00000000000E+00 -0.14985244148E+03  0.14985244148E+03  0.00000000000E+00 0. -1.
        -24    2    1    2    0    0  0.76993338405E+02 -0.83829616056E+02  0.90117333469E+02  0.16596698860E+03  0.80427164731E+02 0.  0.
         23    2    1    2    0    0 -0.22578989929E+03  0.78632474347E+02  0.28011236632E+03  0.37991063496E+03  0.93300633155E+02 0.  0.
         11    1    3    3    0    0  0.32428103468E+02  0.10925262659E+02  0.16663199511E+02  0.38060550136E+02  0.00000000000E+00 0. -1.
        -12    1    3    3    0    0  0.44565234937E+02 -0.94754878714E+02  0.73454133958E+02  0.12790643846E+03  0.00000000000E+00 0.  1.
        -13    1    4    4    0    0 -0.12094564235E+03  0.54578725113E+02  0.86413473063E+02  0.15834763644E+03  0.00000000000E+00 0.  1.
         13    1    4    4    0    0 -0.10484425694E+03  0.24053749234E+02  0.19369889326E+03  0.22156299853E+03  0.00000000000E+00 0. -1.
          2    1    1    2  501    0  0.14879656089E+03  0.51971417089E+01  0.27315266038E+02  0.15137222523E+03  0.00000000000E+00 0. -1.
<scales pt_clust_5="13000.00000" pt_clust_6="13000.00000" pt_clust_7="13000.00000" pt_clust_8="13000.00000" pt_clust_9="165.68461"></scales>
<clustering>
<clus scale="   80.427">  5  6 -1 -1</clus>
<clus scale="   93.301">  7  8 -1 -1</clus>
<clus scale="  139.370">  1  5  2 -1</clus>
<clus scale="  165.685">  2  9  1 -1</clus>
<clus scale="  165.685">  2  5  1 -1</clus>
</clustering>
</event>
<event>
 9    1  0.3197504E-005  0.9497841E+02  0.7546771E-02  0.1297472E+00
          1   -1    0    0  502    0 -0.00000000000E+00  0.00000000000E+00  0.74991060139E+03  0.74991060139E+03  0.00000000000E+00 0. -1.
         21   -1    0    0  501  502  0.00000000000E+00 -0.00000000000E+00 -0.41096695265E+02  0.41096695265E+02  0.00000000000E+00 0.  1.
        -24    2    1    2    0    0 -0.24670844431E+01  0.35027181108E+02  0.47749115546E+03  0.48526030469E+03  0.79036509584E+02 0.  0.
         23    2    1    2    0    0 -0.16094080215E+02  0.13412842228E+02  0.29089845941E+02  0.96966963109E+02  0.90096886978E+02 0.  0.
         11    1    3    3    0    0 -0.40725034956E+02  0.19811399453E+02  0.24430897442E+03  0.24847111502E+03  0.00000000000E+00 0. -1.
        -12    1    3    3    0    0  0.38257950513E+02  0.15215781655E+02  0.23318218104E+03  0.23678918967E+03  0.00000000000E+00 0.  1.
        -11    1    4    4    0    0 -0.33567310732E+02  0.44279607720E+02  0.26048485684E+02  0.61367512709E+02  0.00000000000E+00 0. -1.
         11    1    4    4    0    0  0.17473230516E+02 -0.30866765492E+02  0.30413602571E+01  0.35599450401E+02  0.00000000000E+00 0.  1.
          2    1    1    2  501    0  0.18561164658E+02 -0.48440023336E+02  0.20223290473E+03  0.20878002886E+03  0.00000000000E+00 0. -1.
<scales pt_clust_5="13000.00000" pt_clust_6="13000.00000" pt_clust_7="13000.00000" pt_clust_8="13000.00000" pt_clust_9="51.87442"></scales>
<clustering>
<clus scale="   51.874">  2  9  1 -1</clus>
<clus scale="   79.037">  5  6 -1 -1</clus>
<clus scale="   84.559">  1  5  2 -1</clus>
<clus scale="   90.097">  7  8 -1 -1</clus>
<clus scale="   51.874">  2  5  1 -1</clus>
</clustering>
</event>
<event>
 9    1  0.3197504E-005  0.1005144E+03  0.7546771E-02  0.1284195E+00
         21   -1    0    0  501  502  0.00000000000E+00  0.00000000000E+00  0.47859184284E+02  0.47859184284E+02  0.00000000000E+00 0. -1.
          1   -1    0    0  502    0 -0.00000000000E+00 -0.00000000000E+00 -0.75704346870E+03  0.75704346870E+03  0.00000000000E+00 0. -1.
         23    2    1    2    0    0 -0.34096482852E+02  0.34308256885E+02 -0.47049071501E+03  0.48149980262E+03  0.90227049014E+02 0.  0.
        -24    2    1    2    0    0  0.97289935404E+01 -0.41583439079E+02 -0.26897820156E+03  0.28385715836E+03  0.80011109983E+02 0.  0.
         13    1    4    4    0    0  0.71323701981E+01  0.20928907796E+02 -0.12398047214E+03  0.12593667996E+03  0.00000000000E+00 0. -1.
        -14    1    4    4    0    0  0.25966233423E+01 -0.62512346875E+02 -0.14499772941E+03  0.15792047840E+03  0.00000000000E+00 0.  1.
        -13    1    3    3    0    0 -0.62771299430E+02  0.37977557654E+02 -0.32771131664E+03  0.33582322429E+03  0.00000000000E+00 0.  1.
         13    1    3    3    0    0  0.28674816578E+02 -0.36693007688E+01 -0.14277939837E+03  0.14567657833E+03  0.00000000000E+00 0. -1.
          2    1    1    2  501    0  0.24367489312E+02  0.72751821935E+01  0.30284632153E+02  0.39545692003E+02  0.00000000000E+00 0. -1.
<scales pt_clust_5="13000.00000" pt_clust_6="13000.00000" pt_clust_7="13000.00000" pt_clust_8="13000.00000" pt_clust_9="25.43035"></scales>
<clustering>
<clus scale="   25.430">  1  9  2 -1</clus>
<clus scale="   80.011">  5  6 -1 -1</clus>
<clus scale="   90.227">  7  8 -1 -1</clus>
<clus scale="   91.455">  1  5  2 -1</clus>
<clus scale="   25.430">  1  5  2 -1</clus>
</clustering>
</event>
<event>
 9    1  0.3197504E-005  0.9788512E+02  0.7546771E-02  0.1290735E+00
          1   -1    0    0  502    0 -0.00000000000E+00  0.00000000000E+00  0.32519471769E+03  0.32519471769E+03  0.00000000000E+00 0. -1.
         21   -1    0    0  501  502  0.00000000000E+00 -0.00000000000E+00 -0.18716378871E+03  0.18716378871E+03  0.00000000000E+00 0. -1.
        -24    2    1    2    0    0  0.87207060085E+01 -0.32918669966E+02  0.27910900632E+03  0.29257622066E+03  0.80866049357E+02 0.  0.
         23    2    1    2    0    0  0.24340625195E+02  0.34787409704E+02 -0.32641306714E+02  0.10640205363E+03  0.91941895801E+02 0.  0.
         13    1    3    3    0    0  0.41051638144E+02 -0.35696127589E+02  0.19426868982E+03  0.20174185080E+03  0.00000000000E+00 0. -1.
        -14    1    3    3    0    0 -0.32330932135E+02  0.27774576226E+01  0.84840316500E+02  0.90834369857E+02  0.00000000000E+00 0.  1.
        -13    1    4    4    0    0 -0.28851438637E+02  0.62080533234E+01  0.11428074634E+02  0.31647216740E+02  0.00000000000E+00 0.  1.
         13    1    4    4    0    0  0.53192063832E+02  0.28579356380E+02 -0.44069381348E+02  0.74754836888E+02  0.00000000000E+00 0. -1.
          2    1    1    2  501    0 -0.33061331203E+02 -0.18687397380E+01 -0.10843677063E+03  0.11338023211E+03  0.00000000000E+00 0. -1.
<scales pt_clust_5="13000.00000" pt_clust_6="13000.00000" pt_clust_7="13000.00000" pt_clust_8="13000.00000" pt_clust_9="33.11410"></scales>
<clustering>
<clus scale="   33.114">  2  9  1 -1</clus>
<clus scale="   80.866">  5  6 -1 -1</clus>
<clus scale="   87.564">  1  5  2 -1</clus>
<clus scale="   91.942">  7  8 -1 -1</clus>
<clus scale="   33.114">  2  5  1 -1</clus>
</clustering>
</event>
<event>
 9    1  0.3197504E-005  0.3047999E+03  0.7546771E-02  0.1083292E+00
          1   -1    0    0  502    0 -0.00000000000E+00  0.00000000000E+00  0.37641634638E+03  0.37641634638E+03  0.00000000000E+00 0. -1.
         21   -1    0    0  501  502  0.00000000000E+00 -0.00000000000E+00 -0.33104389804E+03  0.33104389804E+03  0.00000000000E+00 0. -1.
        -24    2    1    2    0    0  0.95225109635E+01 -0.33520216177E+03  0.61474699390E+02  0.35048821315E+03  0.81312246464E+02 0.  0.
         23    2    1    2    0    0 -0.13054287019E+02  0.24331826107E+03 -0.34484434519E+02  0.26320087730E+03  0.93334532768E+02 0.  0.
         13    1    3    3    0    0 -0.28285786237E+02 -0.23073468047E+03  0.26251685212E+02  0.23393958505E+03  0.00000000000E+00 0. -1.
        -14    1    3    3    0    0  0.37808297200E+02 -0.10446748129E+03  0.35223014178E+02  0.11654862810E+03  0.00000000000E+00 0.  1.
        -13    1    4    4    0    0 -0.17372504373E+02  0.17738223712E+03 -0.65915228948E+02  0.19002915398E+03  0.00000000000E+00 0. -1.
         13    1    4    4    0    0  0.43182173545E+01  0.65936023945E+02  0.31430794429E+02  0.73171723318E+02  0.00000000000E+00 0.  1.
          2    1    1    2  501    0  0.35317760551E+01  0.91883900697E+02  0.18382183470E+02  0.93771153979E+02  0.00000000000E+00 0. -1.
<scales pt_clust_5="13000.00000" pt_clust_6="13000.00000" pt_clust_7="13000.00000" pt_clust_8="13000.00000" pt_clust_9="91.95180"></scales>
<clustering>
<clus scale="   81.312">  5  6 -1 -1</clus>
<clus scale="   91.952">  2  9  1 -1</clus>
<clus scale="   93.335">  7  8 -1 -1</clus>
<clus scale="  301.336">  1  5  2 -1</clus>
<clus scale="   91.952">  2  5  1 -1</clus>
</clustering>
</event>
<event>
 9    1  0.3197504E-005  0.1727133E+03  0.7546771E-02  0.1207973E+00
          1   -1    0    0  502    0 -0.00000000000E+00  0.00000000000E+00  0.81192273664E+03  0.81192273664E+03  0.00000000000E+00 0. -1.
         21   -1    0    0  501  502  0.00000000000E+00 -0.00000000000E+00 -0.61274892064E+02  0.61274892064E+02  0.00000000000E+00 0.  1.
        -24    2    1    2    0    0 -0.19452624455E+02  0.62616943634E+01  0.13987549860E+03  0.16294904414E+03  0.81053207605E+02 0.  0.
         23    2    1    2    0    0 -0.74595100738E+01 -0.14736984358E+03  0.15711740610E+03  0.23439295810E+03  0.92090522963E+02 0.  0.
         11    1    3    3    0    0 -0.50924162415E+02 -0.16259534102E+01  0.90803741797E+02  0.10412124455E+03  0.00000000000E+00 0. -1.
        -12    1    3    3    0    0  0.31471537960E+02  0.78876477736E+01  0.49071756803E+02  0.58827799591E+02  0.00000000000E+00 0.  1.
        -11    1    4    4    0    0  0.24361704949E+02 -0.11870646423E+03  0.14677313063E+03  0.19033409887E+03  0.00000000000E+00 0. -1.
         11    1    4    4    0    0 -0.31821215022E+02 -0.28663379350E+02  0.10344275464E+02  0.44058859224E+02  0.00000000000E+00 0.  1.
          2    1    1    2  501    0  0.26912134529E+02  0.14110814922E+03  0.45365493988E+03  0.47585562647E+03  0.00000000000E+00 0. -1.
<scales pt_clust_5="13000.00000" pt_clust_6="13000.00000" pt_clust_7="13000.00000" pt_clust_8="13000.00000" pt_clust_9="146.11385"></scales>
<clustering>
<clus scale="   81.053">  5  6 -1 -1</clus>
<clus scale="   83.590">  1  5  2 -1</clus>
<clus scale="   92.091">  7  8 -1 -1</clus>
<clus scale="  146.114">  2  9  1 -1</clus>
<clus scale="  146.114">  2  5  1 -1</clus>
</clustering>
</event>
<event>
 9    1  0.3197504E-005  0.1306251E+03  0.7546771E-02  0.1247495E+00
         21   -1    0    0  501  502  0.00000000000E+00  0.00000000000E+00  0.77981917289E+02  0.77981917289E+02  0.00000000000E+00 0.  1.
         -2   -1    0    0    0  501 -0.00000000000E+00 -0.00000000000E+00 -0.54738706275E+03  0.54738706275E+03  0.00000000000E+00 0.  1.
        -24    2    1    2    0    0  0.26688025920E+01 -0.26434386052E+02 -0.37125479801E+03  0.38089464421E+03  0.80899355194E+02 0.  0.
         23    2    1    2    0    0  0.56219238005E+02 -0.54652824922E+02 -0.69339173138E+02  0.14020055737E+03  0.93277764564E+02 0.  0.
         13    1    3    3    0    0 -0.18189269320E+02  0.19704942973E+02 -0.62423139781E+02  0.67939551633E+02  0.00000000000E+00 0. -1.
        -14    1    3    3    0    0  0.20858071912E+02 -0.46139329025E+02 -0.30883165823E+03  0.31295509258E+03  0.00000000000E+00 0.  1.
        -13    1    4    4    0    0  0.52324030927E+02 -0.80006465894E+02 -0.48758361722E+02  0.10731363676E+03  0.00000000000E+00 0.  1.
         13    1    4    4    0    0  0.38952070783E+01  0.25353640971E+02 -0.20580811416E+02  0.32886920610E+02  0.00000000000E+00 0. -1.
         -1    1    1    2    0  502 -0.58888040597E+02  0.81087210974E+02 -0.28811174320E+02  0.10427377846E+03  0.00000000000E+00 0.  1.
<scales pt_clust_5="13000.00000" pt_clust_6="13000.00000" pt_clust_7="13000.00000" pt_clust_8="13000.00000" pt_clust_9="91.44488"></scales>
<clustering>
<clus scale="   80.899">  5  6 -1 -1</clus>
<clus scale="   85.150">  2  5  1 -1</clus>
<clus scale="   91.445">  1  9  2 -1</clus>
<clus scale="   93.278">  7  8 -1 -1</clus>
<clus scale="   91.445">  1  5  2 -1</clus>
</clustering>
</event>
<event>
 9    1  0.3197504E-005  0.1771082E+03  0.7546771E-02  0.1184312E+00
         21   -1    0    0  501  502  0.00000000000E+00  0.00000000000E+00  0.85807835884E+02  0.85807835884E+02  0.00000000000E+00 0. -1.
          1   -1    0    0  502    0 -0.00000000000E+00 -0.00000000000E+00 -0.12496387960E+04  0.12496387960E+04  0.00000000000E+00 0. -1.
        -24    2    1    2    0    0  0.90672505445E+02  0.45057765327E+02 -0.57579882899E+03  0.59030130636E+03  0.81606589013E+02 0.  0.
         23    2    1    2    0    0 -0.18152235516E+03  0.71746001984E+02 -0.55228675480E+03  0.59291343928E+03  0.91803228326E+02 0.  0.
         11    1    3    3    0    0  0.76037663582E+02  0.52401240600E+02 -0.29707002124E+03  0.31109197004E+03  0.00000000000E+00 0. -1.
        -12    1    3    3    0    0  0.14634841863E+02 -0.73434752733E+01 -0.27872880774E+03  0.27920933633E+03  0.00000000000E+00 0.  1.
        -13    1    4    4    0    0 -0.12943015967E+02  0.42716156283E+02 -0.11567350384E+03  0.12398609261E+03  0.00000000000E+00 0.  1.
         13    1    4    4    0    0 -0.16857933919E+03  0.29029845701E+02 -0.43661325096E+03  0.46892734667E+03  0.00000000000E+00 0. -1.
          2    1    1    2  501    0  0.90849849715E+02 -0.11680376731E+03 -0.35745376297E+02  0.15223188621E+03  0.00000000000E+00 0. -1.
<scales pt_clust_5="13000.00000" pt_clust_6="13000.00000" pt_clust_7="13000.00000" pt_clust_8="13000.00000" pt_clust_9="151.45785"></scales>
<clustering>
<clus scale="   81.607">  5  6 -1 -1</clus>
<clus scale="   91.803">  7  8 -1 -1</clus>
<clus scale="  130.044">  2  5  1 -1</clus>
<clus scale="  151.458">  1  9  2 -1</clus>
<clus scale="  151.458">  1  5  2 -1</clus>
</clustering>
</event>
<event>
 9    1  0.3197504E-005  0.1814801E+03  0.7546771E-02  0.1194802E+00
          1   -1    0    0  502    0 -0.00000000000E+00  0.00000000000E+00  0.43816499520E+03  0.43816499520E+03  0.00000000000E+00 0. -1.
         21   -1    0    0  501  502  0.00000000000E+00 -0.00000000000E+00 -0.12750158154E+03  0.12750158154E+03  0.00000000000E+00 0. -1.
        -24    2    1    2    0    0  0.37662598987E+02  0.36464205048E+02  0.17000442712E+02  0.97343956414E+02  0.80241642466E+02 0.  0.
         23    2    1    2    0    0 -0.12122193638E+03  0.98502894307E+02  0.23972536297E+03  0.30066956689E+03  0.92392428031E+02 0.  0.
         11    1    3    3    0    0  0.42521100031E+02  0.21762697353E+02 -0.24043488902E+02  0.53476614539E+02  0.00000000000E+00 0. -1.
        -12    1    3    3    0    0 -0.48585010436E+01  0.14701507695E+02  0.41043931614E+02  0.43867341876E+02  0.00000000000E+00 0.  1.
        -13    1    4    4    0    0 -0.17185645800E-01  0.45634300371E+02  0.90020922349E+02  0.10092698413E+03  0.00000000000E+00 0.  1.
         13    1    4    4    0    0 -0.12120475074E+03  0.52868593936E+02  0.14970444062E+03  0.19974258276E+03  0.00000000000E+00 0. -1.
          2    1    1    2  501    0  0.83559337394E+02 -0.13496709936E+03  0.53937607981E+02  0.16765305344E+03  0.00000000000E+00 0. -1.
<scales pt_clust_5="13000.00000" pt_clust_6="13000.00000" pt_clust_7="13000.00000" pt_clust_8="13000.00000" pt_clust_9="156.20072"></scales>
<clustering>
<clus scale="   80.242">  5  6 -1 -1</clus>
<clus scale="   92.392">  7  8 -1 -1</clus>
<clus scale="   95.848">  1  5  2 -1</clus>
<clus scale="  156.201">  2  9  1 -1</clus>
<clus scale="  156.201">  2  5  1 -1</clus>
</clustering>
</event>
<event>
 9    1  0.3197504E-005  0.2767860E+03  0.7546771E-02  0.1139025E+00
         21   -1    0    0  501  502  0.00000000000E+00  0.00000000000E+00  0.21683906932E+03  0.21683906932E+03  0.00000000000E+00 0. -1.
          1   -1    0    0  502    0 -0.00000000000E+00 -0.00000000000E+00 -0.58965817413E+03  0.58965817413E+03  0.00000000000E+00 0. -1.
         23    2    1    2    0    0  0.22422769496E+02  0.27378161190E+02  0.57992941542E+02  0.11345256376E+03  0.90862306003E+02 0.  0.
        -24    2    1    2    0    0 -0.13608270339E+03 -0.24693590175E+03 -0.20179636750E+03  0.35603968986E+03  0.80911340898E+02 0.  0.
         11    1    4    4    0    0 -0.30586893124E+02 -0.13847748173E+03 -0.10439621903E+03  0.17609696626E+03  0.00000000000E+00 0. -1.
        -12    1    4    4    0    0 -0.10549581026E+03 -0.10845842002E+03 -0.97400148470E+02  0.17994272361E+03  0.00000000000E+00 0.  1.
        -11    1    3    3    0    0  0.17328113086E+00  0.33419174840E+02  0.76763410676E+02  0.83722711924E+02  0.00000000000E+00 0.  1.
         11    1    3    3    0    0  0.22249488365E+02 -0.60410136495E+01 -0.18770469134E+02  0.29729851832E+02  0.00000000000E+00 0. -1.
          2    1    1    2  501    0  0.11365993389E+03  0.21955774056E+03 -0.22901567885E+03  0.33700498984E+03  0.00000000000E+00 0. -1.
<scales pt_clust_5="13000.00000" pt_clust_6="13000.00000" pt_clust_7="13000.00000" pt_clust_8="13000.00000" pt_clust_9="264.69588"></scales>
<clustering>
<clus scale="   80.911">  5  6 -1 -1</clus>
<clus scale="   90.862">  7  8 -1 -1</clus>
<clus scale="   97.511">  2  7  1 -1</clus>
<clus scale="  264.696">  1  9  2 -1</clus>
<clus scale="  264.696">  1  5  2 -1</clus>
</clustering>
</event>
<event>
 9    1  0.3554552E-005  0.9828217E+02  0.7546771E-02  0.1290019E+00
         21   -1    0    0  501  502  0.00000000000E+00  0.00000000000E+00  0.29653183753E+03  0.29653183753E+03  0.00000000000E+00 0.  1.
          1   -1    0    0  502    0 -0.00000000000E+00 -0.00000000000E+00 -0.14430176401E+03  0.14430176401E+03  0.00000000000E+00 0. -1.
         23    2    1    2    0    0 -0.35006826155E+02  0.60393594223E+01 -0.11091170620E+03  0.14815111825E+03  0.91571805301E+02 0.  0.
        -24    2    1    2    0    0  0.30613065448E+02 -0.38043740391E+02  0.21651986356E+03  0.23596221707E+03  0.80080151159E+02 0.  0.
         13    1    4    4    0    0 -0.17675087095E+02 -0.41492244528E+02  0.95300198058E+02  0.10543312008E+03  0.00000000000E+00 0. -1.
        -14    1    4    4    0    0  0.48288152543E+02  0.34485041371E+01  0.12121966550E+03  0.13052909699E+03  0.00000000000E+00 0.  1.
        -11    1    3    3    0    0 -0.88010138047E+01  0.38103505844E+02 -0.96801434789E+02  0.10440236003E+03  0.00000000000E+00 0. -1.
         11    1    3    3    0    0 -0.26205812350E+02 -0.32064146422E+02 -0.14110271410E+02  0.43748758222E+02  0.00000000000E+00 0.  1.
          2    1    1    2  501    0  0.43937607066E+01  0.32004380969E+02  0.46621916155E+02  0.56720266222E+02  0.00000000000E+00 0. -1.
<scales pt_clust_5="13000.00000" pt_clust_6="13000.00000" pt_clust_7="13000.00000" pt_clust_8="13000.00000" pt_clust_9="32.30457"></scales>
<clustering>
<clus scale="   32.305">  1  9  2 -1</clus>
<clus scale="   80.080">  5  6 -1 -1</clus>
<clus scale="   87.675">  1  5  2 -1</clus>
<clus scale="   91.572">  7  8 -1 -1</clus>
<clus scale="   32.305">  1  5  2 -1</clus>
</clustering>
</event>
<event>
 9    1  0.3197504E-005  0.9470216E+02  0.7546771E-02  0.1299876E+00
          1   -1    0    0  502    0 -0.00000000000E+00  0.00000000000E+00  0.61256332540E+03  0.61256332540E+03  0.00000000000E+00 0. -1.
         21   -1    0    0  501  502  0.00000000000E+00 -0.00000000000E+00 -0.26892746813E+02  0.26892746813E+02  0.00000000000E+00 0. -1.
         23    2    1    2    0    0 -0.91899894763E+00  0.11216939793E+02  0.25186971029E+03  0.26907691825E+03  0.94007301181E+02 0.  0.
        -24    2    1    2    0    0  0.28242129298E+02  0.31172795305E+02  0.11966745250E+03  0.15038696580E+03  0.80787246887E+02 0.  0.
         13    1    4    4    0    0  0.55303866586E+02  0.28826440120E+02  0.95316843768E+02  0.11390690065E+03  0.00000000000E+00 0. -1.
        -14    1    4    4    0    0 -0.27061737288E+02  0.23463551845E+01  0.24350608735E+02  0.36480065152E+02  0.00000000000E+00 0.  1.
        -13    1    3    3    0    0  0.25220256373E+02  0.44712026331E+02  0.11961713874E+03  0.13016714836E+03  0.00000000000E+00 0. -1.
         13    1    3    3    0    0 -0.26139255321E+02 -0.33495086537E+02  0.13225257155E+03  0.13890976989E+03  0.00000000000E+00 0.  1.
          2    1    1    2  501    0 -0.27323130350E+02 -0.42389735098E+02  0.21413341580E+03  0.21999218817E+03  0.00000000000E+00 0. -1.
<scales pt_clust_5="13000.00000" pt_clust_6="13000.00000" pt_clust_7="13000.00000" pt_clust_8="13000.00000" pt_clust_9="50.43259"></scales>
<clustering>
<clus scale="   50.433">  2  9  1 -1</clus>
<clus scale="   80.787">  5  6 -1 -1</clus>
<clus scale="   81.595">  2  5  1 -1</clus>
<clus scale="   94.007">  7  8 -1 -1</clus>
<clus scale="   50.433">  2  5  1 -1</clus>
</clustering>
</event>
<event>
 9    1  0.3197504E-005  0.9392261E+02  0.7546771E-02  0.1300670E+00
         -2   -1    0    0    0  501 -0.00000000000E+00  0.00000000000E+00  0.32638016789E+03  0.32638016789E+03  0.00000000000E+00 0.  1.
         21   -1    0    0  501  502  0.00000000000E+00 -0.00000000000E+00 -0.86263940092E+02  0.86263940092E+02  0.00000000000E+00 0.  1.
        -24    2    1    2    0    0  0.18674884585E+01  0.75036682927E+01  0.20735525308E+03  0.22261667662E+03  0.80636165455E+02 0.  0.
         23    2    1    2    0    0  0.24477767926E+02 -0.56473439686E+02  0.62077195671E+02  0.12716606123E+03  0.92353767621E+02 0.  0.
         13    1    3    3    0    0 -0.69994134526E+01 -0.35966261383E+02  0.93712425681E+02  0.10062098426E+03  0.00000000000E+00 0. -1.
        -14    1    3    3    0    0  0.88669019111E+01  0.43469929675E+02  0.11364282740E+03  0.12199569236E+03  0.00000000000E+00 0.  1.
        -11    1    4    4    0    0 -0.18352839306E+02  0.17107967597E+02  0.81303196289E+01  0.26374445267E+02  0.00000000000E+00 0. -1.
         11    1    4    4    0    0  0.42830607232E+02 -0.73581407283E+02  0.53946876042E+02  0.10079161596E+03  0.00000000000E+00 0.  1.
         -1    1    1    2    0  502 -0.26345256385E+02  0.48969771393E+02 -0.29316220950E+02  0.62861370134E+02  0.00000000000E+00 0.  1.
<scales pt_clust_5="13000.00000" pt_clust_6="13000.00000" pt_clust_7="13000.00000" pt_clust_8="13000.00000" pt_clust_9="55.60675"></scales>
<clustering>
<clus scale="   55.607">  2  9  1 -1</clus>
<clus scale="   80.636">  5  6 -1 -1</clus>
<clus scale="   82.428">  1  5  2 -1</clus>
<clus scale="   92.354">  7  8 -1 -1</clus>
<clus scale="   55.607">  2  5  1 -1</clus>
</clustering>
</event>
<event>
 9    1  0.3197504E-005  0.9570987E+02  0.7546771E-02  0.1297651E+00
         21   -1    0    0  501  502  0.00000000000E+00  0.00000000000E+00  0.62490617153E+02  0.62490617153E+02  0.00000000000E+00 0.  1.
         -2   -1    0    0    0  501 -0.00000000000E+00 -0.00000000000E+00 -0.32496796158E+03  0.32496796158E+03  0.00000000000E+00 0.  1.
         23    2    1    2    0    0  0.33316094920E+02 -0.11138897219E+02 -0.25235189201E+03  0.27048206901E+03  0.90802175318E+02 0.  0.
        -24    2    1    2    0    0 -0.38540487415E+01  0.24710427145E+02 -0.20078186104E+02  0.83046353565E+02  0.76603553324E+02 0.  0.
         11    1    4    4    0    0  0.21394577214E+02 -0.85889816750E+01 -0.32137875198E+02  0.39551758022E+02  0.00000000000E+00 0. -1.
        -12    1    4    4    0    0 -0.25248625956E+02  0.33299408820E+02  0.12059689094E+02  0.43494595543E+02  0.00000000000E+00 0.  1.
        -11    1    3    3    0    0  0.54890750879E+02  0.18552547712E+02 -0.18389617268E+03  0.19280817899E+03  0.00000000000E+00 0.  1.
         11    1    3    3    0    0 -0.21574655960E+02 -0.29691444931E+02 -0.68455719329E+02  0.77673890019E+02  0.00000000000E+00 0. -1.
         -1    1    1    2    0  502 -0.29462046178E+02 -0.13571529926E+02  0.99527336818E+01  0.33930156164E+02  0.00000000000E+00 0.  1.
<scales pt_clust_5="13000.00000" pt_clust_6="13000.00000" pt_clust_7="13000.00000" pt_clust_8="13000.00000" pt_clust_9="32.43761"></scales>
<clustering>
<clus scale="   32.438">  1  9  2 -1</clus>
<clus scale="   76.604">  5  6 -1 -1</clus>
<clus scale="   82.362">  1  5  2 -1</clus>
<clus scale="   90.802">  7  8 -1 -1</clus>
<clus scale="   32.438">  1  5  2 -1</clus>
</clustering>
</event>
<event>
 9    1  0.3197504E-005  0.1103531E+03  0.7546771E-02  0.1264138E+00
         -2   -1    0    0    0  501 -0.00000000000E+00  0.00000000000E+00  0.39303301013E+03  0.39303301013E+03  0.00000000000E+00 0.  1.
         21   -1    0    0  501  502  0.00000000000E+00 -0.00000000000E+00 -0.85226034346E+02  0.85226034346E+02  0.00000000000E+00 0. -1.
        -24    2    1    2    0    0 -0.41699467296E+02  0.25779040436E+02  0.14512369503E+03  0.17347333893E+03  0.81416877617E+02 0.  0.
         23    2    1    2    0    0  0.75757008386E+02 -0.10809490916E+02  0.21171618682E+03  0.24323711178E+03  0.92111776497E+02 0.  0.
         13    1    3    3    0    0  0.12301402147E+02 -0.19649047596E+02  0.24538255932E+02  0.33757007723E+02  0.00000000000E+00 0. -1.
        -14    1    3    3    0    0 -0.54000869443E+02  0.45428088032E+02  0.12058543910E+03  0.13971633120E+03  0.00000000000E+00 0.  1.
        -13    1    4    4    0    0  0.26621773876E+02 -0.16445375977E+02  0.62595460162E+01  0.31911614683E+02  0.00000000000E+00 0. -1.
         13    1    4    4    0    0  0.49135234511E+02  0.56358850608E+01  0.20545664080E+03  0.21132549709E+03  0.00000000000E+00 0.  1.
         -1    1    1    2    0  502 -0.34057541091E+02 -0.14969549519E+02 -0.49032906067E+02  0.61548593773E+02  0.00000000000E+00 0.  1.
<scales pt_clust_5="13000.00000" pt_clust_6="13000.00000" pt_clust_7="13000.00000" pt_clust_8="13000.00000" pt_clust_9="37.20220"></scales>
<clustering>
<clus scale="   37.202">  2  9  1 -1</clus>
<clus scale="   81.417">  5  6 -1 -1</clus>
<clus scale="   92.112">  7  8 -1 -1</clus>
<clus scale="  101.597">  1  5  2 -1</clus>
<clus scale="   37.202">  2  5  1 -1</clus>
</clustering>
</event>
<event>
 9    1  0.3197504E-005  0.1089731E+03  0.7546771E-02  0.1274441E+00
         21   -1    0    0  501  502  0.00000000000E+00  0.00000000000E+00  0.39422161626E+03  0.39422161626E+03  0.00000000000E+00 0.  1.
         -2   -1    0    0    0  501 -0.00000000000E+00 -0.00000000000E+00 -0.26617575054E+03  0.26617575054E+03  0.00000000000E+00 0.  1.
        -24    2    1    2    0    0  0.20052157794E+02  0.70207152602E+02 -0.18007521894E+03  0.20443237728E+03  0.63516762311E+02 0.  0.
         23    2    1    2    0    0 -0.22799336516E+02 -0.14316849336E+02 -0.39722660513E+02  0.10364901764E+03  0.91871906359E+02 0.  0.
         13    1    3    3    0    0  0.37816578286E+02  0.27034174341E+02 -0.62221378273E+02  0.77668784526E+02  0.00000000000E+00 0. -1.
        -14    1    3    3    0    0 -0.17764420492E+02  0.43172978261E+02 -0.11785384067E+03  0.12676359276E+03  0.00000000000E+00 0.  1.
        -13    1    4    4    0    0 -0.14474249833E+02 -0.47670668595E+02 -0.47021532079E+02  0.68505627737E+02  0.00000000000E+00 0. -1.
         13    1    4    4    0    0 -0.83250866830E+01  0.33353819259E+02  0.72988715662E+01  0.35143389899E+02  0.00000000000E+00 0.  1.
         -1    1    1    2    0  502  0.27471787215E+01 -0.55890303266E+02  0.34784374518E+03  0.35231597189E+03  0.00000000000E+00 0.  1.
<scales pt_clust_5="13000.00000" pt_clust_6="13000.00000" pt_clust_7="13000.00000" pt_clust_8="13000.00000" pt_clust_9="55.95778"></scales>
<clustering>
<clus scale="   55.958">  1  9  2 -1</clus>
<clus scale="   63.517">  5  6 -1 -1</clus>
<clus scale="   86.424">  2  5  1 -1</clus>
<clus scale="   91.872">  7  8 -1 -1</clus>
<clus scale="   55.958">  1  5  2 -1</clus>
</clustering>
</event>
<event>
 9    1  0.3197504E-005  0.1005748E+03  0.7546771E-02  0.1282565E+00
         21   -1    0    0  501  502  0.00000000000E+00  0.00000000000E+00  0.84568246583E+02  0.84568246583E+02  0.00000000000E+00 0.  1.
          1   -1    0    0  502    0 -0.00000000000E+00 -0.00000000000E+00 -0.53915450103E+03  0.53915450103E+03  0.00000000000E+00 0. -1.
        -24    2    1    2    0    0  0.88624911327E+01 -0.46389301249E+02 -0.44441753218E+03  0.45420027469E+03  0.80996515989E+02 0.  0.
         23    2    1    2    0    0  0.14315129262E+02  0.63275905261E+02  0.35807398498E+02  0.11533609859E+03  0.88382592962E+02 0.  0.
         13    1    3    3    0    0 -0.33310161886E+02 -0.56116072833E+01 -0.20064068454E+03  0.20346434900E+03  0.00000000000E+00 0. -1.
        -14    1    3    3    0    0  0.42172653019E+02 -0.40777693965E+02 -0.24377684764E+03  0.25073592569E+03  0.00000000000E+00 0.  1.
        -11    1    4    4    0    0  0.64104601493E+01  0.84297530270E+02  0.38160518600E+02  0.92754475842E+02  0.00000000000E+00 0.  1.
         11    1    4    4    0    0  0.79046691129E+01 -0.21021625009E+02 -0.23531201015E+01  0.22581622750E+02  0.00000000000E+00 0. -1.
          2    1    1    2  501    0 -0.23177620395E+02 -0.16886604013E+02 -0.45976120769E+02  0.54186374331E+02  0.00000000000E+00 0. -1.
<scales pt_clust_5="13000.00000" pt_clust_6="13000.00000" pt_clust_7="13000.00000" pt_clust_8="13000.00000" pt_clust_9="28.67683"></scales>
<clustering>
<clus scale="   28.677">  1  9  2 -1</clus>
<clus scale="   80.997">  5  6 -1 -1</clus>
<clus scale="   88.383">  7  8 -1 -1</clus>
<clus scale="   94.150">  2  5  1 -1</clus>
<clus scale="   28.677">  1  5  2 -1</clus>
</clustering>
</event>
<event>
 9    1  0.3197504E-005  0.1086677E+03  0.7546771E-02  0.1267172E+00
          1   -1    0    0  502    0 -0.00000000000E+00  0.00000000000E+00  0.64665375502E+02  0.64665375502E+02  0.00000000000E+00 0. -1.
         21   -1    0    0  501  502  0.00000000000E+00 -0.00000000000E+00 -0.26621018616E+03  0.26621018616E+03  0.00000000000E+00 0. -1.
        -24    2    1    2    0    0 -0.36179235989E+02  0.46121225497E+02 -0.32331903315E+02  0.10415917141E+03  0.79797722138E+02 0.  0.
         23    2    1    2    0    0  0.17611943915E+02 -0.65487688419E+02 -0.93823572355E+02  0.14669541768E+03  0.90099194984E+02 0.  0.
         13    1    3    3    0    0 -0.38603319006E+02  0.35153954081E+02  0.15945893324E+02  0.54592016264E+02  0.00000000000E+00 0. -1.
        -14    1    3    3    0    0  0.24240830177E+01  0.10967271416E+02 -0.48277796639E+02  0.49567155144E+02  0.00000000000E+00 0.  1.
        -11    1    4    4    0    0 -0.17438133804E+02 -0.34983314095E+02  0.30981925009E+01  0.39211217431E+02  0.00000000000E+00 0. -1.
         11    1    4    4    0    0  0.35050077719E+02 -0.30504374324E+02 -0.96921764856E+02  0.10748420025E+03  0.00000000000E+00 0.  1.
          2    1    1    2  501    0  0.18567292073E+02  0.19366462922E+02 -0.75389334986E+02  0.80020972567E+02  0.00000000000E+00 0. -1.
<scales pt_clust_5="13000.00000" pt_clust_6="13000.00000" pt_clust_7="13000.00000" pt_clust_8="13000.00000" pt_clust_9="26.82917"></scales>
<clustering>
<clus scale="   26.829">  2  9  1 -1</clus>
<clus scale="   79.798">  5  6 -1 -1</clus>
<clus scale="   90.099">  7  8 -1 -1</clus>
<clus scale="  100.292">  1  5  2 -1</clus>
<clus scale="   26.829">  2  5  1 -1</clus>
</clustering>
</event>
<event>
 9    1  0.3197504E-005  0.1831457E+03  0.7546771E-02  0.1192475E+00
          1   -1    0    0  502    0 -0.00000000000E+00  0.00000000000E+00  0.12263053444E+04  0.12263053444E+04  0.00000000000E+00 0. -1.
         21   -1    0    0  501  502  0.00000000000E+00 -0.00000000000E+00 -0.45122372484E+02  0.45122372484E+02  0.00000000000E+00 0. -1.
         23    2    1    2    0    0  0.13272004697E+02 -0.96890799658E+01  0.14526866859E+03  0.17531551683E+03  0.96760115678E+02 0.  0.
        -24    2    1    2    0    0 -0.65546154149E+02 -0.14831903793E+03  0.41074051107E+03  0.44916442586E+03  0.82134515814E+02 0.  0.
         13    1    4    4    0    0 -0.81563985324E+02 -0.14071669206E+03  0.38460613945E+03  0.41758322959E+03  0.00000000000E+00 0. -1.
        -14    1    4    4    0    0  0.16017831176E+02 -0.76023458677E+01  0.26134371619E+02  0.31581196275E+02  0.00000000000E+00 0.  1.
        -13    1    3    3    0    0  0.23093974691E+02 -0.31681468011E+02  0.13653577499E+02  0.41514663203E+02  0.00000000000E+00 0. -1.
         13    1    3    3    0    0 -0.98219699939E+01  0.21992388045E+02  0.13161509110E+03  0.13380085362E+03  0.00000000000E+00 0.  1.
          2    1    1    2  501    0  0.52274149452E+02  0.15800811790E+03  0.62517379227E+03  0.64694777422E+03  0.00000000000E+00 0. -1.
<scales pt_clust_5="13000.00000" pt_clust_6="13000.00000" pt_clust_7="13000.00000" pt_clust_8="13000.00000" pt_clust_9="163.69569"></scales>
<clustering>
<clus scale="   82.135">  5  6 -1 -1</clus>
<clus scale="   96.760">  7  8 -1 -1</clus>
<clus scale="   98.146">  1  7  2 -1</clus>
<clus scale="  163.696">  2  9  1 -1</clus>
<clus scale="  163.696">  2  5  1 -1</clus>
</clustering>
</event>
<event>
 9    1  0.3197504E-005  0.9811696E+02  0.7546771E-02  0.1287542E+00
         21   -1    0    0  501  502  0.00000000000E+00  0.00000000000E+00  0.10637834609E+03  0.10637834609E+03  0.00000000000E+00 0.  1.
          1   -1    0    0  502    0 -0.00000000000E+00 -0.00000000000E+00 -0.24731158718E+03  0.24731158718E+03  0.00000000000E+00 0. -1.
        -24    2    1    2    0    0  0.22163258597E+02 -0.52086791957E+02 -0.61138946216E+02  0.11901584655E+03  0.84985628538E+02 0.  0.
         23    2    1    2    0    0  0.38564087434E+02  0.68154828643E-01  0.25650276872E+02  0.10234001373E+03  0.91259784253E+02 0.  0.
         13    1    3    3    0    0  0.69840720142E+01 -0.69284932225E+02 -0.65575442560E+02  0.95652066169E+02  0.00000000000E+00 0. -1.
        -14    1    3    3    0    0  0.15179186583E+02  0.17198140268E+02  0.44364963444E+01  0.23363780383E+02  0.00000000000E+00 0.  1.
        -11    1    4    4    0    0  0.26095468159E+02 -0.35822631899E+02  0.41923635947E+02  0.61006767376E+02  0.00000000000E+00 0.  1.
         11    1    4    4    0    0  0.12468619274E+02  0.35890786728E+02 -0.16273359074E+02  0.41333246354E+02  0.00000000000E+00 0. -1.
          2    1    1    2  501    0 -0.60727346031E+02  0.52018637129E+02 -0.10544457174E+03  0.13233407299E+03  0.00000000000E+00 0. -1.
<scales pt_clust_5="13000.00000" pt_clust_6="13000.00000" pt_clust_7="13000.00000" pt_clust_8="13000.00000" pt_clust_9="79.96096"></scales>
<clustering>
<clus scale="   79.961">  1  9  2 -1</clus>
<clus scale="   84.986">  5  6 -1 -1</clus>
<clus scale="   91.260">  7  8 -1 -1</clus>
<clus scale="   92.310">  2  5  1 -1</clus>
<clus scale="   79.961">  1  5  2 -1</clus>
</clustering>
</event>
<event>
 9    1  0.3197504E-005  0.9714458E+02  0.7546771E-02  0.1292834E+00
         21   -1    0    0  501  502  0.00000000000E+00  0.00000000000E+00  0.32595787093E+02  0.32595787093E+02  0.00000000000E+00 0. -1.
          1   -1    0    0  502    0 -0.00000000000E+00 -0.00000000000E+00 -0.55554787986E+03  0.55554787986E+03  0.00000000000E+00 0. -1.
         23    2    1    2    0    0  0.38061310877E+02 -0.93003479294E+01 -0.40250290419E+03  0.41473090254E+03  0.91967243002E+02 0.  0.
        -24    2    1    2    0    0 -0.10459131003E+02  0.15644588560E+02 -0.11937645120E+03  0.14507056110E+03  0.80253249320E+02 0.  0.
         11    1    4    4    0    0 -0.10763865768E+02  0.26909506493E+02 -0.41308980927E+01  0.29275359349E+02  0.00000000000E+00 0. -1.
        -12    1    4    4    0    0  0.30473476495E+00 -0.11264917934E+02 -0.11524555310E+03  0.11579520175E+03  0.00000000000E+00 0.  1.
        -13    1    3    3    0    0  0.54401669141E+02  0.23161938125E+02 -0.30492647607E+03  0.31060613772E+03  0.00000000000E+00 0. -1.
         13    1    3    3    0    0 -0.16340358264E+02 -0.32462286054E+02 -0.97576428117E+02  0.10412476482E+03  0.00000000000E+00 0.  1.
          2    1    1    2  501    0 -0.27602179874E+02 -0.63442406303E+01 -0.10727373855E+01  0.28342203310E+02  0.00000000000E+00 0. -1.
<scales pt_clust_5="13000.00000" pt_clust_6="13000.00000" pt_clust_7="13000.00000" pt_clust_8="13000.00000" pt_clust_9="28.32189"></scales>
<clustering>
<clus scale="   28.322">  1  9  2 -1</clus>
<clus scale="   80.253">  5  6 -1 -1</clus>
<clus scale="   86.138">  1  5  2 -1</clus>
<clus scale="   91.967">  7  8 -1 -1</clus>
<clus scale="   28.322">  1  5  2 -1</clus>
</clustering>
</event>
<event>
 9    1  0.3197504E-005  0.2141931E+03  0.7546771E-02  0.1138288E+00
         -2   -1    0    0    0  501 -0.00000000000E+00  0.00000000000E+00  0.26581580573E+03  0.26581580573E+03  0.00000000000E+00 0.  1.
         21   -1    0    0  501  502  0.00000000000E+00 -0.00000000000E+00 -0.43325625430E+03  0.43325625430E+03  0.00000000000E+00 0.  1.
        -24    2    1    2    0    0 -0.58212684038E+02  0.60078722830E+02  0.11812366800E+03  0.16589533301E+03  0.81054864463E+02 0.  0.
         23    2    1    2    0    0 -0.54000080988E+01  0.33453314156E+02  0.94936156968E+02  0.13621920449E+03  0.91621577456E+02 0.  0.
         11    1    3    3    0    0  0.12010518184E+02  0.24379487470E+02  0.43683650902E+01  0.27526252377E+02  0.00000000000E+00 0. -1.
        -12    1    3    3    0    0 -0.70223202221E+02  0.35699235360E+02  0.11375530291E+03  0.13836908063E+03  0.00000000000E+00 0.  1.
        -11    1    4    4    0    0 -0.39218246326E+02  0.12594801309E+02  0.99087368141E+01  0.42366058705E+02  0.00000000000E+00 0.  1.
         11    1    4    4    0    0  0.33818238228E+02  0.20858512847E+02  0.85027420154E+02  0.93853145782E+02  0.00000000000E+00 0. -1.
         -1    1    1    2    0  502  0.63612692137E+02 -0.93532036986E+02 -0.38050027353E+03  0.39695752254E+03  0.00000000000E+00 0.  1.
<scales pt_clust_5="13000.00000" pt_clust_6="13000.00000" pt_clust_7="13000.00000" pt_clust_8="13000.00000" pt_clust_9="113.11417"></scales>
<clustering>
<clus scale="   81.055">  5  6 -1 -1</clus>
<clus scale="   91.622">  7  8 -1 -1</clus>
<clus scale="   96.462">  5  7 -1 -1</clus>
<clus scale="  113.114">  2  9  1 -1</clus>
<clus scale="  113.114">  2  5  1 -1</clus>
</clustering>
</event>
<event>
 9    1  0.3197504E-005  0.1025241E+03  0.7546771E-02  0.1277141E+00
         -2   -1    0    0    0  501 -0.00000000000E+00  0.00000000000E+00  0.34131531262E+03  0.34131531262E+03  0.00000000000E+00 0.  1.
         21   -1    0    0  501  502  0.00000000000E+00 -0.00000000000E+00 -0.54363977008E+02  0.54363977008E+02  0.00000000000E+00 0. -1.
        -24    2    1    2    0    0 -0.32749003911E+02  0.31709160546E+01  0.24136448894E+03  0.26191589441E+03  0.96231841171E+02 0.  0.
         23    2    1    2    0    0  0.40767875923E+02 -0.23980893726E+02  0.36553200869E+02  0.10970171957E+03  0.91984932520E+02 0.  0.
         11    1    3    3    0    0  0.13228931846E+02  0.36183302920E+02  0.55038906700E+02  0.67182715773E+02  0.00000000000E+00 0. -1.
        -12    1    3    3    0    0 -0.45977935757E+02 -0.33012386865E+02  0.18632558224E+03  0.19473317863E+03  0.00000000000E+00 0.  1.
        -11    1    4    4    0    0  0.31806410536E+02 -0.58203484234E+02  0.14124276309E+02  0.67814368016E+02  0.00000000000E+00 0. -1.
         11    1    4    4    0    0  0.89614653868E+01  0.34222590508E+02  0.22428924559E+02  0.41887351550E+02  0.00000000000E+00 0.  1.
         -1    1    1    2    0  502 -0.80188720117E+01  0.20809977671E+02  0.90336458066E+01  0.24061675660E+02  0.00000000000E+00 0.  1.
<scales pt_clust_5="13000.00000" pt_clust_6="13000.00000" pt_clust_7="13000.00000" pt_clust_8="13000.00000" pt_clust_9="22.30151"></scales>
<clustering>
<clus scale="   22.302">  2  9  1 -1</clus>
<clus scale="   91.985">  7  8 -1 -1</clus>
<clus scale="   96.232">  5  6 -1 -1</clus>
<clus scale="   98.549">  2  7  1 -1</clus>
<clus scale="   22.302">  2  5  1 -1</clus>
</clustering>
</event>
<event>
 9    1  0.3197504E-005  0.1062447E+03  0.7546771E-02  0.1267914E+00
         21   -1    0    0  501  502  0.00000000000E+00  0.00000000000E+00  0.81213916016E+02  0.81213916016E+02  0.00000000000E+00 0.  1.
          1   -1    0    0  502    0 -0.00000000000E+00 -0.00000000000E+00 -0.25049288062E+03  0.25049288062E+03  0.00000000000E+00 0. -1.
        -24    2    1    2    0    0 -0.34601901715E+01 -0.63765900261E+02 -0.17361976977E+03  0.20553111873E+03  0.89560891899E+02 0.  0.
         23    2    1    2    0    0  0.28726249123E+01  0.34517218141E+02  0.11102120612E+02  0.96149921879E+02  0.89004831741E+02 0.  0.
         11    1    3    3    0    0  0.12411869000E+02 -0.43551877462E+02 -0.17403146870E+03  0.17982706310E+03  0.00000000000E+00 0. -1.
        -12    1    3    3    0    0 -0.15872059171E+02 -0.20214022799E+02  0.41169892890E+00  0.25704055634E+02  0.00000000000E+00 0.  1.
        -11    1    4    4    0    0  0.17866968411E+02  0.53694070466E+02 -0.16888111338E+02  0.59054974964E+02  0.00000000000E+00 0. -1.
         11    1    4    4    0    0 -0.14994343499E+02 -0.19176852325E+02  0.27990231950E+02  0.37094946915E+02  0.00000000000E+00 0.  1.
          2    1    1    2  501    0  0.58756525925E+00  0.29248682120E+02 -0.67613154437E+01  0.30025756031E+02  0.00000000000E+00 0. -1.
<scales pt_clust_5="13000.00000" pt_clust_6="13000.00000" pt_clust_7="13000.00000" pt_clust_8="13000.00000" pt_clust_9="29.25458"></scales>
<clustering>
<clus scale="   29.255">  1  9  2 -1</clus>
<clus scale="   89.005">  7  8 -1 -1</clus>
<clus scale="   89.561">  5  6 -1 -1</clus>
<clus scale="  105.776">  1  7  2 -1</clus>
<clus scale="   29.255">  1  5  2 -1</clus>
</clustering>
</event>
<event>
 9    1  0.3197504E-005  0.1152546E+03  0.7546771E-02  0.1253604E+00
          1   -1    0    0  502    0 -0.00000000000E+00  0.00000000000E+00  0.57617620528E+03  0.57617620528E+03  0.00000000000E+00 0. -1.
         21   -1    0    0  501  502  0.00000000000E+00 -0.00000000000E+00 -0.55363510272E+02  0.55363510272E+02  0.00000000000E+00 0.  1.
        -24    2    1    2    0    0  0.26673519060E+02  0.73707291449E+02  0.45648108996E+03  0.47030516861E+03  0.81656136942E+02 0.  0.
         23    2    1    2    0    0 -0.34144428808E+02 -0.33847051450E+02  0.23728405331E+02  0.10384750091E+03  0.88937063783E+02 0.  0.
         11    1    3    3    0    0  0.31574574261E+02  0.52612704532E+00  0.68184612215E+02  0.75142344203E+02  0.00000000000E+00 0. -1.
        -12    1    3    3    0    0 -0.49010552008E+01  0.73181164404E+02  0.38829647774E+03  0.39516282441E+03  0.00000000000E+00 0.  1.
        -11    1    4    4    0    0 -0.28550753429E+02  0.13764213168E+02 -0.21211424076E+02  0.38138217012E+02  0.00000000000E+00 0.  1.
         11    1    4    4    0    0 -0.55936753790E+01 -0.47611264619E+02  0.44939829406E+02  0.65709283894E+02  0.00000000000E+00 0. -1.
          2    1    1    2  501    0  0.74709097480E+01 -0.39860239999E+02  0.40603199720E+02  0.57387046036E+02  0.00000000000E+00 0. -1.
<scales pt_clust_5="13000.00000" pt_clust_6="13000.00000" pt_clust_7="13000.00000" pt_clust_8="13000.00000" pt_clust_9="40.55432"></scales>
<clustering>
<clus scale="   40.554">  2  9  1 -1</clus>
<clus scale="   81.656">  5  6 -1 -1</clus>
<clus scale="   88.937">  7  8 -1 -1</clus>
<clus scale="  109.734">  1  5  2 -1</clus>
<clus scale="   40.554">  2  5  1 -1</clus>
</clustering>
</event>
<event>
 9    1  0.3197504E-005  0.9372095E+02  0.7546771E-02  0.1301959E+00
         -4   -1    0    0    0  501 -0.00000000000E+00  0.00000000000E+00  0.11618854093E+04  0.11618854093E+04  0.00000000000E+00 0.  1.
         21   -1    0    0  501  502  0.00000000000E+00 -0.00000000000E+00 -0.11908080894E+02  0.11908080894E+02  0.00000000000E+00 0. -1.
        -24    2    1    2    0    0  0.19577508537E+02  0.59852351574E+01  0.73903946964E+03  0.74355099211E+03  0.79181047630E+02 0.  0.
         23    2    1    2    0    0  0.74467283683E+00 -0.20441983674E+02  0.37362997106E+03  0.38536636725E+03  0.92138224961E+02 0.  0.
         11    1    3    3    0    0  0.36406108180E+02  0.23487190574E+02  0.23718150125E+03  0.24110602931E+03  0.00000000000E+00 0. -1.
        -12    1    3    3    0    0 -0.16828599643E+02 -0.17501955416E+02  0.50185796838E+03  0.50244496279E+03  0.00000000000E+00 0.  1.
        -13    1    4    4    0    0  0.38734969061E+02 -0.36413307637E+02  0.21286017786E+03  0.21939868304E+03  0.00000000000E+00 0. -1.
         13    1    4    4    0    0 -0.37990296224E+02  0.15971323964E+02  0.16076979320E+03  0.16596768421E+03  0.00000000000E+00 0.  1.
         -3    1    1    2    0  502 -0.20322181374E+02  0.14456748516E+02  0.37307887708E+02  0.44876130835E+02  0.00000000000E+00 0.  1.
<scales pt_clust_5="13000.00000" pt_clust_6="13000.00000" pt_clust_7="13000.00000" pt_clust_8="13000.00000" pt_clust_9="24.93970"></scales>
<clustering>
<clus scale="   24.940">  2  9  1 -1</clus>
<clus scale="   79.181">  5  6 -1 -1</clus>
<clus scale="   81.017">  1  5  2 -1</clus>
<clus scale="   92.138">  7  8 -1 -1</clus>
<clus scale="   24.940">  2  5  1 -1</clus>
</clustering>
</event>
<event>
 9    1  0.3197504E-005  0.9558354E+02  0.7546771E-02  0.1297816E+00
         21   -1    0    0  501  502  0.00000000000E+00  0.00000000000E+00  0.13459772720E+03  0.13459772720E+03  0.00000000000E+00 0. -1.
          1   -1    0    0  502    0 -0.00000000000E+00 -0.00000000000E+00 -0.33460390598E+03  0.33460390598E+03  0.00000000000E+00 0. -1.
        -24    2    1    2    0    0  0.59942342202E+00  0.21786776225E+02 -0.26656743993E+03  0.27935209190E+03  0.80649663945E+02 0.  0.
         23    2    1    2    0    0 -0.17514395034E+02  0.15134126334E+02 -0.15692696437E+02  0.98116325643E+02  0.94046567311E+02 0.  0.
         11    1    3    3    0    0  0.34989016403E+02  0.27695144282E+02 -0.19060396455E+03  0.19575781872E+03  0.00000000000E+00 0. -1.
        -12    1    3    3    0    0 -0.34389592980E+02 -0.59083680573E+01 -0.75963475374E+02  0.83594273185E+02  0.00000000000E+00 0.  1.
        -13    1    4    4    0    0  0.10443935128E+01 -0.20502662984E+02 -0.44278095542E+02  0.48805734213E+02  0.00000000000E+00 0.  1.
         13    1    4    4    0    0 -0.18558788547E+02  0.35636789318E+02  0.28585399105E+02  0.49310591430E+02  0.00000000000E+00 0. -1.
          2    1    1    2  501    0  0.16914971612E+02 -0.36920902558E+02  0.82253957590E+02  0.91733215628E+02  0.00000000000E+00 0. -1.
<scales pt_clust_5="13000.00000" pt_clust_6="13000.00000" pt_clust_7="13000.00000" pt_clust_8="13000.00000" pt_clust_9="40.61120"></scales>
<clustering>
<clus scale="   40.611">  1  9  2 -1</clus>
<clus scale="   80.650">  5  6 -1 -1</clus>
<clus scale="   82.437">  2  5  1 -1</clus>
<clus scale="   94.047">  7  8 -1 -1</clus>
<clus scale="   40.611">  1  5  2 -1</clus>
</clustering>
</event>
<event>
 9    1  0.3654356E-005  0.1087529E+03  0.7546771E-02  0.1263699E+00
          1   -1    0    0  502    0 -0.00000000000E+00  0.00000000000E+00  0.16901094754E+03  0.16901094754E+03  0.00000000000E+00 0. -1.
         21   -1    0    0  501  502  0.00000000000E+00 -0.00000000000E+00 -0.32186767858E+03  0.32186767858E+03  0.00000000000E+00 0. -1.
         23    2    1    2    0    0  0.56466265306E+02  0.19322408304E+02  0.12045302374E+03  0.16383150335E+03  0.93648470246E+02 0.  0.
        -24    2    1    2    0    0 -0.26513380620E+02  0.44356187886E+02 -0.19627791482E+03  0.22271091965E+03  0.91677167983E+02 0.  0.
         11    1    4    4    0    0 -0.62844525865E+01  0.67987017533E+02 -0.96608988903E+02  0.11830057326E+03  0.00000000000E+00 0. -1.
        -12    1    4    4    0    0 -0.20228928034E+02 -0.23630829648E+02 -0.99668925916E+02  0.10441034639E+03  0.00000000000E+00 0.  1.
        -11    1    3    3    0    0  0.32059312052E+02  0.75315313734E+01 -0.68819437914E+01  0.33643492750E+02  0.00000000000E+00 0.  1.
         11    1    3    3    0    0  0.24406953254E+02  0.11790876931E+02  0.12733496753E+03  0.13018801060E+03  0.00000000000E+00 0. -1.
          2    1    1    2  501    0 -0.29952884686E+02 -0.63678596190E+02 -0.77031839960E+02  0.10433620312E+03  0.00000000000E+00 0. -1.
<scales pt_clust_5="13000.00000" pt_clust_6="13000.00000" pt_clust_7="13000.00000" pt_clust_8="13000.00000" pt_clust_9="70.37144"></scales>
<clustering>
<clus scale="   70.371">  2  9  1 -1</clus>
<clus scale="   91.677">  5  6 -1 -1</clus>
<clus scale="   93.648">  7  8 -1 -1</clus>
<clus scale="  107.060">  2  5  1 -1</clus>
<clus scale="   70.371">  2  5  1 -1</clus>
</clustering>
</event>
<event>
 9    1  0.3197504E-005  0.1313530E+03  0.7546771E-02  0.1240344E+00
          1   -1    0    0  502    0 -0.00000000000E+00  0.00000000000E+00  0.77727734289E+03  0.77727734289E+03  0.00000000000E+00 0. -1.
         21   -1    0    0  501  502  0.00000000000E+00 -0.00000000000E+00 -0.41754992118E+02  0.41754992118E+02  0.00000000000E+00 0. -1.
        -24    2    1    2    0    0 -0.54863672173E+02 -0.16103893341E+01  0.39789246547E+03  0.40948452211E+03  0.79665198716E+02 0.  0.
         23    2    1    2    0    0 -0.48590728846E+02  0.51031617717E+02  0.18608634689E+03  0.21951961779E+03  0.92711645209E+02 0.  0.
         13    1    3    3    0    0 -0.59105357607E+02 -0.31159691837E+02  0.26747140539E+03  0.27569062805E+03  0.00000000000E+00 0. -1.
        -14    1    3    3    0    0  0.42416854333E+01  0.29549302503E+02  0.13042106008E+03  0.13379389406E+03  0.00000000000E+00 0.  1.
        -13    1    4    4    0    0  0.92822911157E+01  0.44696915420E+02  0.13342036305E+03  0.14101407183E+03  0.00000000000E+00 0.  1.
         13    1    4    4    0    0 -0.57873019961E+02  0.63347022961E+01  0.52665983841E+02  0.78505545961E+02  0.00000000000E+00 0. -1.
          2    1    1    2  501    0  0.10345440102E+03 -0.49421228382E+02  0.15154353841E+03  0.19002819511E+03  0.00000000000E+00 0. -1.
<scales pt_clust_5="13000.00000" pt_clust_6="13000.00000" pt_clust_7="13000.00000" pt_clust_8="13000.00000" pt_clust_9="93.04936"></scales>
<clustering>
<clus scale="   79.665">  5  6 -1 -1</clus>
<clus scale="   92.712">  7  8 -1 -1</clus>
<clus scale="   96.743">  1  5  2 -1</clus>
<clus scale="   93.049">  2  9  1 -1</clus>
<clus scale="   93.049">  2  5  1 -1</clus>
</clustering>
</event>
<event>
 9    1  0.3197504E-005  0.1489454E+03  0.7546771E-02  0.1203734E+00
         -4   -1    0    0    0  501 -0.00000000000E+00  0.00000000000E+00  0.19105412532E+03  0.19105412532E+03  0.00000000000E+00 0.  1.
         21   -1    0    0  501  502  0.00000000000E+00 -0.00000000000E+00 -0.58896539332E+03  0.58896539332E+03  0.00000000000E+00 0.  1.
         23    2    1    2    0    0 -0.10781403689E+02  0.11894752077E+03  0.14966174515E+03  0.21197868527E+03  0.90948192307E+02 0.  0.
        -24    2    1    2    0    0  0.12408869142E+01 -0.95233829299E+02 -0.47547298795E+03  0.49154394286E+03  0.80435461410E+02 0.  0.
         13    1    4    4    0    0  0.34489730447E+02 -0.33361305508E+02 -0.27419542638E+03  0.27836244369E+03  0.00000000000E+00 0. -1.
        -14    1    4    4    0    0 -0.33248843533E+02 -0.61872523792E+02 -0.20127756157E+03  0.21318149917E+03  0.00000000000E+00 0.  1.
        -13    1    3    3    0    0 -0.46666036253E+02  0.45605462838E+02  0.88537292721E+02  0.10998376872E+03  0.00000000000E+00 0.  1.
         13    1    3    3    0    0  0.35884632565E+02  0.73342057936E+02  0.61124452426E+02  0.10199491654E+03  0.00000000000E+00 0. -1.
         -3    1    1    2    0  502  0.95405167744E+01 -0.23713691475E+02 -0.72100025203E+02  0.76496890511E+02  0.00000000000E+00 0.  1.
<scales pt_clust_5="13000.00000" pt_clust_6="13000.00000" pt_clust_7="13000.00000" pt_clust_8="13000.00000" pt_clust_9="25.56092"></scales>
<clustering>
<clus scale="   25.561">  2  9  1 -1</clus>
<clus scale="   80.435">  5  6 -1 -1</clus>
<clus scale="   90.948">  7  8 -1 -1</clus>
<clus scale="  142.769">  2  5  1 -1</clus>
<clus scale="   25.561">  2  5  1 -1</clus>
</clustering>
</event>
<event>
 9    1  0.3197504E-005  0.1482767E+03  0.7546771E-02  0.1204272E+00
         21   -1    0    0  501  502  0.00000000000E+00  0.00000000000E+00  0.14119815409E+03  0.14119815409E+03  0.00000000000E+00 0. -1.
         -2   -1    0    0    0  501 -0.00000000000E+00 -0.00000000000E+00 -0.19519821751E+03  0.19519821751E+03  0.00000000000E+00 0.  1.
        -24    2    1    2    0    0 -0.50733493274E+02  0.10409675704E+03 -0.40659010009E+02  0.14698831951E+03  0.80885034546E+02 0.  0.
         23    2    1    2    0    0  0.82693834111E+02 -0.92159836918E+02 -0.54552230098E+00  0.15297072143E+03  0.89822259383E+02 0.  0.
         13    1    3    3    0    0 -0.31605868355E+02 -0.36060478738E+01 -0.10866272170E+02  0.33615626822E+02  0.00000000000E+00 0. -1.
        -14    1    3    3    0    0 -0.19127624919E+02  0.10770280491E+03 -0.29792737838E+02  0.11337269269E+03  0.00000000000E+00 0.  1.
        -11    1    4    4    0    0  0.70378865438E+02 -0.58937951610E+02 -0.39831979754E+02  0.10006724465E+03  0.00000000000E+00 0. -1.
         11    1    4    4    0    0  0.12314968673E+02 -0.33221885308E+02  0.39286457453E+02  0.52903476786E+02  0.00000000000E+00 0.  1.
         -1    1    1    2    0  502 -0.31960340837E+02 -0.11936920117E+02 -0.12795531113E+02  0.36437330648E+02  0.00000000000E+00 0.  1.
<scales pt_clust_5="13000.00000" pt_clust_6="13000.00000" pt_clust_7="13000.00000" pt_clust_8="13000.00000" pt_clust_9="34.11678"></scales>
<clustering>
<clus scale="   34.117">  1  9  2 -1</clus>
<clus scale="   80.885">  5  6 -1 -1</clus>
<clus scale="   89.822">  7  8 -1 -1</clus>
<clus scale="  143.040">  2  5  1 -1</clus>
<clus scale="   34.117">  1  5  2 -1</clus>
</clustering>
</event>
<event>
 9    1  0.3197504E-005  0.9382890E+02  0.7546771E-02  0.1301122E+00
         21   -1    0    0  501  502  0.00000000000E+00  0.00000000000E+00  0.26559533692E+03  0.26559533692E+03  0.00000000000E+00 0.  1.
         -4   -1    0    0    0  501 -0.00000000000E+00 -0.00000000000E+00 -0.60330152856E+02  0.60330152856E+02  0.00000000000E+00 0.  1.
        -24    2    1    2    0    0 -0.12053565774E+02  0.10890095689E+01  0.60504789641E+02  0.10073151959E+03  0.79621197428E+02 0.  0.
         23    2    1    2    0    0 -0.37190102563E+02  0.37864729925E+02  0.67652398315E+02  0.12575566893E+03  0.91764915793E+02 0.  0.
         11    1    3    3    0    0 -0.26070875467E+02  0.84484694670E+01 -0.94641981570E+01  0.28993761928E+02  0.00000000000E+00 0. -1.
        -12    1    3    3    0    0  0.14017309693E+02 -0.73594598981E+01  0.69968987798E+02  0.71737757663E+02  0.00000000000E+00 0.  1.
        -11    1    4    4    0    0 -0.34469588513E+02  0.65119793654E+02  0.30846781487E+02  0.79876554670E+02  0.00000000000E+00 0.  1.
         11    1    4    4    0    0 -0.27205140498E+01 -0.27255063730E+02  0.36805616828E+02  0.45879114265E+02  0.00000000000E+00 0. -1.
         -3    1    1    2    0  502  0.49243668337E+02 -0.38953739494E+02  0.77107996104E+02  0.99438301248E+02  0.00000000000E+00 0.  1.
<scales pt_clust_5="13000.00000" pt_clust_6="13000.00000" pt_clust_7="13000.00000" pt_clust_8="13000.00000" pt_clust_9="62.78800"></scales>
<clustering>
<clus scale="   62.788">  1  9  2 -1</clus>
<clus scale="   79.621">  5  6 -1 -1</clus>
<clus scale="   81.991">  2  5  1 -1</clus>
<clus scale="   91.765">  7  8 -1 -1</clus>
<clus scale="   62.788">  1  5  2 -1</clus>
</clustering>
</event>
<event>
 9    1  0.3197504E-005  0.1577692E+03  0.7546771E-02  0.1220813E+00
          1   -1    0    0  502    0 -0.00000000000E+00  0.00000000000E+00  0.99244188510E+03  0.99244188510E+03  0.00000000000E+00 0. -1.
         21   -1    0    0  501  502  0.00000000000E+00 -0.00000000000E+00 -0.35771257713E+02  0.35771257713E+02  0.00000000000E+00 0. -1.
        -24    2    1    2    0    0  0.20630332151E+02  0.86917597468E+01  0.30109259963E+03  0.31246554938E+03  0.80478622662E+02 0.  0.
         23    2    1    2    0    0  0.52948505239E+02  0.10657531891E+03  0.34175691216E+03  0.37342605259E+03  0.92127015204E+02 0.  0.
         11    1    3    3    0    0 -0.42545673026E+00 -0.34689960670E+02  0.10759525189E+03  0.11305004474E+03  0.00000000000E+00 0. -1.
        -12    1    3    3    0    0  0.21055788881E+02  0.43381720417E+02  0.19349734773E+03  0.19941550464E+03  0.00000000000E+00 0.  1.
        -13    1    4    4    0    0 -0.36751112349E+01  0.84218605376E+02  0.14792401683E+03  0.17025802386E+03  0.00000000000E+00 0. -1.
         13    1    4    4    0    0  0.56623616474E+02  0.22356713539E+02  0.19383289534E+03  0.20316802873E+03  0.00000000000E+00 0.  1.
          2    1    1    2  501    0 -0.73578837390E+02 -0.11526707866E+03  0.31382111560E+03  0.34232154085E+03  0.00000000000E+00 0. -1.
<scales pt_clust_5="13000.00000" pt_clust_6="13000.00000" pt_clust_7="13000.00000" pt_clust_8="13000.00000" pt_clust_9="128.07713"></scales>
<clustering>
<clus scale="   80.479">  5  6 -1 -1</clus>
<clus scale="   83.534">  1  5  2 -1</clus>
<clus scale="   92.127">  7  8 -1 -1</clus>
<clus scale="  128.077">  2  9  1 -1</clus>
<clus scale="  128.077">  2  5  1 -1</clus>
</clustering>
</event>
<event>
 9    1  0.3197504E-005  0.1075391E+03  0.7546771E-02  0.1267229E+00
         21   -1    0    0  501  502  0.00000000000E+00  0.00000000000E+00  0.50637102737E+03  0.50637102737E+03  0.00000000000E+00 0.  1.
          1   -1    0    0  502    0 -0.00000000000E+00 -0.00000000000E+00 -0.32815847014E+03  0.32815847014E+03  0.00000000000E+00 0. -1.
        -24    2    1    2    0    0  0.58897330701E+02 -0.72706990336E+01 -0.29993376034E+03  0.31790287831E+03  0.87064463569E+02 0.  0.
         23    2    1    2    0    0  0.36829414841E+01 -0.31961146776E+02  0.14041915351E+03  0.17091710887E+03  0.91978478312E+02 0.  0.
         11    1    3    3    0    0  0.50424519466E+02 -0.10382815290E+02 -0.30376529132E+03  0.30809704190E+03  0.00000000000E+00 0. -1.
        -12    1    3    3    0    0  0.84728112354E+01  0.31121162563E+01  0.38315309870E+01  0.98058364012E+01  0.00000000000E+00 0.  1.
        -13    1    4    4    0    0  0.39576540776E+02 -0.15543974054E+02  0.11821728620E+03  0.12563138328E+03  0.00000000000E+00 0.  1.
         13    1    4    4    0    0 -0.35893599292E+02 -0.16417172722E+02  0.22201867309E+02  0.45285725591E+02  0.00000000000E+00 0. -1.
          2    1    1    2  501    0 -0.62580272185E+02  0.39231845809E+02  0.33772716406E+03  0.34570951034E+03  0.00000000000E+00 0. -1.
<scales pt_clust_5="13000.00000" pt_clust_6="13000.00000" pt_clust_7="13000.00000" pt_clust_8="13000.00000" pt_clust_9="73.86087"></scales>
<clustering>
<clus scale="   73.861">  1  9  2 -1</clus>
<clus scale="   87.064">  5  6 -1 -1</clus>
<clus scale="   91.978">  7  8 -1 -1</clus>
<clus scale="  103.368">  2  5  1 -1</clus>
<clus scale="   73.861">  1  5  2 -1</clus>
</clustering>
</event>
<event>
 9    1  0.3197504E-005  0.9508222E+02  0.7546771E-02  0.1298951E+00
         21   -1    0    0  501  502  0.00000000000E+00  0.00000000000E+00  0.38782175999E+02  0.38782175999E+02  0.00000000000E+00 0.  1.
          1   -1    0    0  502    0 -0.00000000000E+00 -0.00000000000E+00 -0.35482746455E+03  0.35482746455E+03  0.00000000000E+00 0. -1.
        -24    2    1    2    0    0  0.22981337002E+02 -0.91247688520E+01 -0.19385819525E+03  0.21040608634E+03  0.77963568712E+02 0.  0.
         23    2    1    2    0    0 -0.58051619539E+01  0.40776756853E+02 -0.87866281170E+02  0.13345631832E+03  0.91616929261E+02 0.  0.
         11    1    3    3    0    0  0.49219864893E+02 -0.18639875346E+02 -0.14323642664E+03  0.15259984918E+03  0.00000000000E+00 0. -1.
        -12    1    3    3    0    0 -0.26238527891E+02  0.95151064945E+01 -0.50621768614E+02  0.57806237164E+02  0.00000000000E+00 0.  1.
        -11    1    4    4    0    0  0.36730090013E+02  0.26985804610E+02 -0.15034512439E+02  0.47993434208E+02  0.00000000000E+00 0.  1.
         11    1    4    4    0    0 -0.42535251967E+02  0.13790952244E+02 -0.72831768731E+02  0.85462884109E+02  0.00000000000E+00 0. -1.
          2    1    1    2  501    0 -0.17176175048E+02 -0.31651988001E+02 -0.34320812133E+02  0.49747235895E+02  0.00000000000E+00 0. -1.
<scales pt_clust_5="13000.00000" pt_clust_6="13000.00000" pt_clust_7="13000.00000" pt_clust_8="13000.00000" pt_clust_9="36.01207"></scales>
<clustering>
<clus scale="   36.012">  1  9  2 -1</clus>
<clus scale="   77.964">  5  6 -1 -1</clus>
<clus scale="   82.008">  2  5  1 -1</clus>
<clus scale="   91.617">  7  8 -1 -1</clus>
<clus scale="   36.012">  1  5  2 -1</clus>
</clustering>
</event>
<event>
 9    1  0.3197504E-005  0.1318351E+03  0.7546771E-02  0.1235517E+00
         -4   -1    0    0    0  501 -0.00000000000E+00  0.00000000000E+00  0.72287824447E+03  0.72287824447E+03  0.00000000000E+00 0.  1.
         21   -1    0    0  501  502  0.00000000000E+00 -0.00000000000E+00 -0.46248151247E+02  0.46248151247E+02  0.00000000000E+00 0. -1.
        -24    2    1    2    0    0 -0.34994637143E+02  0.58970167636E+02  0.31770649207E+03  0.33478916063E+03  0.80276158819E+02 0.  0.
         23    2    1    2    0    0  0.62628139438E+01  0.67911594109E+02  0.15877921264E+03  0.19562763037E+03  0.91695822948E+02 0.  0.
         11    1    3    3    0    0 -0.57742863750E+02  0.56371083342E+02  0.21716154675E+03  0.23167018526E+03  0.00000000000E+00 0. -1.
        -12    1    3    3    0    0  0.22748226607E+02  0.25990842949E+01  0.10054494532E+03  0.10311897538E+03  0.00000000000E+00 0.  1.
        -13    1    4    4    0    0 -0.36633627113E+02  0.13417213375E+02  0.29464642032E+02  0.48889767644E+02  0.00000000000E+00 0. -1.
         13    1    4    4    0    0  0.42896441057E+02  0.54494380734E+02  0.12931457061E+03  0.14673786273E+03  0.00000000000E+00 0.  1.
         -3    1    1    2    0  502  0.28731823200E+02 -0.12688176175E+03  0.20014438852E+03  0.23870960471E+03  0.00000000000E+00 0.  1.
<scales pt_clust_5="13000.00000" pt_clust_6="13000.00000" pt_clust_7="13000.00000" pt_clust_8="13000.00000" pt_clust_9="94.72263"></scales>
<clustering>
<clus scale="   80.276">  5  6 -1 -1</clus>
<clus scale="   91.696">  7  8 -1 -1</clus>
<clus scale="  105.576">  1  5  2 -1</clus>
<clus scale="   94.723">  2  9  1 -1</clus>
<clus scale="   94.723">  2  5  1 -1</clus>
</clustering>
</event>
<event>
 9    1  0.3197504E-005  0.1266365E+03  0.7546771E-02  0.1235205E+00
          1   -1    0    0  502    0 -0.00000000000E+00  0.00000000000E+00  0.29072669446E+03  0.29072669446E+03  0.00000000000E+00 0. -1.
         21   -1    0    0  501  502  0.00000000000E+00 -0.00000000000E+00 -0.21088634538E+03  0.21088634538E+03  0.00000000000E+00 0. -1.
         23    2    1    2    0    0 -0.34972391404E+02  0.67599145501E+02  0.15599447810E+03  0.19592203492E+03  0.90876036094E+02 0.  0.
        -24    2    1    2    0    0  0.93366397024E+02 -0.14728396809E+03 -0.76188150490E+02  0.20690066126E+03  0.81199741413E+02 0.  0.
         11    1    4    4    0    0  0.92002675484E+02 -0.15717138211E+03 -0.69726325790E+02  0.19501050269E+03  0.00000000000E+00 0. -1.
        -12    1    4    4    0    0  0.13637215400E+01  0.98874140196E+01 -0.64618246998E+01  0.11890158573E+02  0.00000000000E+00 0.  1.
        -13    1    3    3    0    0  0.20550165669E+02  0.15157297305E+02  0.40382795914E+01  0.25852672448E+02  0.00000000000E+00 0.  1.
         13    1    3    3    0    0 -0.55522557074E+02  0.52441848196E+02  0.15195619851E+03  0.17006936247E+03  0.00000000000E+00 0. -1.
          2    1    1    2  501    0 -0.58394005620E+02  0.79684822588E+02  0.34021473139E-01  0.98790343661E+02  0.00000000000E+00 0. -1.
<scales pt_clust_5="13000.00000" pt_clust_6="13000.00000" pt_clust_7="13000.00000" pt_clust_8="13000.00000" pt_clust_9="98.79034"></scales>
<clustering>
<clus scale="   81.200">  5  6 -1 -1</clus>
<clus scale="   90.876">  7  8 -1 -1</clus>
<clus scale="   98.790">  2  9  1 -1</clus>
<clus scale="  119.882">  2  5  1 -1</clus>
<clus scale="   98.790">  2  5  1 -1</clus>
</clustering>
</event>
<event>
 9    1  0.3197504E-005  0.1046050E+03  0.7546771E-02  0.1277372E+00
         -2   -1    0    0    0  501 -0.00000000000E+00  0.00000000000E+00  0.31312181539E+03  0.31312181539E+03  0.00000000000E+00 0.  1.
         21   -1    0    0  501  502  0.00000000000E+00 -0.00000000000E+00 -0.12543458855E+03  0.12543458855E+03  0.00000000000E+00 0.  1.
        -24    2    1    2    0    0  0.26533007735E+02  0.42277818824E+02  0.23443450408E+03  0.25397602628E+03  0.83981371467E+02 0.  0.
         23    2    1    2    0    0  0.13214819528E+02  0.19896138133E+02 -0.61373031974E+01  0.10035056888E+03  0.97273235866E+02 0.  0.
         13    1    3    3    0    0  0.16037791762E+02 -0.13408075012E+02  0.11308842283E+02  0.23767144421E+02  0.00000000000E+00 0. -1.
        -14    1    3    3    0    0  0.10495215973E+02  0.55685893835E+02  0.22312566180E+03  0.23020888185E+03  0.00000000000E+00 0.  1.
        -11    1    4    4    0    0  0.34632092667E+02  0.51108047969E+02  0.14068369784E+01  0.61752680914E+02  0.00000000000E+00 0.  1.
         11    1    4    4    0    0 -0.21417273139E+02 -0.31211909836E+02 -0.75441401758E+01  0.38597887965E+02  0.00000000000E+00 0. -1.
         -1    1    1    2    0  502 -0.39747827264E+02 -0.62173956957E+02 -0.40609974049E+02  0.84229808786E+02  0.00000000000E+00 0.  1.
<scales pt_clust_5="13000.00000" pt_clust_6="13000.00000" pt_clust_7="13000.00000" pt_clust_8="13000.00000" pt_clust_9="73.79357"></scales>
<clustering>
<clus scale="   73.794">  2  9  1 -1</clus>
<clus scale="   83.981">  5  6 -1 -1</clus>
<clus scale="   92.374">  1  5  2 -1</clus>
<clus scale="   97.273">  7  8 -1 -1</clus>
<clus scale="   73.794">  2  5  1 -1</clus>
</clustering>
</event>
<event>
 9    1  0.3197504E-005  0.2739039E+03  0.7546771E-02  0.1139251E+00
         21   -1    0    0  501  502  0.00000000000E+00  0.00000000000E+00  0.59513712982E+02  0.59513712982E+02  0.00000000000E+00 0. -1.
          1   -1    0    0  502    0 -0.00000000000E+00 -0.00000000000E+00 -0.19299655329E+04  0.19299655329E+04  0.00000000000E+00 0. -1.
         23    2    1    2    0    0  0.29500668240E+02  0.28274969566E+02 -0.11625851330E+03  0.15339647250E+03  0.91349179149E+02 0.  0.
        -24    2    1    2    0    0 -0.60331317550E+02 -0.27042141645E+03 -0.77338982022E+03  0.82535980955E+03  0.79494596379E+02 0.  0.
         13    1    4    4    0    0 -0.67951957629E+02 -0.23186456297E+03 -0.71706884684E+03  0.75668115822E+03  0.00000000000E+00 0. -1.
        -14    1    4    4    0    0  0.76206400790E+01 -0.38556853480E+02 -0.56320973379E+02  0.68678651325E+02  0.00000000000E+00 0.  1.
        -13    1    3    3    0    0 -0.91718920794E+01  0.33384912315E+02 -0.43622665029E+01  0.34895635022E+02  0.00000000000E+00 0. -1.
         13    1    3    3    0    0  0.38672560319E+02 -0.51099427483E+01 -0.11189624679E+03  0.11850083748E+03  0.00000000000E+00 0.  1.
          2    1    1    2  501    0  0.30830649311E+02  0.24214644688E+03 -0.98080348637E+03  0.10107229638E+04  0.00000000000E+00 0. -1.
<scales pt_clust_5="13000.00000" pt_clust_6="13000.00000" pt_clust_7="13000.00000" pt_clust_8="13000.00000" pt_clust_9="262.11450"></scales>
<clustering>
<clus scale="   79.495">  5  6 -1 -1</clus>
<clus scale="   91.349">  7  8 -1 -1</clus>
<clus scale="  100.072">  2  7  1 -1</clus>
<clus scale="  262.115">  1  9  2 -1</clus>
<clus scale="  262.115">  1  5  2 -1</clus>
</clustering>
</event>
<event>
 9    1  0.3197504E-005  0.9263097E+02  0.7546771E-02  0.1302729E+00
         21   -1    0    0  501  502  0.00000000000E+00  0.00000000000E+00  0.14984524562E+03  0.14984524562E+03  0.00000000000E+00 0. -1.
          3   -1    0    0  502    0 -0.00000000000E+00 -0.00000000000E+00 -0.82448689997E+02  0.82448689997E+02  0.00000000000E+00 0. -1.
        -24    2    1    2    0    0  0.19836022529E+02  0.18318187321E+02 -0.16228878229E+02  0.86489320653E+02  0.80548136676E+02 0.  0.
         23    2    1    2    0    0  0.41604654920E+01 -0.38062273204E+01  0.57835912312E+02  0.10770569317E+03  0.90684765807E+02 0.  0.
         11    1    3    3    0    0 -0.17682134185E+01  0.36729131052E+02  0.18884871902E+02  0.41337562014E+02  0.00000000000E+00 0. -1.
        -12    1    3    3    0    0  0.21604235948E+02 -0.18410943731E+02 -0.35113750130E+02  0.45151758639E+02  0.00000000000E+00 0.  1.
        -13    1    4    4    0    0 -0.36968144484E+02 -0.18588732688E+02  0.47114440786E+02  0.62705304562E+02  0.00000000000E+00 0.  1.
         13    1    4    4    0    0  0.41128609976E+02  0.14782505367E+02  0.10721471526E+02  0.45000388612E+02  0.00000000000E+00 0. -1.
          4    1    1    2  501    0 -0.23996488021E+02 -0.14511960000E+02  0.25789521541E+02  0.38098921792E+02  0.00000000000E+00 0. -1.
<scales pt_clust_5="13000.00000" pt_clust_6="13000.00000" pt_clust_7="13000.00000" pt_clust_8="13000.00000" pt_clust_9="28.04333"></scales>
<clustering>
<clus scale="   28.043">  1  9  2 -1</clus>
<clus scale="   80.548">  5  6 -1 -1</clus>
<clus scale="   82.733">  2  5  1 -1</clus>
<clus scale="   90.685">  7  8 -1 -1</clus>
<clus scale="   28.043">  1  5  2 -1</clus>
</clustering>
</event>
<event>
 9    1  0.3197504E-005  0.1853509E+03  0.7546771E-02  0.1190391E+00
          1   -1    0    0  502    0 -0.00000000000E+00  0.00000000000E+00  0.31182333409E+03  0.31182333409E+03  0.00000000000E+00 0. -1.
         21   -1    0    0  501  502  0.00000000000E+00 -0.00000000000E+00 -0.37044906472E+03  0.37044906472E+03  0.00000000000E+00 0. -1.
        -24    2    1    2    0    0 -0.63711607283E+02 -0.13208535183E+02  0.26767261396E+02  0.10268433123E+03  0.74792722192E+02 0.  0.
         23    2    1    2    0    0  0.21821569616E+03 -0.81798248876E+01  0.16232726602E+03  0.28685217693E+03  0.90824173730E+02 0.  0.
         11    1    3    3    0    0 -0.42742376468E+02 -0.26041456325E+02  0.48629940648E+02  0.69784950534E+02  0.00000000000E+00 0. -1.
        -12    1    3    3    0    0 -0.20969230815E+02  0.12832921142E+02 -0.21862679252E+02  0.32899380694E+02  0.00000000000E+00 0.  1.
        -11    1    4    4    0    0  0.15958721239E+03 -0.44136871048E+02  0.96481050861E+02  0.19163698735E+03  0.00000000000E+00 0. -1.
         11    1    4    4    0    0  0.58628483769E+02  0.35957046161E+02  0.65846215155E+02  0.95215189586E+02  0.00000000000E+00 0.  1.
          2    1    1    2  501    0 -0.15450408888E+03  0.21388360071E+02 -0.24772025805E+03  0.29273589065E+03  0.00000000000E+00 0. -1.
<scales pt_clust_5="13000.00000" pt_clust_6="13000.00000" pt_clust_7="13000.00000" pt_clust_8="13000.00000" pt_clust_9="161.57332"></scales>
<clustering>
<clus scale="   74.793">  5  6 -1 -1</clus>
<clus scale="   90.824">  7  8 -1 -1</clus>
<clus scale="   99.134">  1  5  2 -1</clus>
<clus scale="  161.573">  2  9  1 -1</clus>
<clus scale="  161.573">  2  5  1 -1</clus>
</clustering>
</event>
<event>
 9    1  0.3197504E-005  0.1040149E+03  0.7546771E-02  0.1277895E+00
         21   -1    0    0  501  502  0.00000000000E+00  0.00000000000E+00  0.28762468331E+03  0.28762468331E+03  0.00000000000E+00 0. -1.
          1   -1    0    0  502    0 -0.00000000000E+00 -0.00000000000E+00 -0.64280422795E+02  0.64280422795E+02  0.00000000000E+00 0. -1.
         23    2    1    2    0    0 -0.21429323569E+02  0.46159942528E+02  0.27608178532E+02  0.10818406595E+03  0.91387222302E+02 0.  0.
        -24    2    1    2    0    0 -0.86707344303E+01 -0.52295420849E+02  0.19015929038E+03  0.21249992246E+03  0.78649021920E+02 0.  0.
         13    1    4    4    0    0 -0.30063655993E+02  0.60134812743E+01  0.85103794873E+02  0.90457953053E+02  0.00000000000E+00 0. -1.
        -14    1    4    4    0    0  0.21392921563E+02 -0.58308902124E+02  0.10505549551E+03  0.12204196940E+03  0.00000000000E+00 0.  1.
        -11    1    3    3    0    0 -0.15533449580E+02  0.74271334141E+02  0.19853409653E+02  0.78432627176E+02  0.00000000000E+00 0. -1.
         11    1    3    3    0    0 -0.58958739888E+01 -0.28111391613E+02  0.77547688792E+01  0.29751438770E+02  0.00000000000E+00 0.  1.
          2    1    1    2  501    0  0.30100057999E+02  0.61354783216E+01  0.55767916008E+01  0.31221117698E+02  0.00000000000E+00 0. -1.
<scales pt_clust_5="13000.00000" pt_clust_6="13000.00000" pt_clust_7="13000.00000" pt_clust_8="13000.00000" pt_clust_9="30.71903"></scales>
<clustering>
<clus scale="   30.719">  1  9  2 -1</clus>
<clus scale="   78.649">  5  6 -1 -1</clus>
<clus scale="   91.387">  7  8 -1 -1</clus>
<clus scale="   93.022">  1  5  2 -1</clus>
<clus scale="   30.719">  1  5  2 -1</clus>
</clustering>
</event>
<event>
 9    1  0.3197504E-005  0.1954686E+03  0.7546771E-02  0.1155342E+00
          1   -1    0    0  502    0 -0.00000000000E+00  0.00000000000E+00  0.60634931698E+03  0.60634931698E+03  0.00000000000E+00 0. -1.
         21   -1    0    0  501  502  0.00000000000E+00 -0.00000000000E+00 -0.15295534756E+03  0.15295534756E+03  0.00000000000E+00 0. -1.
        -24    2    1    2    0    0  0.12638240880E+03  0.10565756111E+03  0.17271673468E+03  0.24948641166E+03  0.72638596417E+02 0.  0.
         23    2    1    2    0    0 -0.22683901455E+03 -0.20177267583E+01  0.69527821990E+02  0.25405113340E+03  0.90817677841E+02 0.  0.
         13    1    3    3    0    0  0.10326713520E+03  0.11421059340E+03  0.15875821704E+03  0.22116132649E+03  0.00000000000E+00 0. -1.
        -14    1    3    3    0    0  0.23115273597E+02 -0.85530322922E+01  0.13958517640E+02  0.28325085164E+02  0.00000000000E+00 0.  1.
        -13    1    4    4    0    0 -0.20056001251E+03 -0.45863286662E+01  0.24838450899E+02  0.20214425955E+03  0.00000000000E+00 0. -1.
         13    1    4    4    0    0 -0.26279002043E+02  0.25686019079E+01  0.44689371091E+02  0.51906873848E+02  0.00000000000E+00 0.  1.
          2    1    1    2  501    0  0.10045660575E+03 -0.10363983435E+03  0.21114941275E+03  0.25576711948E+03  0.00000000000E+00 0. -1.
<scales pt_clust_5="13000.00000" pt_clust_6="13000.00000" pt_clust_7="13000.00000" pt_clust_8="13000.00000" pt_clust_9="144.33560"></scales>
<clustering>
<clus scale="   72.639">  5  6 -1 -1</clus>
<clus scale="   90.818">  7  8 -1 -1</clus>
<clus scale="  144.336">  2  9  1 -1</clus>
<clus scale="  187.714">  1  5  2 -1</clus>
<clus scale="  144.336">  2  5  1 -1</clus>
</clustering>
</event>
<event>
 9    1  0.4379113E-005  0.1327131E+03  0.7546771E-02  0.1225537E+00
         21   -1    0    0  501  502  0.00000000000E+00  0.00000000000E+00  0.53251200941E+03  0.53251200941E+03  0.00000000000E+00 0. -1.
          1   -1    0    0  502    0 -0.00000000000E+00 -0.00000000000E+00 -0.12225153566E+03  0.12225153566E+03  0.00000000000E+00 0. -1.
         23    2    1    2    0    0 -0.81155451303E+02  0.13141278095E+02  0.10390323685E+03  0.16107581311E+03  0.91600406522E+02 0.  0.
        -24    2    1    2    0    0  0.13331360958E+03 -0.31311189671E+02  0.37367523710E+03  0.40661114320E+03  0.83345844856E+02 0.  0.
         11    1    4    4    0    0  0.13545169733E+03 -0.68260730091E+01  0.32156591767E+03  0.34899627074E+03  0.00000000000E+00 0. -1.
        -12    1    4    4    0    0 -0.21380877532E+01 -0.24485116662E+02  0.52109319425E+02  0.57614872456E+02  0.00000000000E+00 0.  1.
        -13    1    3    3    0    0 -0.14701673400E+02 -0.25172898214E+02 -0.32109075382E+01  0.29327869552E+02  0.00000000000E+00 0.  1.
         13    1    3    3    0    0 -0.66453777904E+02  0.38314176309E+02  0.10711414438E+03  0.13174794356E+03  0.00000000000E+00 0. -1.
          2    1    1    2  501    0 -0.52158158276E+02  0.18169911576E+02 -0.67318000197E+02  0.87076588771E+02  0.00000000000E+00 0. -1.
<scales pt_clust_5="13000.00000" pt_clust_6="13000.00000" pt_clust_7="13000.00000" pt_clust_8="13000.00000" pt_clust_9="55.23244"></scales>
<clustering>
<clus scale="   55.232">  1  9  2 -1</clus>
<clus scale="   83.346">  5  6 -1 -1</clus>
<clus scale="   91.600">  7  8 -1 -1</clus>
<clus scale="  127.156">  1  5  2 -1</clus>
<clus scale="   55.232">  1  5  2 -1</clus>
</clustering>
</event>
<event>
 9    1  0.3197504E-005  0.1699724E+03  0.7546771E-02  0.1179620E+00
          3   -1    0    0  502    0 -0.00000000000E+00  0.00000000000E+00  0.24052627306E+03  0.24052627306E+03  0.00000000000E+00 0. -1.
         21   -1    0    0  501  502  0.00000000000E+00 -0.00000000000E+00 -0.17033087665E+03  0.17033087665E+03  0.00000000000E+00 0. -1.
        -24    2    1    2    0    0  0.12650781039E+03  0.12943159800E+02  0.62873717831E+02  0.16368920687E+03  0.81665785852E+02 0.  0.
         23    2    1    2    0    0 -0.16606326770E+03  0.15516011876E+02  0.29280740824E+02  0.19371928457E+03  0.94085301331E+02 0.  0.
         13    1    3    3    0    0  0.56394114012E+02 -0.16862362635E+02  0.64716943616E+02  0.87480958841E+02  0.00000000000E+00 0. -1.
        -14    1    3    3    0    0  0.70113696374E+02  0.29805522435E+02 -0.18432257847E+01  0.76208248033E+02  0.00000000000E+00 0.  1.
        -13    1    4    4    0    0 -0.42495504763E+02 -0.17252728284E+02  0.45801336587E+02  0.64817335579E+02  0.00000000000E+00 0.  1.
         13    1    4    4    0    0 -0.12356776294E+03  0.32768740161E+02 -0.16520595764E+02  0.12890194899E+03  0.00000000000E+00 0. -1.
          4    1    1    2  501    0  0.39555457314E+02 -0.28459171676E+02 -0.21959062251E+02  0.53448658269E+02  0.00000000000E+00 0. -1.
<scales pt_clust_5="13000.00000" pt_clust_6="13000.00000" pt_clust_7="13000.00000" pt_clust_8="13000.00000" pt_clust_9="48.72944"></scales>
<clustering>
<clus scale="   48.729">  2  9  1 -1</clus>
<clus scale="   81.666">  5  6 -1 -1</clus>
<clus scale="   94.085">  7  8 -1 -1</clus>
<clus scale="  163.425">  1  5  2 -1</clus>
<clus scale="   48.729">  2  5  1 -1</clus>
</clustering>
</event>
<event>
 9    1  0.3197504E-005  0.9924029E+02  0.7546771E-02  0.1287906E+00
         -2   -1    0    0    0  501 -0.00000000000E+00  0.00000000000E+00  0.12077885567E+03  0.12077885567E+03  0.00000000000E+00 0.  1.
         21   -1    0    0  501  502  0.00000000000E+00 -0.00000000000E+00 -0.11355255683E+03  0.11355255683E+03  0.00000000000E+00 0.  1.
         23    2    1    2    0    0 -0.17627409643E+02  0.94739787978E+01  0.34003980288E+02  0.10236601047E+03  0.94456590975E+02 0.  0.
        -24    2    1    2    0    0  0.35624395749E+02 -0.35520668694E+02 -0.24199780628E+02  0.10020115899E+03  0.83209539132E+02 0.  0.
         11    1    4    4    0    0 -0.10220485146E+01  0.25604340312E+02 -0.10144513968E+02  0.27559716791E+02  0.00000000000E+00 0. -1.
        -12    1    4    4    0    0  0.36646444264E+02 -0.61125009006E+02 -0.14055266660E+02  0.72641442194E+02  0.00000000000E+00 0.  1.
        -13    1    3    3    0    0  0.11735344631E+02 -0.38351171538E+02  0.18342951445E+02  0.44102092237E+02  0.00000000000E+00 0. -1.
         13    1    3    3    0    0 -0.29362754273E+02  0.47825150336E+02  0.15661028843E+02  0.58263918231E+02  0.00000000000E+00 0.  1.
         -1    1    1    2    0  502 -0.17996986107E+02  0.26046689897E+02 -0.25779008179E+01  0.31764243043E+02  0.00000000000E+00 0.  1.
<scales pt_clust_5="13000.00000" pt_clust_6="13000.00000" pt_clust_7="13000.00000" pt_clust_8="13000.00000" pt_clust_9="31.65946"></scales>
<clustering>
<clus scale="   31.659">  2  9  1 -1</clus>
<clus scale="   83.210">  5  6 -1 -1</clus>
<clus scale="   88.603">  2  5  1 -1</clus>
<clus scale="   94.457">  7  8 -1 -1</clus>
<clus scale="   31.659">  2  5  1 -1</clus>
</clustering>
</event>
<event>
 9    1  0.3197504E-005  0.1268254E+03  0.7546771E-02  0.1232477E+00
         21   -1    0    0  501  502  0.00000000000E+00  0.00000000000E+00  0.84947723248E+03  0.84947723248E+03  0.00000000000E+00 0.  1.
          3   -1    0    0  502    0 -0.00000000000E+00 -0.00000000000E+00 -0.23169101720E+02  0.23169101720E+02  0.00000000000E+00 0. -1.
         23    2    1    2    0    0  0.76444917884E+02  0.21124386419E+02  0.36047238301E+03  0.37972917416E+03  0.89240358694E+02 0.  0.
        -24    2    1    2    0    0 -0.10130162048E+03 -0.13497975753E+02  0.38735993317E+03  0.41024629893E+03  0.88374737895E+02 0.  0.
         11    1    4    4    0    0 -0.85559000748E+02 -0.46739668531E+02  0.25984219092E+03  0.27753000451E+03  0.00000000000E+00 0. -1.
        -12    1    4    4    0    0 -0.15742619734E+02  0.33241692778E+02  0.12751774225E+03  0.13271629441E+03  0.00000000000E+00 0.  1.
        -13    1    3    3    0    0  0.61749957698E+02  0.54824291018E+02  0.25441388377E+03  0.26747931586E+03  0.00000000000E+00 0.  1.
         13    1    3    3    0    0  0.14694960186E+02 -0.33699904599E+02  0.10605849924E+03  0.11224985829E+03  0.00000000000E+00 0. -1.
          4    1    1    2  501    0  0.24856702598E+02 -0.76264106656E+01  0.78475814582E+02  0.82670861118E+02  0.00000000000E+00 0. -1.
<scales pt_clust_5="13000.00000" pt_clust_6="13000.00000" pt_clust_7="13000.00000" pt_clust_8="13000.00000" pt_clust_9="26.00034"></scales>
<clustering>
<clus scale="   26.000">  1  9  2 -1</clus>
<clus scale="   88.375">  5  6 -1 -1</clus>
<clus scale="   89.240">  7  8 -1 -1</clus>
<clus scale="  126.218">  1  5  2 -1</clus>
<clus scale="   26.000">  1  5  2 -1</clus>
</clustering>
</event>
<event>
 9    1  0.3197504E-005  0.1060848E+03  0.7546771E-02  0.1277023E+00
         21   -1    0    0  501  502  0.00000000000E+00  0.00000000000E+00  0.99624831481E+02  0.99624831481E+02  0.00000000000E+00 0. -1.
         -4   -1    0    0    0  501 -0.00000000000E+00 -0.00000000000E+00 -0.20877941593E+03  0.20877941593E+03  0.00000000000E+00 0.  1.
        -24    2    1    2    0    0  0.16544207534E+01  0.36881328566E+02 -0.95594100187E+02  0.13025948661E+03  0.80413508539E+02 0.  0.
         23    2    1    2    0    0 -0.59496885930E+02 -0.29569686182E+02 -0.13268478377E+02  0.11984127755E+03  0.98851573134E+02 0.  0.
         13    1    3    3    0    0 -0.21365787107E+02 -0.13560136739E+02 -0.79051664164E+01  0.26511616759E+02  0.00000000000E+00 0. -1.
        -14    1    3    3    0    0  0.23020207861E+02  0.50441465305E+02 -0.87688933771E+02  0.10374786985E+03  0.00000000000E+00 0.  1.
        -13    1    4    4    0    0 -0.20417411052E+02  0.34321903342E+02  0.10449020690E+02  0.41280089104E+02  0.00000000000E+00 0. -1.
         13    1    4    4    0    0 -0.39079474879E+02 -0.63891589524E+02 -0.23717499067E+02  0.78561188450E+02  0.00000000000E+00 0.  1.
         -3    1    1    2    0  502  0.57842465177E+02 -0.73116423838E+01 -0.29200588804E+00  0.58303483254E+02  0.00000000000E+00 0.  1.
<scales pt_clust_5="13000.00000" pt_clust_6="13000.00000" pt_clust_7="13000.00000" pt_clust_8="13000.00000" pt_clust_9="58.30275"></scales>
<clustering>
<clus scale="   58.303">  1  9  2 -1</clus>
<clus scale="   80.414">  5  6 -1 -1</clus>
<clus scale="   89.155">  2  5  1 -1</clus>
<clus scale="   98.852">  7  8 -1 -1</clus>
<clus scale="   58.303">  1  5  2 -1</clus>
</clustering>
</event>
<event>
 9    1  0.3754704E-005  0.1275837E+03  0.7546771E-02  0.1234177E+00
         21   -1    0    0  501  502  0.00000000000E+00  0.00000000000E+00  0.19859269538E+03  0.19859269538E+03  0.00000000000E+00 0. -1.
          1   -1    0    0  502    0 -0.00000000000E+00 -0.00000000000E+00 -0.55280989662E+03  0.55280989662E+03  0.00000000000E+00 0. -1.
        -24    2    1    2    0    0  0.41746882849E+02  0.92506397088E+02 -0.48208285570E+03  0.49889311491E+03  0.78677980507E+02 0.  0.
         23    2    1    2    0    0 -0.41277182400E+02 -0.46789956493E+01  0.23531869863E+01  0.99319227559E+02  0.90183549979E+02 0.  0.
         13    1    3    3    0    0  0.37838725283E+02  0.73312189058E+02 -0.46683777537E+03  0.47407167676E+03  0.00000000000E+00 0. -1.
        -14    1    3    3    0    0  0.39081575663E+01  0.19194208030E+02 -0.15245080325E+02  0.24821438145E+02  0.00000000000E+00 0.  1.
        -11    1    4    4    0    0  0.15303067286E+02 -0.31708381933E+02  0.87785423467E+01  0.36285922324E+02  0.00000000000E+00 0.  1.
         11    1    4    4    0    0 -0.56580249686E+02  0.27029386284E+02 -0.64253553603E+01  0.63033305235E+02  0.00000000000E+00 0. -1.
          2    1    1    2  501    0 -0.46970044914E+00 -0.87827401439E+02  0.12551246747E+03  0.15319024954E+03  0.00000000000E+00 0. -1.
<scales pt_clust_5="13000.00000" pt_clust_6="13000.00000" pt_clust_7="13000.00000" pt_clust_8="13000.00000" pt_clust_9="87.82866"></scales>
<clustering>
<clus scale="   78.678">  5  6 -1 -1</clus>
<clus scale="   87.829">  1  9  2 -1</clus>
<clus scale="   90.184">  7  8 -1 -1</clus>
<clus scale="  119.728">  2  5  1 -1</clus>
<clus scale="   87.829">  1  5  2 -1</clus>
</clustering>
</event>
<event>
 9    1  0.3197504E-005  0.1259459E+03  0.7546771E-02  0.1237778E+00
         21   -1    0    0  501  502  0.00000000000E+00  0.00000000000E+00  0.60012479697E+02  0.60012479697E+02  0.00000000000E+00 0. -1.
         -4   -1    0    0    0  501 -0.00000000000E+00 -0.00000000000E+00 -0.73665849181E+03  0.73665849181E+03  0.00000000000E+00 0.  1.
        -24    2    1    2    0    0  0.59712635583E+02 -0.49593806897E+02 -0.26150357486E+03  0.28323243826E+03  0.76232210292E+02 0.  0.
         23    2    1    2    0    0 -0.41314503279E+02  0.13346910909E+03 -0.11849446232E+03  0.20461240317E+03  0.91128517308E+02 0.  0.
         11    1    3    3    0    0  0.71015960585E+02 -0.15252800376E+02 -0.17310836353E+03  0.18772964630E+03  0.00000000000E+00 0. -1.
        -12    1    3    3    0    0 -0.11303325002E+02 -0.34341006521E+02 -0.88395211328E+02  0.95502791953E+02  0.00000000000E+00 0.  1.
        -13    1    4    4    0    0 -0.64126260732E+02  0.12445781859E+03 -0.87552141606E+02  0.16512814243E+03  0.00000000000E+00 0. -1.
         13    1    4    4    0    0  0.22811757452E+02  0.90112905015E+01 -0.30942320717E+02  0.39484260737E+02  0.00000000000E+00 0.  1.
         -3    1    1    2    0  502 -0.18398132304E+02 -0.83875302194E+02 -0.29664797493E+03  0.30882613008E+03  0.00000000000E+00 0.  1.
<scales pt_clust_5="13000.00000" pt_clust_6="13000.00000" pt_clust_7="13000.00000" pt_clust_8="13000.00000" pt_clust_9="85.86946"></scales>
<clustering>
<clus scale="   76.232">  5  6 -1 -1</clus>
<clus scale="   85.869">  1  9  2 -1</clus>
<clus scale="   91.129">  7  8 -1 -1</clus>
<clus scale="  115.626">  2  5  1 -1</clus>
<clus scale="   85.869">  1  5  2 -1</clus>
</clustering>
</event>
<event>
 9    1  0.3197504E-005  0.1530298E+03  0.7546771E-02  0.1198560E+00
         21   -1    0    0  501  502  0.00000000000E+00  0.00000000000E+00  0.28366132294E+03  0.28366132294E+03  0.00000000000E+00 0. -1.
         -2   -1    0    0    0  501 -0.00000000000E+00 -0.00000000000E+00 -0.44445004072E+03  0.44445004072E+03  0.00000000000E+00 0.  1.
         23    2    1    2    0    0 -0.89622582553E+02 -0.69450983647E+02 -0.30661381588E+03  0.33975092805E+03  0.92536558145E+02 0.  0.
        -24    2    1    2    0    0  0.11536646143E+03  0.10464910249E+03 -0.53541598651E+02  0.18428021941E+03  0.82653744050E+02 0.  0.
         11    1    4    4    0    0  0.64741718287E+02  0.75703321375E+02 -0.72229817034E+02  0.12304320145E+03  0.00000000000E+00 0. -1.
        -12    1    4    4    0    0  0.50624743144E+02  0.28945781116E+02  0.18688218383E+02  0.61237017964E+02  0.00000000000E+00 0.  1.
        -13    1    3    3    0    0 -0.46235237232E+02 -0.16225581997E+02 -0.36647836429E+02  0.61188484113E+02  0.00000000000E+00 0.  1.
         13    1    3    3    0    0 -0.43387345321E+02 -0.53225401650E+02 -0.26996597945E+03  0.27856244394E+03  0.00000000000E+00 0. -1.
         -1    1    1    2    0  502 -0.25743878878E+02 -0.35198118843E+02  0.19936669675E+03  0.20408021620E+03  0.00000000000E+00 0.  1.
<scales pt_clust_5="13000.00000" pt_clust_6="13000.00000" pt_clust_7="13000.00000" pt_clust_8="13000.00000" pt_clust_9="43.60797"></scales>
<clustering>
<clus scale="   43.608">  1  9  2 -1</clus>
<clus scale="   82.654">  5  6 -1 -1</clus>
<clus scale="   92.537">  7  8 -1 -1</clus>
<clus scale="  147.264">  1  5  2 -1</clus>
<clus scale="   43.608">  1  5  2 -1</clus>
</clustering>
</event>
<event>
 9    1  0.3197504E-005  0.1442039E+03  0.7546771E-02  0.1209107E+00
         21   -1    0    0  501  502  0.00000000000E+00  0.00000000000E+00  0.13435596462E+03  0.13435596462E+03  0.00000000000E+00 0.  1.
          1   -1    0    0  502    0 -0.00000000000E+00 -0.00000000000E+00 -0.22616530134E+03  0.22616530134E+03  0.00000000000E+00 0. -1.
        -24    2    1    2    0    0  0.12740474692E+02 -0.11478055399E+03 -0.84667328686E+02  0.16476810722E+03  0.81505075548E+02 0.  0.
         23    2    1    2    0    0 -0.36081450017E+02  0.10663959257E+03  0.34657088528E+02  0.14719143663E+03  0.88262854550E+02 0.  0.
         11    1    3    3    0    0 -0.18816786003E+02 -0.10693149344E+03 -0.69258638470E+02  0.12878344120E+03  0.00000000000E+00 0. -1.
        -12    1    3    3    0    0  0.31557260695E+02 -0.78490605456E+01 -0.15408690216E+02  0.35984666015E+02  0.00000000000E+00 0.  1.
        -11    1    4    4    0    0 -0.63954792205E+02  0.90218053401E+02  0.29267823535E+02  0.11439457199E+03  0.00000000000E+00 0.  1.
         11    1    4    4    0    0  0.27873342188E+02  0.16421539172E+02  0.53892649927E+01  0.32796864647E+02  0.00000000000E+00 0. -1.
          2    1    1    2  501    0  0.23340975325E+02  0.81409614134E+01 -0.41799096557E+02  0.48561722116E+02  0.00000000000E+00 0. -1.
<scales pt_clust_5="13000.00000" pt_clust_6="13000.00000" pt_clust_7="13000.00000" pt_clust_8="13000.00000" pt_clust_9="24.71997"></scales>
<clustering>
<clus scale="   24.720">  1  9  2 -1</clus>
<clus scale="   81.505">  5  6 -1 -1</clus>
<clus scale="   88.263">  7  8 -1 -1</clus>
<clus scale="  140.170">  2  5  1 -1</clus>
<clus scale="   24.720">  1  5  2 -1</clus>
</clustering>
</event>
<event>
 9    1  0.3197504E-005  0.9474545E+02  0.7546771E-02  0.1299850E+00
         21   -1    0    0  501  502  0.00000000000E+00  0.00000000000E+00  0.11823580276E+03  0.11823580276E+03  0.00000000000E+00 0. -1.
         -2   -1    0    0    0  501 -0.00000000000E+00 -0.00000000000E+00 -0.33972237459E+03  0.33972237459E+03  0.00000000000E+00 0.  1.
        -24    2    1    2    0    0  0.20445135047E+01 -0.16749272735E+02 -0.28092386360E+03  0.29233414965E+03  0.79096900946E+02 0.  0.
         23    2    1    2    0    0 -0.26558984781E+02  0.50780872497E+02  0.26074988616E+02  0.11203156222E+03  0.92666548534E+02 0.  0.
         13    1    3    3    0    0  0.21369802960E+02  0.11323290049E+02 -0.27469399539E+02  0.36598542144E+02  0.00000000000E+00 0. -1.
        -14    1    3    3    0    0 -0.19325289456E+02 -0.28072562783E+02 -0.25345446406E+03  0.25573560750E+03  0.00000000000E+00 0.  1.
        -13    1    4    4    0    0 -0.12582302417E+01  0.43667588176E+02 -0.28013448251E+02  0.51895998722E+02  0.00000000000E+00 0. -1.
         13    1    4    4    0    0 -0.25300754539E+02  0.71132843204E+01  0.54088436867E+02  0.60135563494E+02  0.00000000000E+00 0.  1.
         -1    1    1    2    0  502  0.24514471276E+02 -0.34031599762E+02  0.33362303151E+02  0.53592465477E+02  0.00000000000E+00 0.  1.
<scales pt_clust_5="13000.00000" pt_clust_6="13000.00000" pt_clust_7="13000.00000" pt_clust_8="13000.00000" pt_clust_9="41.94173"></scales>
<clustering>
<clus scale="   41.942">  1  9  2 -1</clus>
<clus scale="   79.097">  5  6 -1 -1</clus>
<clus scale="   81.523">  2  5  1 -1</clus>
<clus scale="   92.667">  7  8 -1 -1</clus>
<clus scale="   41.942">  1  5  2 -1</clus>
</clustering>
</event>
<event>
 9    1  0.3197504E-005  0.1097240E+03  0.7546771E-02  0.1265755E+00
          1   -1    0    0  502    0 -0.00000000000E+00  0.00000000000E+00  0.50028399666E+03  0.50028399666E+03  0.00000000000E+00 0. -1.
         21   -1    0    0  501  502  0.00000000000E+00 -0.00000000000E+00 -0.52193055899E+02  0.52193055899E+02  0.00000000000E+00 0. -1.
        -24    2    1    2    0    0 -0.12151157055E+02  0.65581846765E+02  0.36373493047E+03  0.37799529258E+03  0.78286092776E+02 0.  0.
         23    2    1    2    0    0 -0.22007958896E+02 -0.43341045378E+02  0.30461633600E+02  0.10690881948E+03  0.90215232044E+02 0.  0.
         11    1    3    3    0    0  0.14356878863E+02  0.70251734958E+02  0.20954192726E+03  0.22147064256E+03  0.00000000000E+00 0. -1.
        -12    1    3    3    0    0 -0.26508035918E+02 -0.46698881936E+01  0.15419300321E+03  0.15652465002E+03  0.00000000000E+00 0.  1.
        -11    1    4    4    0    0 -0.21041958872E+02 -0.13205434256E+02  0.59852225357E+02  0.64803058626E+02  0.00000000000E+00 0.  1.
         11    1    4    4    0    0 -0.96600002337E+00 -0.30135611122E+02 -0.29390591756E+02  0.42105760859E+02  0.00000000000E+00 0. -1.
          2    1    1    2  501    0  0.34159115950E+02 -0.22240801387E+02  0.53894376689E+02  0.67572940498E+02  0.00000000000E+00 0. -1.
<scales pt_clust_5="13000.00000" pt_clust_6="13000.00000" pt_clust_7="13000.00000" pt_clust_8="13000.00000" pt_clust_9="40.76148"></scales>
<clustering>
<clus scale="   40.761">  2  9  1 -1</clus>
<clus scale="   78.286">  5  6 -1 -1</clus>
<clus scale="   90.215">  7  8 -1 -1</clus>
<clus scale="  100.146">  1  5  2 -1</clus>
<clus scale="   40.761">  2  5  1 -1</clus>
</clustering>
</event>
<event>
 9    1  0.3197504E-005  0.1368898E+03  0.7546771E-02  0.1237328E+00
         21   -1    0    0  501  502  0.00000000000E+00  0.00000000000E+00  0.36170628986E+02  0.36170628986E+02  0.00000000000E+00 0. -1.
          1   -1    0    0  502    0 -0.00000000000E+00 -0.00000000000E+00 -0.86476802107E+03  0.86476802107E+03  0.00000000000E+00 0. -1.
        -24    2    1    2    0    0 -0.43309912035E+01 -0.36192922007E+02 -0.28649586935E+03  0.30056509013E+03  0.83251457411E+02 0.  0.
         23    2    1    2    0    0  0.15135802727E+02  0.12742662673E+03 -0.41063658634E+03  0.43998851595E+03  0.92200056419E+02 0.  0.
         13    1    3    3    0    0 -0.15663169020E+02 -0.59689690614E+02 -0.16177899848E+03  0.17314917955E+03  0.00000000000E+00 0. -1.
        -14    1    3    3    0    0  0.11332177816E+02  0.23496768607E+02 -0.12471687087E+03  0.12741591058E+03  0.00000000000E+00 0.  1.
        -11    1    4    4    0    0  0.41091414477E+02  0.12541777278E+03 -0.34282728873E+03  0.36735360617E+03  0.00000000000E+00 0. -1.
         11    1    4    4    0    0 -0.25955611750E+02  0.20088539489E+01 -0.67809297617E+02  0.72634909781E+02  0.00000000000E+00 0.  1.
          2    1    1    2  501    0 -0.10804811524E+02 -0.91233704726E+02 -0.13146493639E+03  0.16038504397E+03  0.00000000000E+00 0. -1.
<scales pt_clust_5="13000.00000" pt_clust_6="13000.00000" pt_clust_7="13000.00000" pt_clust_8="13000.00000" pt_clust_9="101.18287"></scales>
<clustering>
<clus scale="   83.251">  5  6 -1 -1</clus>
<clus scale="   90.882">  2  5  1 -1</clus>
<clus scale="   92.200">  7  8 -1 -1</clus>
<clus scale="  101.183">  1  9  2 -1</clus>
<clus scale="  101.183">  1  5  2 -1</clus>
</clustering>
</event>
<event>
 9    1  0.3197504E-005  0.9609420E+02  0.7546771E-02  0.1294903E+00
         21   -1    0    0  501  502  0.00000000000E+00  0.00000000000E+00  0.67843360454E+03  0.67843360454E+03  0.00000000000E+00 0. -1.
          1   -1    0    0  502    0 -0.00000000000E+00 -0.00000000000E+00 -0.15100253306E+03  0.15100253306E+03  0.00000000000E+00 0. -1.
        -24    2    1    2    0    0 -0.19036181623E+02  0.25558427538E+02 -0.12528207874E+03  0.15201428578E+03  0.79982087998E+02 0.  0.
         23    2    1    2    0    0  0.31872631996E+02  0.43594288581E+02  0.46648304541E+03  0.47835270670E+03  0.91096397761E+02 0.  0.
         11    1    3    3    0    0 -0.32403117188E+02  0.15156778718E+02 -0.12967327267E+03  0.13451709033E+03  0.00000000000E+00 0. -1.
        -12    1    3    3    0    0  0.13366935565E+02  0.10401648820E+02  0.43911939373E+01  0.17497195454E+02  0.00000000000E+00 0.  1.
        -11    1    4    4    0    0 -0.55758091553E+00 -0.25288812741E+02  0.65679951244E+02  0.70382461891E+02  0.00000000000E+00 0.  1.
         11    1    4    4    0    0  0.32430212912E+02  0.68883101321E+02  0.40080309416E+03  0.40797024481E+03  0.00000000000E+00 0. -1.
          2    1    1    2  501    0 -0.12836450374E+02 -0.69152716119E+02  0.18623010480E+03  0.19906914512E+03  0.00000000000E+00 0. -1.
<scales pt_clust_5="13000.00000" pt_clust_6="13000.00000" pt_clust_7="13000.00000" pt_clust_8="13000.00000" pt_clust_9="70.33401"></scales>
<clustering>
<clus scale="   70.334">  1  9  2 -1</clus>
<clus scale="   79.982">  5  6 -1 -1</clus>
<clus scale="   85.631">  2  5  1 -1</clus>
<clus scale="   91.096">  7  8 -1 -1</clus>
<clus scale="   70.334">  1  5  2 -1</clus>
</clustering>
</event>
<event>
 9    1  0.3197504E-005  0.1462994E+03  0.7546771E-02  0.1206213E+00
         21   -1    0    0  501  502  0.00000000000E+00  0.00000000000E+00  0.48203878329E+02  0.48203878329E+02  0.00000000000E+00 0. -1.
         -2   -1    0    0    0  501 -0.00000000000E+00 -0.00000000000E+00 -0.57043397704E+03  0.57043397704E+03  0.00000000000E+00 0.  1.
         23    2    1    2    0    0  0.85194991838E+02  0.72369050625E+02 -0.28775136780E+03  0.32158025442E+03  0.90097415280E+02 0.  0.
        -24    2    1    2    0    0 -0.10766349328E+03 -0.59002899520E+02 -0.16229388711E+03  0.22028430333E+03  0.84339187586E+02 0.  0.
         13    1    4    4    0    0 -0.26752329837E+02 -0.61982541946E+02 -0.65097143851E+02  0.93782518602E+02  0.00000000000E+00 0. -1.
        -14    1    4    4    0    0 -0.80911163448E+02  0.29796424252E+01 -0.97196743262E+02  0.12650178473E+03  0.00000000000E+00 0.  1.
        -11    1    3    3    0    0  0.38673354516E+02  0.78730664470E+02 -0.12874898756E+03  0.15578975472E+03  0.00000000000E+00 0. -1.
         11    1    3    3    0    0  0.46521637323E+02 -0.63616138446E+01 -0.15900238024E+03  0.16579049970E+03  0.00000000000E+00 0.  1.
         -1    1    1    2    0  502  0.22468501446E+02 -0.13366151105E+02 -0.72184843800E+02  0.76773297617E+02  0.00000000000E+00 0.  1.
<scales pt_clust_5="13000.00000" pt_clust_6="13000.00000" pt_clust_7="13000.00000" pt_clust_8="13000.00000" pt_clust_9="26.14361"></scales>
<clustering>
<clus scale="   26.144">  1  9  2 -1</clus>
<clus scale="   84.339">  5  6 -1 -1</clus>
<clus scale="   90.097">  7  8 -1 -1</clus>
<clus scale="  142.825">  1  5  2 -1</clus>
<clus scale="   26.144">  1  5  2 -1</clus>
</clustering>
</event>
<event>
 9    1  0.3197504E-005  0.1985148E+03  0.7546771E-02  0.1151967E+00
          1   -1    0    0  502    0 -0.00000000000E+00  0.00000000000E+00  0.81179718463E+03  0.81179718463E+03  0.00000000000E+00 0. -1.
         21   -1    0    0  501  502  0.00000000000E+00 -0.00000000000E+00 -0.69859757334E+02  0.69859757334E+02  0.00000000000E+00 0. -1.
         23    2    1    2    0    0 -0.19828155006E+03 -0.29089235154E+02  0.53159544173E+03  0.57532294691E+03  0.90780079766E+02 0.  0.
        -24    2    1    2    0    0  0.13578956353E+03  0.26738481863E+02  0.14772552298E+03  0.21783769113E+03  0.80477807882E+02 0.  0.
         13    1    4    4    0    0  0.68685460609E+02  0.49392628273E+02  0.10604947647E+03  0.13566066374E+03  0.00000000000E+00 0. -1.
        -14    1    4    4    0    0  0.67104102917E+02 -0.22654146410E+02  0.41676046515E+02  0.82177027392E+02  0.00000000000E+00 0.  1.
        -13    1    3    3    0    0 -0.11355227182E+03 -0.11924659488E+02  0.17923531030E+03  0.21251261703E+03  0.00000000000E+00 0.  1.
         13    1    3    3    0    0 -0.84729278239E+02 -0.17164575666E+02  0.35236013143E+03  0.36281032988E+03  0.00000000000E+00 0. -1.
          2    1    1    2  501    0  0.62491986529E+02  0.23507532913E+01  0.62616462587E+02  0.88496303924E+02  0.00000000000E+00 0. -1.
<scales pt_clust_5="13000.00000" pt_clust_6="13000.00000" pt_clust_7="13000.00000" pt_clust_8="13000.00000" pt_clust_9="62.53618"></scales>
<clustering>
<clus scale="   62.536">  2  9  1 -1</clus>
<clus scale="   80.478">  5  6 -1 -1</clus>
<clus scale="   90.780">  7  8 -1 -1</clus>
<clus scale="  194.020">  2  5  1 -1</clus>
<clus scale="   62.536">  2  5  1 -1</clus>
</clustering>
</event>
<event>
 9    1  0.3197504E-005  0.1962780E+03  0.7546771E-02  0.1153868E+00
         21   -1    0    0  501  502  0.00000000000E+00  0.00000000000E+00  0.32828280572E+03  0.32828280572E+03  0.00000000000E+00 0.  1.
          1   -1    0    0  502    0 -0.00000000000E+00 -0.00000000000E+00 -0.17420240627E+03  0.17420240627E+03  0.00000000000E+00 0. -1.
         23    2    1    2    0    0 -0.90491181238E+02 -0.16239410434E+03 -0.36005851582E+02  0.20997244081E+03  0.90727644891E+02 0.  0.
        -24    2    1    2    0    0  0.53821438272E+02  0.13558390079E+03  0.18108288622E+03  0.24620383423E+03  0.80904727529E+02 0.  0.
         11    1    4    4    0    0  0.46368227310E+02  0.12372846803E+03  0.10480189870E+03  0.16864810783E+03  0.00000000000E+00 0. -1.
        -12    1    4    4    0    0  0.74532109617E+01  0.11855432762E+02  0.76280987526E+02  0.77555726401E+02  0.00000000000E+00 0.  1.
        -13    1    3    3    0    0 -0.21178566030E+02 -0.11465273455E+03  0.42656978070E+01  0.11667037917E+03  0.00000000000E+00 0. -1.
         13    1    3    3    0    0 -0.69312615208E+02 -0.47741369791E+02 -0.40271549389E+02  0.93302061642E+02  0.00000000000E+00 0.  1.
          2    1    1    2  501    0  0.36669742966E+02  0.26810203546E+02  0.90033648157E+01  0.46308936949E+02  0.00000000000E+00 0. -1.
<scales pt_clust_5="13000.00000" pt_clust_6="13000.00000" pt_clust_7="13000.00000" pt_clust_8="13000.00000" pt_clust_9="45.42531"></scales>
<clustering>
<clus scale="   45.425">  1  9  2 -1</clus>
<clus scale="   80.905">  5  6 -1 -1</clus>
<clus scale="   90.728">  7  8 -1 -1</clus>
<clus scale="  191.935">  1  5  2 -1</clus>
<clus scale="   45.425">  1  5  2 -1</clus>
</clustering>
</event>
<event>
 9    1  0.3197504E-005  0.1521221E+03  0.7546771E-02  0.1220832E+00
         -4   -1    0    0    0  501 -0.00000000000E+00  0.00000000000E+00  0.75785309817E+02  0.75785309817E+02  0.00000000000E+00 0.  1.
         21   -1    0    0  501  502  0.00000000000E+00 -0.00000000000E+00 -0.61994356711E+03  0.61994356711E+03  0.00000000000E+00 0.  1.
        -24    2    1    2    0    0 -0.24684601847E+02  0.36025422087E+02 -0.23980595556E+03  0.25726204994E+03  0.82278219552E+02 0.  0.
         23    2    1    2    0    0  0.16844527674E+02 -0.13343767790E+03 -0.29981285232E+03  0.34063421000E+03  0.89747237347E+02 0.  0.
         11    1    3    3    0    0 -0.46658941247E+02  0.46088459801E+02 -0.14043525905E+03  0.15499440283E+03  0.00000000000E+00 0. -1.
        -12    1    3    3    0    0  0.21974339400E+02 -0.10063037714E+02 -0.99370696506E+02  0.10226764710E+03  0.00000000000E+00 0.  1.
        -11    1    4    4    0    0 -0.36744990243E+02 -0.64787535717E+02 -0.14472330913E+03  0.16276503095E+03  0.00000000000E+00 0.  1.
         11    1    4    4    0    0  0.53589517917E+02 -0.68650142183E+02 -0.15508954319E+03  0.17786917906E+03  0.00000000000E+00 0. -1.
         -3    1    1    2    0  502  0.78400741731E+01  0.97412255813E+02 -0.45394494171E+01  0.97832616988E+02  0.00000000000E+00 0.  1.
<scales pt_clust_5="13000.00000" pt_clust_6="13000.00000" pt_clust_7="13000.00000" pt_clust_8="13000.00000" pt_clust_9="122.82739"></scales>
<clustering>
<clus scale="   82.278">  5  6 -1 -1</clus>
<clus scale="   89.747">  7  8 -1 -1</clus>
<clus scale="   93.150">  1  5  2 -1</clus>
<clus scale="  122.827">  2  9  1 -1</clus>
<clus scale="  122.827">  2  5  1 -1</clus>
</clustering>
</event>
<event>
 9    1  0.3197504E-005  0.9251815E+02  0.7546771E-02  0.1301831E+00
         21   -1    0    0  501  502  0.00000000000E+00  0.00000000000E+00  0.12191053350E+03  0.12191053350E+03  0.00000000000E+00 0. -1.
         -2   -1    0    0    0  501 -0.00000000000E+00 -0.00000000000E+00 -0.23440470083E+03  0.23440470083E+03  0.00000000000E+00 0.  1.
         23    2    1    2    0    0  0.83489361250E+01 -0.20324376691E+02 -0.18305620731E+03  0.20488794005E+03  0.89368383231E+02 0.  0.
        -24    2    1    2    0    0  0.14778933308E+02  0.47203663350E+02  0.66238911191E+02  0.11570497859E+03  0.80953357011E+02 0.  0.
         13    1    4    4    0    0  0.37012989168E+02  0.46981694612E+02  0.71134362958E+02  0.92937283096E+02  0.00000000000E+00 0. -1.
        -14    1    4    4    0    0 -0.22234055860E+02  0.22196873808E+00 -0.48954517675E+01  0.22767695494E+02  0.00000000000E+00 0.  1.
        -13    1    3    3    0    0  0.22633868102E+02  0.28517169017E+02 -0.10989893482E+03  0.11577260811E+03  0.00000000000E+00 0. -1.
         13    1    3    3    0    0 -0.14284931977E+02 -0.48841545708E+02 -0.73157272490E+02  0.89115331941E+02  0.00000000000E+00 0.  1.
         -1    1    1    2    0  502 -0.23127869433E+02 -0.26879286658E+02  0.43231287894E+01  0.35722315690E+02  0.00000000000E+00 0.  1.
<scales pt_clust_5="13000.00000" pt_clust_6="13000.00000" pt_clust_7="13000.00000" pt_clust_8="13000.00000" pt_clust_9="35.45976"></scales>
<clustering>
<clus scale="   35.460">  1  9  2 -1</clus>
<clus scale="   80.953">  5  6 -1 -1</clus>
<clus scale="   84.418">  1  5  2 -1</clus>
<clus scale="   89.368">  7  8 -1 -1</clus>
<clus scale="   35.460">  1  5  2 -1</clus>
</clustering>
</event>
<event>
 9    1  0.3197504E-005  0.1264781E+03  0.7546771E-02  0.1237670E+00
         21   -1    0    0  501  502  0.00000000000E+00  0.00000000000E+00  0.86566720918E+02  0.86566720918E+02  0.00000000000E+00 0. -1.
         -2   -1    0    0    0  501 -0.00000000000E+00 -0.00000000000E+00 -0.28607151472E+03  0.28607151472E+03  0.00000000000E+00 0.  1.
         23    2    1    2    0    0  0.69426602949E+02  0.50769220806E+02 -0.20332235848E+03  0.24093699199E+03  0.96504329801E+02 0.  0.
        -24    2    1    2    0    0 -0.64624049103E+02 -0.30570808459E+02 -0.83173886263E+01  0.10765342719E+03  0.80057725294E+02 0.  0.
         13    1    4    4    0    0 -0.35709464923E+02 -0.26159989236E+02  0.34275251775E+02  0.55984853364E+02  0.00000000000E+00 0. -1.
        -14    1    4    4    0    0 -0.28914584180E+02 -0.44108192227E+01 -0.42592640402E+02  0.51668573823E+02  0.00000000000E+00 0.  1.
        -13    1    3    3    0    0  0.44976084806E+02  0.11796859829E+02 -0.17788551510E+02  0.49784000151E+02  0.00000000000E+00 0. -1.
         13    1    3    3    0    0  0.24450518143E+02  0.38972360977E+02 -0.18553380697E+03  0.19115299183E+03  0.00000000000E+00 0.  1.
         -1    1    1    2    0  502 -0.48025538455E+01 -0.20198412347E+02  0.12134953310E+02  0.24047816462E+02  0.00000000000E+00 0.  1.
<scales pt_clust_5="13000.00000" pt_clust_6="13000.00000" pt_clust_7="13000.00000" pt_clust_8="13000.00000" pt_clust_9="20.76151"></scales>
<clustering>
<clus scale="   20.762">  1  9  2 -1</clus>
<clus scale="   80.058">  5  6 -1 -1</clus>
<clus scale="   96.504">  7  8 -1 -1</clus>
<clus scale="  114.424">  1  5  2 -1</clus>
<clus scale="   20.762">  1  5  2 -1</clus>
</clustering>
</event>
<event>
 9    1  0.3197504E-005  0.9288735E+02  0.7546771E-02  0.1301989E+00
         21   -1    0    0  501  502  0.00000000000E+00  0.00000000000E+00  0.79374816540E+02  0.79374816540E+02  0.00000000000E+00 0.  1.
          1   -1    0    0  502    0 -0.00000000000E+00 -0.00000000000E+00 -0.23204908783E+03  0.23204908783E+03  0.00000000000E+00 0. -1.
         23    2    1    2    0    0  0.28728131429E+02  0.13532667847E+02 -0.11404646936E+03  0.14913547704E+03  0.90699254159E+02 0.  0.
        -24    2    1    2    0    0  0.21800462742E+02 -0.77076379707E+01  0.18309339694E+02  0.85941142513E+02  0.80721621624E+02 0.  0.
         13    1    4    4    0    0  0.30969041358E+01  0.32101408100E+02 -0.98430816631E+01  0.33719096575E+02  0.00000000000E+00 0. -1.
        -14    1    4    4    0    0  0.18703558607E+02 -0.39809046071E+02  0.28152421358E+02  0.52222045938E+02  0.00000000000E+00 0.  1.
        -11    1    3    3    0    0  0.60694581324E+02  0.93286728604E+01 -0.89826210002E+02  0.10880994597E+03  0.00000000000E+00 0.  1.
         11    1    3    3    0    0 -0.31966449894E+02  0.42039949867E+01 -0.24220259356E+02  0.40325531069E+02  0.00000000000E+00 0. -1.
          2    1    1    2  501    0 -0.50528594171E+02 -0.58250298764E+01 -0.56937141627E+02  0.76347284815E+02  0.00000000000E+00 0. -1.
<scales pt_clust_5="13000.00000" pt_clust_6="13000.00000" pt_clust_7="13000.00000" pt_clust_8="13000.00000" pt_clust_9="50.86327"></scales>
<clustering>
<clus scale="   50.863">  1  9  2 -1</clus>
<clus scale="   80.722">  5  6 -1 -1</clus>
<clus scale="   83.173">  1  5  2 -1</clus>
<clus scale="   90.699">  7  8 -1 -1</clus>
<clus scale="   50.863">  1  5  2 -1</clus>
</clustering>
</event>
<event>
 9    1  0.3197504E-005  0.2361902E+03  0.7546771E-02  0.1160403E+00
         21   -1    0    0  501  502  0.00000000000E+00  0.00000000000E+00  0.51572283397E+03  0.51572283397E+03  0.00000000000E+00 0. -1.
         -2   -1    0    0    0  501 -0.00000000000E+00 -0.00000000000E+00 -0.15720874439E+03  0.15720874439E+03  0.00000000000E+00 0.  1.
        -24    2    1    2    0    0 -0.25508836247E+01  0.48113145487E+02  0.34046447101E+02  0.10047618953E+03  0.81332172765E+02 0.  0.
         23    2    1    2    0    0 -0.77162259573E+02 -0.22286570787E+03  0.27663793313E+03  0.37451518485E+03  0.90055202996E+02 0.  0.
         11    1    3    3    0    0  0.18179178623E+02  0.10121756178E+02  0.50152467172E+02  0.54297352117E+02  0.00000000000E+00 0. -1.
        -12    1    3    3    0    0 -0.20730062248E+02  0.37991389309E+02 -0.16106020071E+02  0.46178837414E+02  0.00000000000E+00 0.  1.
        -13    1    4    4    0    0 -0.12733060661E+02 -0.10270713695E+03  0.63256186360E+02  0.12129398966E+03  0.00000000000E+00 0.  1.
         13    1    4    4    0    0 -0.64429198912E+02 -0.12015857092E+03  0.21338174677E+03  0.25322119519E+03  0.00000000000E+00 0. -1.
         -1    1    1    2    0  502  0.79713143197E+02  0.17475256238E+03  0.47829709348E+02  0.19794020398E+03  0.00000000000E+00 0.  1.
<scales pt_clust_5="13000.00000" pt_clust_6="13000.00000" pt_clust_7="13000.00000" pt_clust_8="13000.00000" pt_clust_9="218.34818"></scales>
<clustering>
<clus scale="   81.332">  5  6 -1 -1</clus>
<clus scale="   90.055">  7  8 -1 -1</clus>
<clus scale="   94.532">  2  5  1 -1</clus>
<clus scale="  218.348">  1  9  2 -1</clus>
<clus scale="  218.348">  1  5  2 -1</clus>
</clustering>
</event>
<event>
 9    1  0.3197504E-005  0.9115445E+02  0.7546771E-02  0.1306204E+00
         21   -1    0    0  501  502  0.00000000000E+00  0.00000000000E+00  0.47380168088E+03  0.47380168088E+03  0.00000000000E+00 0.  1.
         -4   -1    0    0    0  501 -0.00000000000E+00 -0.00000000000E+00 -0.34236765626E+02  0.34236765626E+02  0.00000000000E+00 0.  1.
        -24    2    1    2    0    0  0.86814109613E+01 -0.10390345250E+02  0.46399246181E+02  0.93905880259E+02  0.80511478252E+02 0.  0.
         23    2    1    2    0    0 -0.17472769989E+02 -0.91643655991E+01  0.37439750921E+03  0.38563838202E+03  0.90300517717E+02 0.  0.
         11    1    3    3    0    0 -0.12118089775E+02  0.31753688471E+02  0.25403013965E+02  0.42431803518E+02  0.00000000000E+00 0. -1.
        -12    1    3    3    0    0  0.20799500736E+02 -0.42144033720E+02  0.20996232217E+02  0.51474076741E+02  0.00000000000E+00 0.  1.
        -11    1    4    4    0    0 -0.49871179525E+02 -0.24563349955E+02  0.19954422699E+03  0.20714340741E+03  0.00000000000E+00 0.  1.
         11    1    4    4    0    0  0.32398409536E+02  0.15398984356E+02  0.17485328221E+03  0.17849497461E+03  0.00000000000E+00 0. -1.
         -3    1    1    2    0  502  0.87913590274E+01  0.19554710849E+02  0.18768159867E+02  0.28494184226E+02  0.00000000000E+00 0.  1.
<scales pt_clust_5="13000.00000" pt_clust_6="13000.00000" pt_clust_7="13000.00000" pt_clust_8="13000.00000" pt_clust_9="21.44004"></scales>
<clustering>
<clus scale="   21.440">  1  9  2 -1</clus>
<clus scale="   80.511">  5  6 -1 -1</clus>
<clus scale="   81.468">  2  5  1 -1</clus>
<clus scale="   90.301">  7  8 -1 -1</clus>
<clus scale="   21.440">  1  5  2 -1</clus>
</clustering>
</event>
<event>
 9    1  0.3197504E-005  0.1803178E+03  0.7546771E-02  0.1169708E+00
          3   -1    0    0  502    0 -0.00000000000E+00  0.00000000000E+00  0.29498346837E+03  0.29498346837E+03  0.00000000000E+00 0. -1.
         21   -1    0    0  501  502  0.00000000000E+00 -0.00000000000E+00 -0.16800917804E+03  0.16800917804E+03  0.00000000000E+00 0.  1.
         23    2    1    2    0    0 -0.15619108260E+03  0.60422859754E+02  0.15869944334E+03  0.24820260765E+03  0.91501064826E+02 0.  0.
        -24    2    1    2    0    0  0.13525947593E+03 -0.59002875893E+01 -0.29667315218E+02  0.15635137236E+03  0.72357880198E+02 0.  0.
         11    1    4    4    0    0  0.32168576442E+02  0.58047187754E+01  0.23026303444E+02  0.39984030821E+02  0.00000000000E+00 0. -1.
        -12    1    4    4    0    0  0.10309089948E+03 -0.11705006365E+02 -0.52693618662E+02  0.11636734154E+03  0.00000000000E+00 0.  1.
        -13    1    3    3    0    0 -0.12242742722E+03  0.85001780512E+02  0.12206090219E+03  0.19264641567E+03  0.00000000000E+00 0.  1.
         13    1    3    3    0    0 -0.33763655380E+02 -0.24578920758E+02  0.36638541143E+02  0.55556191980E+02  0.00000000000E+00 0. -1.
          4    1    1    2  501    0  0.20931606678E+02 -0.54522572165E+02 -0.20578377833E+01  0.58438666394E+02  0.00000000000E+00 0. -1.
<scales pt_clust_5="13000.00000" pt_clust_6="13000.00000" pt_clust_7="13000.00000" pt_clust_8="13000.00000" pt_clust_9="58.40242"></scales>
<clustering>
<clus scale="   58.402">  2  9  1 -1</clus>
<clus scale="   72.358">  5  6 -1 -1</clus>
<clus scale="   91.501">  7  8 -1 -1</clus>
<clus scale="  171.399">  2  5  1 -1</clus>
<clus scale="   58.402">  2  5  1 -1</clus>
</clustering>
</event>
<event>
 9    1  0.3197504E-005  0.9669891E+02  0.7546771E-02  0.1291930E+00
         -2   -1    0    0    0  501 -0.00000000000E+00  0.00000000000E+00  0.54845732814E+03  0.54845732814E+03  0.00000000000E+00 0.  1.
         21   -1    0    0  501  502  0.00000000000E+00 -0.00000000000E+00 -0.96563255697E+02  0.96563255697E+02  0.00000000000E+00 0.  1.
        -24    2    1    2    0    0 -0.31062942887E+02  0.25647096441E+02  0.44084671882E+03  0.45028282875E+03  0.82377887770E+02 0.  0.
         23    2    1    2    0    0 -0.24033583769E+02  0.44951173232E+02 -0.24543837410E+01  0.10417264127E+03  0.90816815982E+02 0.  0.
         11    1    3    3    0    0 -0.67580001797E+00  0.49317506269E+02  0.18112462830E+03  0.18772001520E+03  0.00000000000E+00 0. -1.
        -12    1    3    3    0    0 -0.30387142869E+02 -0.23670409828E+02  0.25972209052E+03  0.26256281355E+03  0.00000000000E+00 0.  1.
        -13    1    4    4    0    0 -0.52894024662E+02  0.48353118142E+02 -0.13791024385E+02  0.72979409648E+02  0.00000000000E+00 0.  1.
         13    1    4    4    0    0  0.28860440893E+02 -0.34019449105E+01  0.11336640644E+02  0.31193231618E+02  0.00000000000E+00 0. -1.
         -1    1    1    2    0  502  0.55096526656E+02 -0.70598269672E+02  0.13501737366E+02  0.90565113825E+02  0.00000000000E+00 0.  1.
<scales pt_clust_5="13000.00000" pt_clust_6="13000.00000" pt_clust_7="13000.00000" pt_clust_8="13000.00000" pt_clust_9="89.55302"></scales>
<clustering>
<clus scale="   82.378">  5  6 -1 -1</clus>
<clus scale="   89.553">  2  9  1 -1</clus>
<clus scale="   88.821">  1  5  2 -1</clus>
<clus scale="   90.817">  7  8 -1 -1</clus>
<clus scale="   89.553">  2  5  1 -1</clus>
</clustering>
</event>
<event>
 9    1  0.3197504E-005  0.9615168E+02  0.7546771E-02  0.1296522E+00
         -2   -1    0    0    0  501 -0.00000000000E+00  0.00000000000E+00  0.31531165231E+03  0.31531165231E+03  0.00000000000E+00 0.  1.
         21   -1    0    0  501  502  0.00000000000E+00 -0.00000000000E+00 -0.39448634852E+02  0.39448634852E+02  0.00000000000E+00 0.  1.
        -24    2    1    2    0    0 -0.28023343654E+01  0.24714358451E+02  0.11667247416E+03  0.14359550854E+03  0.79928413312E+02 0.  0.
         23    2    1    2    0    0  0.34390026303E+02 -0.20867936202E+01  0.11933284460E+03  0.15550127965E+03  0.93559027126E+02 0.  0.
         11    1    3    3    0    0 -0.57684538673E+01 -0.28668111876E+02  0.31058609362E+02  0.42658796444E+02  0.00000000000E+00 0. -1.
        -12    1    3    3    0    0  0.29661195019E+01  0.53382470327E+02  0.85613864795E+02  0.10093671209E+03  0.00000000000E+00 0.  1.
        -13    1    4    4    0    0 -0.19996234247E+02  0.13693832226E+02  0.93072334685E+00  0.24253590890E+02  0.00000000000E+00 0. -1.
         13    1    4    4    0    0  0.54386260550E+02 -0.15780625846E+02  0.11840212125E+03  0.13124768876E+03  0.00000000000E+00 0.  1.
         -1    1    1    2    0  502 -0.31587691938E+02 -0.22627564831E+02  0.39857698709E+02  0.55663498978E+02  0.00000000000E+00 0.  1.
<scales pt_clust_5="13000.00000" pt_clust_6="13000.00000" pt_clust_7="13000.00000" pt_clust_8="13000.00000" pt_clust_9="38.85600"></scales>
<clustering>
<clus scale="   38.856">  2  9  1 -1</clus>
<clus scale="   79.928">  5  6 -1 -1</clus>
<clus scale="   82.948">  1  5  2 -1</clus>
<clus scale="   93.559">  7  8 -1 -1</clus>
<clus scale="   38.856">  2  5  1 -1</clus>
</clustering>
</event>
<event>
 9    1  0.3197504E-005  0.1997138E+03  0.7546771E-02  0.1151522E+00
          1   -1    0    0  502    0 -0.00000000000E+00  0.00000000000E+00  0.10542302911E+04  0.10542302911E+04  0.00000000000E+00 0. -1.
         21   -1    0    0  501  502  0.00000000000E+00 -0.00000000000E+00 -0.49439715890E+02  0.49439715890E+02  0.00000000000E+00 0.  1.
         23    2    1    2    0    0 -0.14164978209E+03 -0.10089762300E+03  0.62143492552E+03  0.65195042399E+03  0.92806236794E+02 0.  0.
        -24    2    1    2    0    0  0.16303588580E+03  0.82727885755E+02  0.37200288555E+03  0.42144764818E+03  0.76206103155E+02 0.  0.
         11    1    4    4    0    0  0.92711164350E+02  0.47159116369E+01  0.18421585895E+03  0.20628398509E+03  0.00000000000E+00 0. -1.
        -12    1    4    4    0    0  0.70324721449E+02  0.78011974118E+02  0.18778702661E+03  0.21516366309E+03  0.00000000000E+00 0.  1.
        -13    1    3    3    0    0 -0.70875647891E+02  0.29109563003E+01  0.20135877522E+03  0.21348814368E+03  0.00000000000E+00 0. -1.
         13    1    3    3    0    0 -0.70774134203E+02 -0.10380857930E+03  0.42007615030E+03  0.43846228031E+03  0.00000000000E+00 0.  1.
          2    1    1    2  501    0 -0.21386103706E+02  0.18169737249E+02  0.11352764119E+02  0.30271934800E+02  0.00000000000E+00 0. -1.
<scales pt_clust_5="13000.00000" pt_clust_6="13000.00000" pt_clust_7="13000.00000" pt_clust_8="13000.00000" pt_clust_9="28.06252"></scales>
<clustering>
<clus scale="   28.063">  2  9  1 -1</clus>
<clus scale="   76.206">  5  6 -1 -1</clus>
<clus scale="   92.806">  7  8 -1 -1</clus>
<clus scale="  192.562">  2  5  1 -1</clus>
<clus scale="   28.063">  2  5  1 -1</clus>
</clustering>
</event>
<event>
 9    1  0.3197504E-005  0.1351430E+03  0.7546771E-02  0.1224944E+00
         21   -1    0    0  501  502  0.00000000000E+00  0.00000000000E+00  0.43581104828E+03  0.43581104828E+03  0.00000000000E+00 0. -1.
          1   -1    0    0  502    0 -0.00000000000E+00 -0.00000000000E+00 -0.38470112825E+03  0.38470112825E+03  0.00000000000E+00 0. -1.
        -24    2    1    2    0    0  0.31240764143E+02 -0.92559755386E+02 -0.35018471570E+03  0.37136523967E+03  0.75759570115E+02 0.  0.
         23    2    1    2    0    0  0.19648773315E+02  0.69617616005E+02  0.15152636586E+03  0.19321672094E+03  0.95602170211E+02 0.  0.
         11    1    3    3    0    0  0.34546165589E+02 -0.58407793397E+02 -0.31497551888E+03  0.32220255334E+03  0.00000000000E+00 0. -1.
        -12    1    3    3    0    0 -0.33054014458E+01 -0.34151961989E+02 -0.35209196824E+02  0.49162686332E+02  0.00000000000E+00 0.  1.
        -11    1    4    4    0    0 -0.32416429750E+02  0.37383688665E+02  0.10577779971E+03  0.11677888511E+03  0.00000000000E+00 0.  1.
         11    1    4    4    0    0  0.52065203065E+02  0.32233927340E+02  0.45748566156E+02  0.76437835836E+02  0.00000000000E+00 0. -1.
          2    1    1    2  501    0 -0.50889537458E+02  0.22942139381E+02  0.24976826987E+03  0.25593021591E+03  0.00000000000E+00 0. -1.
<scales pt_clust_5="13000.00000" pt_clust_6="13000.00000" pt_clust_7="13000.00000" pt_clust_8="13000.00000" pt_clust_9="55.82192"></scales>
<clustering>
<clus scale="   55.822">  1  9  2 -1</clus>
<clus scale="   75.760">  5  6 -1 -1</clus>
<clus scale="   95.602">  7  8 -1 -1</clus>
<clus scale="  121.915">  2  5  1 -1</clus>
<clus scale="   55.822">  1  5  2 -1</clus>
</clustering>
</event>
<event>
 9    1  0.3197504E-005  0.9833806E+02  0.7546771E-02  0.1287362E+00
         -4   -1    0    0    0  501 -0.00000000000E+00  0.00000000000E+00  0.21669085682E+03  0.21669085682E+03  0.00000000000E+00 0.  1.
         21   -1    0    0  501  502  0.00000000000E+00 -0.00000000000E+00 -0.14833997893E+03  0.14833997893E+03  0.00000000000E+00 0.  1.
        -24    2    1    2    0    0 -0.20010067543E+02 -0.36506354615E+02  0.14035068387E+03  0.16731034211E+03  0.81001971481E+02 0.  0.
         23    2    1    2    0    0  0.58227099553E+02  0.21657624787E+02  0.76887495158E+01  0.10810301660E+03  0.88134542003E+02 0.  0.
         11    1    3    3    0    0  0.47976454005E+01 -0.26920044581E+02  0.31146415829E+01  0.27521031845E+02  0.00000000000E+00 0. -1.
        -12    1    3    3    0    0 -0.24807712943E+02 -0.95863100340E+01  0.13723604229E+03  0.13978931027E+03  0.00000000000E+00 0.  1.
        -13    1    4    4    0    0  0.77715524060E+02  0.15358456817E+02  0.23047122619E+02  0.82503058953E+02  0.00000000000E+00 0.  1.
         13    1    4    4    0    0 -0.19488424507E+02  0.62991679706E+01 -0.15358373104E+02  0.25599957642E+02  0.00000000000E+00 0. -1.
         -3    1    1    2    0  502 -0.38217032010E+02  0.14848729827E+02 -0.79688555497E+02  0.89617477036E+02  0.00000000000E+00 0.  1.
<scales pt_clust_5="13000.00000" pt_clust_6="13000.00000" pt_clust_7="13000.00000" pt_clust_8="13000.00000" pt_clust_9="41.00032"></scales>
<clustering>
<clus scale="   41.000">  2  9  1 -1</clus>
<clus scale="   81.002">  5  6 -1 -1</clus>
<clus scale="   88.135">  7  8 -1 -1</clus>
<clus scale="   92.000">  1  5  2 -1</clus>
<clus scale="   41.000">  2  5  1 -1</clus>
</clustering>
</event>
<event>
 9    1  0.3197504E-005  0.9748026E+02  0.7546771E-02  0.1290595E+00
          1   -1    0    0  502    0 -0.00000000000E+00  0.00000000000E+00  0.12310593523E+03  0.12310593523E+03  0.00000000000E+00 0. -1.
         21   -1    0    0  501  502  0.00000000000E+00 -0.00000000000E+00 -0.13073472786E+03  0.13073472786E+03  0.00000000000E+00 0.  1.
        -24    2    1    2    0    0  0.30601688777E+01 -0.40488230928E+02  0.61266520269E+02  0.10856619444E+03  0.79902256486E+02 0.  0.
         23    2    1    2    0    0 -0.24777643615E+02  0.30706156848E+02 -0.34823838932E+02  0.10370280739E+03  0.89357555986E+02 0.  0.
         13    1    3    3    0    0  0.21203247342E+02 -0.54137695778E+02  0.63082298825E+02  0.85789534484E+02  0.00000000000E+00 0. -1.
        -14    1    3    3    0    0 -0.18143078464E+02  0.13649464850E+02 -0.18157785560E+01  0.22776659953E+02  0.00000000000E+00 0.  1.
        -13    1    4    4    0    0 -0.21076351603E+02 -0.30063898577E+02 -0.15172090078E+02  0.39727105506E+02  0.00000000000E+00 0. -1.
         13    1    4    4    0    0 -0.37012920119E+01  0.60770055425E+02 -0.19651748855E+02  0.63975701887E+02  0.00000000000E+00 0.  1.
          2    1    1    2  501    0  0.21717474737E+02  0.97820740798E+01 -0.34071473958E+02  0.41571661260E+02  0.00000000000E+00 0. -1.
<scales pt_clust_5="13000.00000" pt_clust_6="13000.00000" pt_clust_7="13000.00000" pt_clust_8="13000.00000" pt_clust_9="23.81885"></scales>
<clustering>
<clus scale="   23.819">  2  9  1 -1</clus>
<clus scale="   79.902">  5  6 -1 -1</clus>
<clus scale="   88.893">  1  5  2 -1</clus>
<clus scale="   89.358">  7  8 -1 -1</clus>
<clus scale="   23.819">  2  5  1 -1</clus>
</clustering>
</event>
<event>
 9    1  0.3197504E-005  0.9371214E+02  0.7546771E-02  0.1300388E+00
         -2   -1    0    0    0  501 -0.00000000000E+00  0.00000000000E+00  0.29259632514E+03  0.29259632514E+03  0.00000000000E+00 0.  1.
         21   -1    0    0  501  502  0.00000000000E+00 -0.00000000000E+00 -0.83165253043E+02  0.83165253043E+02  0.00000000000E+00 0. -1.
         23    2    1    2    0    0 -0.14398978538E+02  0.18123831115E+01  0.12236993120E+03  0.15237091942E+03  0.89620766047E+02 0.  0.
        -24    2    1    2    0    0  0.42710878545E+02  0.76653940620E+02  0.27201188022E+02  0.12071767497E+03  0.78312238270E+02 0.  0.
         11    1    4    4    0    0 -0.30789102113E+01  0.43601144922E+02 -0.19090054428E+02  0.47696642488E+02  0.00000000000E+00 0. -1.
        -12    1    4    4    0    0  0.45789788756E+02  0.33052795698E+02  0.46291242450E+02  0.73021032486E+02  0.00000000000E+00 0.  1.
        -11    1    3    3    0    0 -0.92262414690E+01  0.44398350580E+02  0.44891800559E+02  0.63809175071E+02  0.00000000000E+00 0.  1.
         11    1    3    3    0    0 -0.51727370689E+01 -0.42585967468E+02  0.77478130645E+02  0.88561744349E+02  0.00000000000E+00 0. -1.
         -1    1    1    2    0  502 -0.28311900007E+02 -0.78466323732E+02  0.59859952869E+02  0.10267298379E+03  0.00000000000E+00 0.  1.
<scales pt_clust_5="13000.00000" pt_clust_6="13000.00000" pt_clust_7="13000.00000" pt_clust_8="13000.00000" pt_clust_9="83.41783"></scales>
<clustering>
<clus scale="   78.312">  5  6 -1 -1</clus>
<clus scale="   83.418">  2  9  1 -1</clus>
<clus scale="   83.418">  2  5  1 -1</clus>
<clus scale="   89.621">  7  8 -1 -1</clus>
<clus scale="   83.418">  2  5  1 -1</clus>
</clustering>
</event>
<event>
 9    1  0.3197504E-005  0.1237141E+03  0.7546771E-02  0.1254633E+00
          3   -1    0    0  502    0 -0.00000000000E+00  0.00000000000E+00  0.20323717935E+02  0.20323717935E+02  0.00000000000E+00 0. -1.
         21   -1    0    0  501  502  0.00000000000E+00 -0.00000000000E+00 -0.13419604419E+04  0.13419604419E+04  0.00000000000E+00 0. -1.
        -24    2    1    2    0    0 -0.30134972514E+02 -0.14023598143E+02 -0.16135198920E+03  0.18328097277E+03  0.80328529729E+02 0.  0.
         23    2    1    2    0    0 -0.51402606679E+02 -0.33630020236E+02 -0.51150216486E+03  0.52338281888E+03  0.92314160381E+02 0.  0.
         11    1    3    3    0    0 -0.47669880597E+02 -0.16365053185E+02 -0.51666255755E+02  0.72177797594E+02  0.00000000000E+00 0. -1.
        -12    1    3    3    0    0  0.17534908083E+02  0.23414550418E+01 -0.10968573345E+03  0.11110317518E+03  0.00000000000E+00 0.  1.
        -13    1    4    4    0    0 -0.56714956322E+02 -0.59613039350E+02 -0.42556637015E+03  0.43344784707E+03  0.00000000000E+00 0. -1.
         13    1    4    4    0    0  0.53123496431E+01  0.25983019114E+02 -0.85935794712E+02  0.89934971806E+02  0.00000000000E+00 0.  1.
          4    1    1    2  501    0  0.81537579192E+02  0.47653618380E+02 -0.64878256990E+03  0.65562036818E+03  0.00000000000E+00 0. -1.
<scales pt_clust_5="13000.00000" pt_clust_6="13000.00000" pt_clust_7="13000.00000" pt_clust_8="13000.00000" pt_clust_9="82.36056"></scales>
<clustering>
<clus scale="   80.329">  5  6 -1 -1</clus>
<clus scale="   86.934">  1  5  2 -1</clus>
<clus scale="   82.361">  2  9  1 -1</clus>
<clus scale="   92.314">  7  8 -1 -1</clus>
<clus scale="   82.361">  2  5  1 -1</clus>
</clustering>
</event>
<event>
 9    1  0.5785982E-005  0.9293790E+02  0.7546771E-02  0.1303017E+00
          1   -1    0    0  502    0 -0.00000000000E+00  0.00000000000E+00  0.14544876689E+03  0.14544876689E+03  0.00000000000E+00 0. -1.
         21   -1    0    0  501  502  0.00000000000E+00 -0.00000000000E+00 -0.19160566725E+03  0.19160566725E+03  0.00000000000E+00 0.  1.
         23    2    1    2    0    0 -0.90421927490E+00  0.16567424233E+02  0.10569026786E+03  0.14077788530E+03  0.91502366695E+02 0.  0.
        -24    2    1    2    0    0  0.27680311191E+02 -0.93883192026E+01 -0.70876917278E+02  0.11069220340E+03  0.79842885256E+02 0.  0.
         11    1    4    4    0    0  0.14867367902E+02  0.17905323334E+02  0.92776268808E+01  0.25054213070E+02  0.00000000000E+00 0. -1.
        -12    1    4    4    0    0  0.12812943289E+02 -0.27293642537E+02 -0.80154544159E+02  0.85637990332E+02  0.00000000000E+00 0.  1.
        -13    1    3    3    0    0  0.19964958705E+02 -0.22869773949E+02  0.51638257841E+01  0.30794337682E+02  0.00000000000E+00 0.  1.
         13    1    3    3    0    0 -0.20869177980E+02  0.39437198181E+02  0.10052644208E+03  0.10998354762E+03  0.00000000000E+00 0. -1.
          2    1    1    2  501    0 -0.26776091916E+02 -0.71791050299E+01 -0.80970250937E+02  0.85584345438E+02  0.00000000000E+00 0. -1.
<scales pt_clust_5="13000.00000" pt_clust_6="13000.00000" pt_clust_7="13000.00000" pt_clust_8="13000.00000" pt_clust_9="27.72181"></scales>
<clustering>
<clus scale="   27.722">  2  9  1 -1</clus>
<clus scale="   79.843">  5  6 -1 -1</clus>
<clus scale="   81.484">  2  5  1 -1</clus>
<clus scale="   91.502">  7  8 -1 -1</clus>
<clus scale="   27.722">  2  5  1 -1</clus>
</clustering>
</event>
<event>
 9    1  0.3197504E-005  0.9520400E+02  0.7546771E-02  0.1290742E+00
         21   -1    0    0  501  502  0.00000000000E+00  0.00000000000E+00  0.21490576136E+03  0.21490576136E+03  0.00000000000E+00 0.  1.
          1   -1    0    0  502    0 -0.00000000000E+00 -0.00000000000E+00 -0.20197992844E+03  0.20197992844E+03  0.00000000000E+00 0. -1.
        -24    2    1    2    0    0  0.36692585594E+02 -0.38751681173E+02 -0.16333869712E+03  0.18948539975E+03  0.79857047963E+02 0.  0.
         23    2    1    2    0    0 -0.38578543182E+02  0.34249684764E+01  0.16954215313E+03  0.19139023844E+03  0.79910245149E+02 0.  0.
         13    1    3    3    0    0  0.30652303727E+02 -0.51818370883E+02 -0.59473697739E+02  0.84627584200E+02  0.00000000000E+00 0. -1.
        -14    1    3    3    0    0  0.60402818674E+01  0.13066689711E+02 -0.10386499938E+03  0.10485781555E+03  0.00000000000E+00 0.  1.
        -11    1    4    4    0    0  0.22871138521E+02  0.13271075170E+02  0.55302911561E+02  0.61299448942E+02  0.00000000000E+00 0. -1.
         11    1    4    4    0    0 -0.61449681703E+02 -0.98461066941E+01  0.11423924157E+03  0.13009078950E+03  0.00000000000E+00 0.  1.
          2    1    1    2  501    0  0.18859575877E+01  0.35326712696E+02  0.67223769184E+01  0.36010051616E+02  0.00000000000E+00 0. -1.
<scales pt_clust_5="13000.00000" pt_clust_6="13000.00000" pt_clust_7="13000.00000" pt_clust_8="13000.00000" pt_clust_9="35.37702"></scales>
<clustering>
<clus scale="   35.377">  1  9  2 -1</clus>
<clus scale="   79.857">  5  6 -1 -1</clus>
<clus scale="   79.910">  7  8 -1 -1</clus>
<clus scale="   95.159">  2  5  1 -1</clus>
<clus scale="   35.377">  1  5  2 -1</clus>
</clustering>
</event>
<event>
 9    1  0.3197504E-005  0.1546058E+03  0.7546771E-02  0.1196112E+00
         21   -1    0    0  501  502  0.00000000000E+00  0.00000000000E+00  0.15872349943E+03  0.15872349943E+03  0.00000000000E+00 0.  1.
          1   -1    0    0  502    0 -0.00000000000E+00 -0.00000000000E+00 -0.89812185514E+03  0.89812185514E+03  0.00000000000E+00 0. -1.
        -24    2    1    2    0    0 -0.62931710026E+02 -0.11635501151E+03 -0.81832239050E+03  0.83310568330E+03  0.83154410157E+02 0.  0.
         23    2    1    2    0    0  0.24128124880E+02  0.73020714761E+02 -0.84337139178E+01  0.11878751190E+03  0.90139637560E+02 0.  0.
         11    1    3    3    0    0 -0.82923332959E+02 -0.10270438548E+03 -0.68462732449E+03  0.69723671976E+03  0.00000000000E+00 0. -1.
        -12    1    3    3    0    0  0.19991622933E+02 -0.13650626032E+02 -0.13369506601E+03  0.13586896354E+03  0.00000000000E+00 0.  1.
        -11    1    4    4    0    0  0.35245120843E+00  0.39719139512E+02  0.39326980870E+02  0.55895846802E+02  0.00000000000E+00 0.  1.
         11    1    4    4    0    0  0.23775673671E+02  0.33301575250E+02 -0.47760694788E+02  0.62891665102E+02  0.00000000000E+00 0. -1.
          2    1    1    2  501    0  0.38803585146E+02  0.43334296748E+02  0.87357748707E+02  0.10495215936E+03  0.00000000000E+00 0. -1.
<scales pt_clust_5="13000.00000" pt_clust_6="13000.00000" pt_clust_7="13000.00000" pt_clust_8="13000.00000" pt_clust_9="58.16854"></scales>
<clustering>
<clus scale="   58.169">  1  9  2 -1</clus>
<clus scale="   83.154">  5  6 -1 -1</clus>
<clus scale="   90.140">  7  8 -1 -1</clus>
<clus scale="  150.640">  2  5  1 -1</clus>
<clus scale="   58.169">  1  5  2 -1</clus>
</clustering>
</event>
<event>
 9    1  0.3197504E-005  0.1175949E+03  0.7546771E-02  0.1275157E+00
         21   -1    0    0  501  502  0.00000000000E+00  0.00000000000E+00  0.59863600764E+03  0.59863600764E+03  0.00000000000E+00 0.  1.
         -4   -1    0    0    0  501 -0.00000000000E+00 -0.00000000000E+00 -0.40629172106E+02  0.40629172106E+02  0.00000000000E+00 0.  1.
        -24    2    1    2    0    0  0.22087245975E+02 -0.35079281911E+02  0.11856069754E+03  0.13659554468E+03  0.53696381372E+02 0.  0.
         23    2    1    2    0    0  0.40454196049E+02 -0.43574578080E+02  0.35293964296E+03  0.37007538426E+03  0.94096294447E+02 0.  0.
         13    1    3    3    0    0  0.38350708421E+02 -0.13826458078E+02  0.77817309279E+02  0.87849196939E+02  0.00000000000E+00 0. -1.
        -14    1    3    3    0    0 -0.16263462445E+02 -0.21252823834E+02  0.40743388259E+02  0.48746347744E+02  0.00000000000E+00 0.  1.
        -13    1    4    4    0    0 -0.26320932553E+02 -0.35283663993E+02  0.13989683095E+03  0.14665896408E+03  0.00000000000E+00 0.  1.
         13    1    4    4    0    0  0.66775128602E+02 -0.82909140872E+01  0.21304281202E+03  0.22341642019E+03  0.00000000000E+00 0. -1.
         -3    1    1    2    0  502 -0.62541442025E+02  0.78653859992E+02  0.86506495030E+02  0.13259425080E+03  0.00000000000E+00 0.  1.
<scales pt_clust_5="13000.00000" pt_clust_6="13000.00000" pt_clust_7="13000.00000" pt_clust_8="13000.00000" pt_clust_9="70.52986"></scales>
<clustering>
<clus scale="   53.696">  5  6 -1 -1</clus>
<clus scale="   67.836">  2  5  1 -1</clus>
<clus scale="   70.530">  1  9  2 -1</clus>
<clus scale="   94.096">  7  8 -1 -1</clus>
<clus scale="   70.530">  1  5  2 -1</clus>
</clustering>
</event>
<event>
 9    1  0.3197504E-005  0.9943497E+02  0.7546771E-02  0.1287125E+00
         -4   -1    0    0    0  501 -0.00000000000E+00  0.00000000000E+00  0.16046892367E+03  0.16046892367E+03  0.00000000000E+00 0.  1.
         21   -1    0    0  501  502  0.00000000000E+00 -0.00000000000E+00 -0.24077476452E+03  0.24077476452E+03  0.00000000000E+00 0.  1.
        -24    2    1    2    0    0 -0.30273342073E+02  0.55833058809E+02  0.57152020883E+02  0.11756910911E+03  0.80760982095E+02 0.  0.
         23    2    1    2    0    0 -0.19341714582E+02 -0.17486843584E+02  0.33874917499E+02  0.10122730641E+03  0.91758192578E+02 0.  0.
         11    1    3    3    0    0  0.10881138680E+02  0.31649186790E+02 -0.10226849541E+02  0.34995123303E+02  0.00000000000E+00 0. -1.
        -12    1    3    3    0    0 -0.41154480753E+02  0.24183872019E+02  0.67378870424E+02  0.82573985804E+02  0.00000000000E+00 0.  1.
        -13    1    4    4    0    0  0.20170104313E+02 -0.38393169948E+02  0.36161464138E+02  0.56466982346E+02  0.00000000000E+00 0. -1.
         13    1    4    4    0    0 -0.39511818895E+02  0.20906326364E+02 -0.22865466387E+01  0.44760324060E+02  0.00000000000E+00 0.  1.
         -3    1    1    2    0  502  0.49615056654E+02 -0.38346215225E+02 -0.17133277923E+03  0.18244727268E+03  0.00000000000E+00 0.  1.
<scales pt_clust_5="13000.00000" pt_clust_6="13000.00000" pt_clust_7="13000.00000" pt_clust_8="13000.00000" pt_clust_9="62.70635"></scales>
<clustering>
<clus scale="   62.706">  2  9  1 -1</clus>
<clus scale="   80.761">  5  6 -1 -1</clus>
<clus scale="   89.387">  1  5  2 -1</clus>
<clus scale="   91.758">  7  8 -1 -1</clus>
<clus scale="   62.706">  2  5  1 -1</clus>
</clustering>
</event>
<event>
 9    1  0.3197504E-005  0.1246503E+03  0.7546771E-02  0.1237898E+00
         21   -1    0    0  501  502  0.00000000000E+00  0.00000000000E+00  0.75075154403E+03  0.75075154403E+03  0.00000000000E+00 0.  1.
         -2   -1    0    0    0  501 -0.00000000000E+00 -0.00000000000E+00 -0.54841585383E+02  0.54841585383E+02  0.00000000000E+00 0.  1.
        -24    2    1    2    0    0 -0.17758944016E+02 -0.95373412636E+02  0.60176952892E+02  0.14016516567E+03  0.81323674760E+02 0.  0.
         23    2    1    2    0    0  0.63549834328E+02  0.40385100700E+02  0.29613297210E+03  0.31837075961E+03  0.89418485826E+02 0.  0.
         11    1    3    3    0    0 -0.25299970222E+02 -0.24695969229E+02  0.59349029310E+02  0.69081739045E+02  0.00000000000E+00 0. -1.
        -12    1    3    3    0    0  0.75410262059E+01 -0.70677443407E+02  0.82792358151E+00  0.71083426622E+02  0.00000000000E+00 0.  1.
        -13    1    4    4    0    0  0.85585499917E+01  0.56140752728E+02  0.11228730261E+03  0.12583112184E+03  0.00000000000E+00 0. -1.
         13    1    4    4    0    0  0.54991284337E+02 -0.15755652028E+02  0.18384566949E+03  0.19253963777E+03  0.00000000000E+00 0.  1.
         -1    1    1    2    0  502 -0.45790890313E+02  0.54988311936E+02  0.33960003365E+03  0.34705720414E+03  0.00000000000E+00 0.  1.
<scales pt_clust_5="13000.00000" pt_clust_6="13000.00000" pt_clust_7="13000.00000" pt_clust_8="13000.00000" pt_clust_9="71.55781"></scales>
<clustering>
<clus scale="   71.558">  1  9  2 -1</clus>
<clus scale="   81.324">  5  6 -1 -1</clus>
<clus scale="   89.418">  7  8 -1 -1</clus>
<clus scale="  118.977">  2  5  1 -1</clus>
<clus scale="   71.558">  1  5  2 -1</clus>
</clustering>
</event>
<event>
 9    1  0.3197504E-005  0.1323082E+03  0.7546771E-02  0.1226950E+00
         21   -1    0    0  501  502  0.00000000000E+00  0.00000000000E+00  0.22395230826E+03  0.22395230826E+03  0.00000000000E+00 0. -1.
          1   -1    0    0  502    0 -0.00000000000E+00 -0.00000000000E+00 -0.23028528859E+03  0.23028528859E+03  0.00000000000E+00 0. -1.
         23    2    1    2    0    0  0.81606491540E+02 -0.17957273131E+02 -0.10787067520E+03  0.16427885534E+03  0.91484297145E+02 0.  0.
        -24    2    1    2    0    0 -0.13446815682E+03 -0.36887821859E+02 -0.28210493355E+01  0.16075700935E+03  0.79952868216E+02 0.  0.
         13    1    4    4    0    0 -0.77289377716E+02 -0.15467175605E+02  0.37803036043E+02  0.87418253031E+02  0.00000000000E+00 0. -1.
        -14    1    4    4    0    0 -0.57178779106E+02 -0.21420646253E+02 -0.40624085378E+02  0.73338756322E+02  0.00000000000E+00 0.  1.
        -11    1    3    3    0    0 -0.55263502567E+01 -0.26310428209E+02 -0.57039379776E+02  0.63057672213E+02  0.00000000000E+00 0. -1.
         11    1    3    3    0    0  0.87132841796E+02  0.83531550785E+01 -0.50831295429E+02  0.10122118313E+03  0.00000000000E+00 0.  1.
          2    1    1    2  501    0  0.52861665282E+02  0.54845094989E+02  0.10435874421E+03  0.12920173216E+03  0.00000000000E+00 0. -1.
<scales pt_clust_5="13000.00000" pt_clust_6="13000.00000" pt_clust_7="13000.00000" pt_clust_8="13000.00000" pt_clust_9="76.17309"></scales>
<clustering>
<clus scale="   76.173">  1  9  2 -1</clus>
<clus scale="   79.953">  5  6 -1 -1</clus>
<clus scale="   91.484">  7  8 -1 -1</clus>
<clus scale="  124.614">  1  5  2 -1</clus>
<clus scale="   76.173">  1  5  2 -1</clus>
</clustering>
</event>
<event>
 9    1  0.3197504E-005  0.1031531E+03  0.7546771E-02  0.1274906E+00
          3   -1    0    0  502    0 -0.00000000000E+00  0.00000000000E+00  0.11191470487E+03  0.11191470487E+03  0.00000000000E+00 0. -1.
         21   -1    0    0  501  502  0.00000000000E+00 -0.00000000000E+00 -0.13442874925E+03  0.13442874925E+03  0.00000000000E+00 0. -1.
         23    2    1    2    0    0  0.13454962733E+02 -0.63585337290E+02  0.73362886158E+01  0.11257550548E+03  0.91625826939E+02 0.  0.
        -24    2    1    2    0    0 -0.59307883173E+01  0.27957259631E+02 -0.17175217334E+02  0.95211085763E+02  0.89181725401E+02 0.  0.
         13    1    4    4    0    0 -0.33576135079E+02  0.44950379030E+02  0.43437585481E+01  0.56273987419E+02  0.00000000000E+00 0. -1.
        -14    1    4    4    0    0  0.27645346761E+02 -0.16993119398E+02 -0.21518975882E+02  0.38937098344E+02  0.00000000000E+00 0.  1.
        -13    1    3    3    0    0 -0.99729167513E+01 -0.81251114995E+02 -0.16847304732E+01  0.81878208781E+02  0.00000000000E+00 0. -1.
         13    1    3    3    0    0  0.23427879484E+02  0.17665777704E+02  0.90210190891E+01  0.30697296696E+02  0.00000000000E+00 0.  1.
          4    1    1    2  501    0 -0.75241744156E+01  0.35628077659E+02 -0.12675115660E+02  0.38556862882E+02  0.00000000000E+00 0. -1.
<scales pt_clust_5="13000.00000" pt_clust_6="13000.00000" pt_clust_7="13000.00000" pt_clust_8="13000.00000" pt_clust_9="36.41391"></scales>
<clustering>
<clus scale="   36.414">  2  9  1 -1</clus>
<clus scale="   89.182">  5  6 -1 -1</clus>
<clus scale="   91.626">  7  8 -1 -1</clus>
<clus scale="  100.988">  2  5  1 -1</clus>
<clus scale="   36.414">  2  5  1 -1</clus>
</clustering>
</event>
<event>
 9    1  0.3197504E-005  0.9771468E+02  0.7546771E-02  0.1293340E+00
         21   -1    0    0  501  502  0.00000000000E+00  0.00000000000E+00  0.43200444739E+02  0.43200444739E+02  0.00000000000E+00 0.  1.
         -2   -1    0    0    0  501 -0.00000000000E+00 -0.00000000000E+00 -0.33084647965E+03  0.33084647965E+03  0.00000000000E+00 0.  1.
         23    2    1    2    0    0  0.24475554918E+02  0.11594245744E+02 -0.15919329369E+03  0.18706921755E+03  0.94439970750E+02 0.  0.
        -24    2    1    2    0    0 -0.25563632634E+02  0.12123594224E+02 -0.13749302123E+03  0.16157206754E+03  0.80004507815E+02 0.  0.
         11    1    4    4    0    0  0.29019423997E+02  0.79689520443E+01 -0.46899820395E+02  0.55724539647E+02  0.00000000000E+00 0. -1.
        -12    1    4    4    0    0 -0.54583056630E+02  0.41546421796E+01 -0.90593200840E+02  0.10584752789E+03  0.00000000000E+00 0.  1.
        -11    1    3    3    0    0  0.16917068716E+02  0.49727365539E+02 -0.55915901729E+02  0.76717574021E+02  0.00000000000E+00 0.  1.
         11    1    3    3    0    0  0.75584862025E+01 -0.38133119795E+02 -0.10327739196E+03  0.11035164353E+03  0.00000000000E+00 0. -1.
         -1    1    1    2    0  502  0.10880777153E+01 -0.23717839968E+02  0.90402800091E+01  0.25405639305E+02  0.00000000000E+00 0.  1.
<scales pt_clust_5="13000.00000" pt_clust_6="13000.00000" pt_clust_7="13000.00000" pt_clust_8="13000.00000" pt_clust_9="23.74279"></scales>
<clustering>
<clus scale="   23.743">  1  9  2 -1</clus>
<clus scale="   80.005">  5  6 -1 -1</clus>
<clus scale="   83.845">  1  5  2 -1</clus>
<clus scale="   94.440">  7  8 -1 -1</clus>
<clus scale="   23.743">  1  5  2 -1</clus>
</clustering>
</event>
<event>
 9    1  0.3197504E-005  0.1169006E+03  0.7546771E-02  0.1252476E+00
         -4   -1    0    0    0  501 -0.00000000000E+00  0.00000000000E+00  0.17258277147E+04  0.17258277147E+04  0.00000000000E+00 0.  1.
         21   -1    0    0  501  502  0.00000000000E+00 -0.00000000000E+00 -0.13454375905E+02  0.13454375905E+02  0.00000000000E+00 0.  1.
        -24    2    1    2    0    0  0.46150658608E+02  0.53498670907E+02  0.11829338223E+04  0.11876649609E+04  0.78890053165E+02 0.  0.
         23    2    1    2    0    0 -0.67957736886E+02 -0.47231509933E+02  0.49695802903E+03  0.51199550679E+03  0.91230734004E+02 0.  0.
         11    1    3    3    0    0  0.26114885189E+02  0.86718827242E+01  0.10290352641E+03  0.10651912751E+03  0.00000000000E+00 0. -1.
        -12    1    3    3    0    0  0.20035773419E+02  0.44826788183E+02  0.10800302959E+04  0.10811458334E+04  0.00000000000E+00 0.  1.
        -13    1    4    4    0    0  0.16302583993E+02 -0.22693150952E+02  0.58370182801E+02  0.64713457528E+02  0.00000000000E+00 0. -1.
         13    1    4    4    0    0 -0.84260320880E+02 -0.24538358982E+02  0.43858784623E+03  0.44728204927E+03  0.00000000000E+00 0.  1.
         -3    1    1    2    0  502  0.21807078279E+02 -0.62671609735E+01  0.32481487522E+02  0.39621622902E+02  0.00000000000E+00 0.  1.
<scales pt_clust_5="13000.00000" pt_clust_6="13000.00000" pt_clust_7="13000.00000" pt_clust_8="13000.00000" pt_clust_9="22.68978"></scales>
<clustering>
<clus scale="   22.690">  2  9  1 -1</clus>
<clus scale="   78.890">  5  6 -1 -1</clus>
<clus scale="   91.231">  7  8 -1 -1</clus>
<clus scale="  107.547">  1  5  2 -1</clus>
<clus scale="   22.690">  2  5  1 -1</clus>
</clustering>
</event>
<event>
 9    1  0.3197504E-005  0.2061486E+03  0.7546771E-02  0.1144653E+00
          1   -1    0    0  502    0 -0.00000000000E+00  0.00000000000E+00  0.90407188229E+03  0.90407188229E+03  0.00000000000E+00 0. -1.
         21   -1    0    0  501  502  0.00000000000E+00 -0.00000000000E+00 -0.35415823927E+02  0.35415823927E+02  0.00000000000E+00 0. -1.
        -24    2    1    2    0    0  0.20726159493E+02  0.64686648852E+02  0.43274623878E+03  0.44515900544E+03  0.79267248710E+02 0.  0.
         23    2    1    2    0    0  0.46036551071E+01  0.40420161294E+02  0.32218852290E+03  0.33741606787E+03  0.91592442314E+02 0.  0.
         11    1    3    3    0    0  0.22378635899E+02  0.77808590334E+02  0.41607422384E+03  0.42387821342E+03  0.00000000000E+00 0. -1.
        -12    1    3    3    0    0 -0.16524764064E+01 -0.13121941482E+02  0.16672014948E+02  0.21280792019E+02  0.00000000000E+00 0.  1.
        -13    1    4    4    0    0  0.28355085170E+02 -0.19239399039E+02  0.14367012081E+03  0.14769992872E+03  0.00000000000E+00 0.  1.
         13    1    4    4    0    0 -0.23751430063E+02  0.59659560333E+02  0.17851840209E+03  0.18971613915E+03  0.00000000000E+00 0. -1.
          2    1    1    2  501    0 -0.25329814600E+02 -0.10510681015E+03  0.11372129668E+03  0.15691263290E+03  0.00000000000E+00 0. -1.
<scales pt_clust_5="13000.00000" pt_clust_6="13000.00000" pt_clust_7="13000.00000" pt_clust_8="13000.00000" pt_clust_9="108.11587"></scales>
<clustering>
<clus scale="   79.267">  5  6 -1 -1</clus>
<clus scale="   91.592">  7  8 -1 -1</clus>
<clus scale="   92.086">  5  7 -1 -1</clus>
<clus scale="  108.116">  2  9  1 -1</clus>
<clus scale="  108.116">  2  5  1 -1</clus>
</clustering>
</event>
<event>
 9    1  0.3197504E-005  0.1132251E+03  0.7546771E-02  0.1264698E+00
         -2   -1    0    0    0  501 -0.00000000000E+00  0.00000000000E+00  0.22783228049E+03  0.22783228049E+03  0.00000000000E+00 0.  1.
         21   -1    0    0  501  502  0.00000000000E+00 -0.00000000000E+00 -0.14536287374E+03  0.14536287374E+03  0.00000000000E+00 0.  1.
        -24    2    1    2    0    0  0.25965948487E+02 -0.46349848200E+02  0.13308208917E+03  0.16183995764E+03  0.75224932856E+02 0.  0.
         23    2    1    2    0    0 -0.84823286017E+02  0.23892245769E+02 -0.63521015419E+02  0.14705002457E+03  0.99110852415E+02 0.  0.
         13    1    3    3    0    0  0.24269789355E+02  0.15995095740E+02  0.33638980147E+02  0.44457246298E+02  0.00000000000E+00 0. -1.
        -14    1    3    3    0    0  0.16961591326E+01 -0.62344943940E+02  0.99443109021E+02  0.11738271134E+03  0.00000000000E+00 0.  1.
        -11    1    4    4    0    0  0.18681543884E+02 -0.12304114273E+02 -0.16221281656E+02  0.27631888978E+02  0.00000000000E+00 0. -1.
         11    1    4    4    0    0 -0.10350482990E+03  0.36196360042E+02 -0.47299733762E+02  0.11941813559E+03  0.00000000000E+00 0.  1.
         -1    1    1    2    0  502  0.58857337530E+02  0.22457602431E+02  0.12908333003E+02  0.64305172023E+02  0.00000000000E+00 0.  1.
<scales pt_clust_5="13000.00000" pt_clust_6="13000.00000" pt_clust_7="13000.00000" pt_clust_8="13000.00000" pt_clust_9="62.99627"></scales>
<clustering>
<clus scale="   62.996">  2  9  1 -1</clus>
<clus scale="   75.225">  5  6 -1 -1</clus>
<clus scale="   93.036">  1  5  2 -1</clus>
<clus scale="   99.111">  7  8 -1 -1</clus>
<clus scale="   62.996">  2  5  1 -1</clus>
</clustering>
</event>
<event>
 9    1  0.3197504E-005  0.1130521E+03  0.7546771E-02  0.1256276E+00
          1   -1    0    0  502    0 -0.00000000000E+00  0.00000000000E+00  0.16626352382E+03  0.16626352382E+03  0.00000000000E+00 0. -1.
         21   -1    0    0  501  502  0.00000000000E+00 -0.00000000000E+00 -0.10182854167E+03  0.10182854167E+03  0.00000000000E+00 0. -1.
        -24    2    1    2    0    0 -0.70081017155E+02  0.17789948104E+02  0.59017987374E+02  0.12847510484E+03  0.88288722448E+02 0.  0.
         23    2    1    2    0    0  0.57818235102E+02  0.68645053790E+01 -0.80834774939E+01  0.10894970365E+03  0.91731268244E+02 0.  0.
         13    1    3    3    0    0 -0.81238023428E+02 -0.55096844378E+01  0.62176677690E+02  0.10244955989E+03  0.00000000000E+00 0. -1.
        -14    1    3    3    0    0  0.11157006273E+02  0.23299632541E+02 -0.31586903167E+01  0.26025544952E+02  0.00000000000E+00 0.  1.
        -11    1    4    4    0    0  0.17441171757E+02  0.41698203273E+02 -0.26665729400E+02  0.52478526588E+02  0.00000000000E+00 0. -1.
         11    1    4    4    0    0  0.40377063345E+02 -0.34833697894E+02  0.18582251906E+02  0.56471177066E+02  0.00000000000E+00 0.  1.
          2    1    1    2  501    0  0.12262782053E+02 -0.24654453483E+02  0.13500472269E+02  0.30667256996E+02  0.00000000000E+00 0. -1.
<scales pt_clust_5="13000.00000" pt_clust_6="13000.00000" pt_clust_7="13000.00000" pt_clust_8="13000.00000" pt_clust_9="27.53577"></scales>
<clustering>
<clus scale="   27.536">  2  9  1 -1</clus>
<clus scale="   88.289">  5  6 -1 -1</clus>
<clus scale="   91.731">  7  8 -1 -1</clus>
<clus scale="  110.277">  1  5  2 -1</clus>
<clus scale="   27.536">  2  5  1 -1</clus>
</clustering>
</event>
<event>
 9    1  0.3197504E-005  0.1101430E+03  0.7546771E-02  0.1265404E+00
         -2   -1    0    0    0  501 -0.00000000000E+00  0.00000000000E+00  0.15905733377E+03  0.15905733377E+03  0.00000000000E+00 0.  1.
         21   -1    0    0  501  502  0.00000000000E+00 -0.00000000000E+00 -0.19679222929E+03  0.19679222929E+03  0.00000000000E+00 0.  1.
        -24    2    1    2    0    0 -0.20096392639E+02 -0.67425373487E+02  0.89855452141E+02  0.13978150510E+03  0.80714440485E+02 0.  0.
         23    2    1    2    0    0 -0.63869196209E+01  0.13353034267E+01 -0.10662702435E+03  0.14184727843E+03  0.93320695995E+02 0.  0.
         13    1    3    3    0    0 -0.11187205986E+02 -0.24740085838E+02 -0.11467332260E+02  0.29474143486E+02  0.00000000000E+00 0. -1.
        -14    1    3    3    0    0 -0.89091866534E+01 -0.42685287648E+02  0.10132278440E+03  0.11030736162E+03  0.00000000000E+00 0.  1.
        -11    1    4    4    0    0 -0.45419160530E+02 -0.14242009455E+02 -0.76644102743E+02  0.90222244828E+02  0.00000000000E+00 0.  1.
         11    1    4    4    0    0  0.39032240909E+02  0.15577312882E+02 -0.29982921603E+02  0.51625033606E+02  0.00000000000E+00 0. -1.
         -1    1    1    2    0  502  0.26483312260E+02  0.66090070060E+02 -0.20963323315E+02  0.74220779525E+02  0.00000000000E+00 0.  1.
<scales pt_clust_5="13000.00000" pt_clust_6="13000.00000" pt_clust_7="13000.00000" pt_clust_8="13000.00000" pt_clust_9="71.19876"></scales>
<clustering>
<clus scale="   71.199">  2  9  1 -1</clus>
<clus scale="   80.714">  5  6 -1 -1</clus>
<clus scale="   93.321">  7  8 -1 -1</clus>
<clus scale="   99.687">  1  5  2 -1</clus>
<clus scale="   71.199">  2  5  1 -1</clus>
</clustering>
</event>
<event>
 9    1  0.3197504E-005  0.1017205E+03  0.7546771E-02  0.1278721E+00
         21   -1    0    0  501  502  0.00000000000E+00  0.00000000000E+00  0.27173275538E+03  0.27173275538E+03  0.00000000000E+00 0.  1.
         -4   -1    0    0    0  501 -0.00000000000E+00 -0.00000000000E+00 -0.86372424107E+02  0.86372424107E+02  0.00000000000E+00 0.  1.
        -24    2    1    2    0    0 -0.41136289337E+02  0.23845076381E+02 -0.37173609967E+02  0.10618825978E+03  0.87368685860E+02 0.  0.
         23    2    1    2    0    0  0.25513070487E+02 -0.77918286503E+01  0.17362523391E+03  0.19812237182E+03  0.91624903847E+02 0.  0.
         13    1    3    3    0    0 -0.20450496078E+02 -0.32940616483E+02 -0.10802359348E+02  0.40249198397E+02  0.00000000000E+00 0. -1.
        -14    1    3    3    0    0 -0.20685793259E+02  0.56785692864E+02 -0.26371250619E+02  0.65939061383E+02  0.00000000000E+00 0.  1.
        -13    1    4    4    0    0 -0.55524127813E+00 -0.39047025427E+02  0.31164683212E+02  0.49962145343E+02  0.00000000000E+00 0. -1.
         13    1    4    4    0    0  0.26068311765E+02  0.31255196777E+02  0.14246055070E+03  0.14816022647E+03  0.00000000000E+00 0.  1.
         -3    1    1    2    0  502  0.15623218851E+02 -0.16053247731E+02  0.48908707335E+02  0.53794547894E+02  0.00000000000E+00 0.  1.
<scales pt_clust_5="13000.00000" pt_clust_6="13000.00000" pt_clust_7="13000.00000" pt_clust_8="13000.00000" pt_clust_9="22.40071"></scales>
<clustering>
<clus scale="   22.401">  1  9  2 -1</clus>
<clus scale="   87.369">  5  6 -1 -1</clus>
<clus scale="   91.625">  7  8 -1 -1</clus>
<clus scale="   97.904">  2  5  1 -1</clus>
<clus scale="   22.401">  1  5  2 -1</clus>
</clustering>
</event>
<event>
 9    1  0.3197504E-005  0.1105088E+03  0.7546771E-02  0.1263346E+00
          1   -1    0    0  502    0 -0.00000000000E+00  0.00000000000E+00  0.82547714263E+02  0.82547714263E+02  0.00000000000E+00 0. -1.
         21   -1    0    0  501  502  0.00000000000E+00 -0.00000000000E+00 -0.24287084211E+03  0.24287084211E+03  0.00000000000E+00 0. -1.
         23    2    1    2    0    0  0.59525983025E+02 -0.22505245084E+01 -0.69259771957E+02  0.12837743188E+03  0.90196682253E+02 0.  0.
        -24    2    1    2    0    0 -0.68047405572E+02 -0.26422214402E+02 -0.11537770203E+03  0.15849338750E+03  0.80495695142E+02 0.  0.
         11    1    4    4    0    0 -0.38967932060E+02  0.27283752539E+02 -0.52103662818E+02  0.70552778547E+02  0.00000000000E+00 0. -1.
        -12    1    4    4    0    0 -0.29079473512E+02 -0.53705966941E+02 -0.63274039211E+02  0.87940608952E+02  0.00000000000E+00 0.  1.
        -13    1    3    3    0    0  0.24223899098E+01  0.34898829868E+02 -0.42842115237E+02  0.55310425211E+02  0.00000000000E+00 0.  1.
         13    1    3    3    0    0  0.57103593115E+02 -0.37149354377E+02 -0.26417656720E+02  0.73067006671E+02  0.00000000000E+00 0. -1.
          2    1    1    2  501    0  0.85214225470E+01  0.28672738911E+02  0.24314346140E+02  0.38547736990E+02  0.00000000000E+00 0. -1.
<scales pt_clust_5="13000.00000" pt_clust_6="13000.00000" pt_clust_7="13000.00000" pt_clust_8="13000.00000" pt_clust_9="29.91223"></scales>
<clustering>
<clus scale="   29.912">  2  9  1 -1</clus>
<clus scale="   80.496">  5  6 -1 -1</clus>
<clus scale="   90.197">  7  8 -1 -1</clus>
<clus scale="  102.744">  2  5  1 -1</clus>
<clus scale="   29.912">  2  5  1 -1</clus>
</clustering>
</event>
<event>
 9    1  0.3197504E-005  0.9404708E+02  0.7546771E-02  0.1299313E+00
          1   -1    0    0  502    0 -0.00000000000E+00  0.00000000000E+00  0.60776549639E+03  0.60776549639E+03  0.00000000000E+00 0. -1.
         21   -1    0    0  501  502  0.00000000000E+00 -0.00000000000E+00 -0.45600471510E+02  0.45600471510E+02  0.00000000000E+00 0. -1.
        -24    2    1    2    0    0  0.11957695313E+02 -0.51149868526E+01  0.39624271365E+03  0.40480342497E+03  0.81782486987E+02 0.  0.
         23    2    1    2    0    0 -0.67059608487E+02 -0.32134126722E+02  0.11337068501E+03  0.16379585893E+03  0.91905266408E+02 0.  0.
         11    1    3    3    0    0 -0.20584639447E+02  0.28201608802E+02  0.20634804040E+03  0.20928108347E+03  0.00000000000E+00 0. -1.
        -12    1    3    3    0    0  0.32542334759E+02 -0.33316595654E+02  0.18989467325E+03  0.19552234150E+03  0.00000000000E+00 0.  1.
        -11    1    4    4    0    0 -0.46284637632E+01 -0.45897012416E+02  0.78299391596E+02  0.90877682353E+02  0.00000000000E+00 0.  1.
         11    1    4    4    0    0 -0.62431144724E+02  0.13762885694E+02  0.35071293416E+02  0.72918176582E+02  0.00000000000E+00 0. -1.
          2    1    1    2  501    0  0.55101913175E+02  0.37249113575E+02  0.52551626217E+02  0.84766683996E+02  0.00000000000E+00 0. -1.
<scales pt_clust_5="13000.00000" pt_clust_6="13000.00000" pt_clust_7="13000.00000" pt_clust_8="13000.00000" pt_clust_9="66.51103"></scales>
<clustering>
<clus scale="   66.511">  2  9  1 -1</clus>
<clus scale="   81.782">  5  6 -1 -1</clus>
<clus scale="   84.182">  1  5  2 -1</clus>
<clus scale="   91.905">  7  8 -1 -1</clus>
<clus scale="   66.511">  2  5  1 -1</clus>
</clustering>
</event>
<event>
 9    1  0.3197504E-005  0.1192401E+03  0.7546771E-02  0.1249271E+00
         -2   -1    0    0    0  501 -0.00000000000E+00  0.00000000000E+00  0.10853547305E+03  0.10853547305E+03  0.00000000000E+00 0.  1.
         21   -1    0    0  501  502  0.00000000000E+00 -0.00000000000E+00 -0.33878808643E+03  0.33878808643E+03  0.00000000000E+00 0.  1.
        -24    2    1    2    0    0 -0.16324682361E+02  0.68700755689E+02  0.47737520750E+02  0.11744172980E+03  0.80792325906E+02 0.  0.
         23    2    1    2    0    0  0.51933119840E+02 -0.69369068157E+02 -0.25963065080E+03  0.28981341207E+03  0.95260812634E+02 0.  0.
         11    1    3    3    0    0 -0.19385093413E+02 -0.13204408148E+02  0.18978550565E+01  0.23531682791E+02  0.00000000000E+00 0. -1.
        -12    1    3    3    0    0  0.30604110519E+01  0.81905163836E+02  0.45839665693E+02  0.93910047012E+02  0.00000000000E+00 0.  1.
        -13    1    4    4    0    0  0.51233133580E+02 -0.91986882731E+02 -0.22538857973E+03  0.24876983829E+03  0.00000000000E+00 0.  1.
         13    1    4    4    0    0  0.69998626002E+00  0.22617814573E+02 -0.34242071073E+02  0.41043573775E+02  0.00000000000E+00 0. -1.
         -1    1    1    2    0  502 -0.35608437479E+02  0.66831246880E+00 -0.18359483331E+02  0.40068417606E+02  0.00000000000E+00 0.  1.
<scales pt_clust_5="13000.00000" pt_clust_6="13000.00000" pt_clust_7="13000.00000" pt_clust_8="13000.00000" pt_clust_9="35.61473"></scales>
<clustering>
<clus scale="   35.615">  2  9  1 -1</clus>
<clus scale="   80.792">  5  6 -1 -1</clus>
<clus scale="   95.261">  7  8 -1 -1</clus>
<clus scale="  108.032">  1  5  2 -1</clus>
<clus scale="   35.615">  2  5  1 -1</clus>
</clustering>
</event>
<event>
 9    1  0.3197504E-005  0.9640492E+02  0.7546771E-02  0.1293962E+00
         21   -1    0    0  501  502  0.00000000000E+00  0.00000000000E+00  0.11674042080E+03  0.11674042080E+03  0.00000000000E+00 0.  1.
         -4   -1    0    0    0  501 -0.00000000000E+00 -0.00000000000E+00 -0.17451279933E+03  0.17451279933E+03  0.00000000000E+00 0.  1.
        -24    2    1    2    0    0 -0.94534069179E+00  0.74349262233E+00  0.84359533845E+01  0.80674153920E+02  0.80222860526E+02 0.  0.
         23    2    1    2    0    0 -0.22522821151E+01  0.72011121133E+02 -0.62326269631E+01  0.11623637281E+03  0.91002057027E+02 0.  0.
         13    1    3    3    0    0  0.18331841684E+02  0.14433595135E+02 -0.28491495955E+02  0.36825947779E+02  0.00000000000E+00 0. -1.
        -14    1    3    3    0    0 -0.19277182376E+02 -0.13690102513E+02  0.36927449339E+02  0.43848206142E+02  0.00000000000E+00 0.  1.
        -11    1    4    4    0    0 -0.42525013228E+02  0.26544081773E+02  0.14286804924E+02  0.52125596612E+02  0.00000000000E+00 0.  1.
         11    1    4    4    0    0  0.40272731113E+02  0.45467039360E+02 -0.20519431887E+02  0.64110776196E+02  0.00000000000E+00 0. -1.
         -3    1    1    2    0  502  0.31976228069E+01 -0.72754613756E+02 -0.59975704953E+02  0.94342693406E+02  0.00000000000E+00 0.  1.
<scales pt_clust_5="13000.00000" pt_clust_6="13000.00000" pt_clust_7="13000.00000" pt_clust_8="13000.00000" pt_clust_9="72.82489"></scales>
<clustering>
<clus scale="   72.825">  1  9  2 -1</clus>
<clus scale="   80.223">  5  6 -1 -1</clus>
<clus scale="   86.303">  2  5  1 -1</clus>
<clus scale="   91.002">  7  8 -1 -1</clus>
<clus scale="   72.825">  1  5  2 -1</clus>
</clustering>
</event>
<event>
 9    1  0.3197504E-005  0.8945834E+02  0.7546771E-02  0.1305555E+00
          1   -1    0    0  502    0 -0.00000000000E+00  0.00000000000E+00  0.31114624612E+02  0.31114624612E+02  0.00000000000E+00 0. -1.
         21   -1    0    0  501  502  0.00000000000E+00 -0.00000000000E+00 -0.50078850521E+03  0.50078850521E+03  0.00000000000E+00 0.  1.
         23    2    1    2    0    0 -0.33589105103E+01  0.13186138979E+02 -0.12733462695E+03  0.15312777468E+03  0.83957439329E+02 0.  0.
        -24    2    1    2    0    0 -0.16551245922E+02 -0.63920753825E+02 -0.25598075138E+03  0.27665676532E+03  0.81566011349E+02 0.  0.
         11    1    4    4    0    0  0.52353250378E+01 -0.57391892313E+02 -0.76694961632E+02  0.95934118390E+02  0.00000000000E+00 0. -1.
        -12    1    4    4    0    0 -0.21786570959E+02 -0.65288615124E+01 -0.17928578975E+03  0.18072264693E+03  0.00000000000E+00 0.  1.
        -13    1    3    3    0    0 -0.41641400750E+02  0.18770844027E+02 -0.78547200755E+02  0.90862608307E+02  0.00000000000E+00 0. -1.
         13    1    3    3    0    0  0.38282490239E+02 -0.55847050480E+01 -0.48787426193E+02  0.62265166377E+02  0.00000000000E+00 0.  1.
          2    1    1    2  501    0  0.19910156432E+02  0.50734614846E+02 -0.86358502268E+02  0.10211858982E+03  0.00000000000E+00 0. -1.
<scales pt_clust_5="13000.00000" pt_clust_6="13000.00000" pt_clust_7="13000.00000" pt_clust_8="13000.00000" pt_clust_9="54.50155"></scales>
<clustering>
<clus scale="   54.502">  2  9  1 -1</clus>
<clus scale="   81.566">  5  6 -1 -1</clus>
<clus scale="   83.957">  7  8 -1 -1</clus>
<clus scale="   87.218">  2  5  1 -1</clus>
<clus scale="   54.502">  2  5  1 -1</clus>
</clustering>
</event>
<event>
 9    1  0.3197504E-005  0.1359615E+03  0.7546771E-02  0.1232722E+00
         21   -1    0    0  501  502  0.00000000000E+00  0.00000000000E+00  0.54073136588E+03  0.54073136588E+03  0.00000000000E+00 0.  1.
         -2   -1    0    0    0  501 -0.00000000000E+00 -0.00000000000E+00 -0.57900940950E+02  0.57900940950E+02  0.00000000000E+00 0.  1.
         23    2    1    2    0    0  0.33120915045E+02 -0.29059976289E+02  0.12162769033E+03  0.15869251192E+03  0.91915945575E+02 0.  0.
        -24    2    1    2    0    0 -0.21790560913E+02 -0.95013077161E+02  0.18681559293E+03  0.22561906633E+03  0.80632400142E+02 0.  0.
         11    1    4    4    0    0  0.18832326293E+02 -0.10818147110E+02  0.67666538764E+01  0.22748108167E+02  0.00000000000E+00 0. -1.
        -12    1    4    4    0    0 -0.40622887205E+02 -0.84194930050E+02  0.18004893905E+03  0.20287095816E+03  0.00000000000E+00 0.  1.
        -11    1    3    3    0    0  0.11930050701E+02  0.26090447696E+02  0.83711433038E+02  0.88490912483E+02  0.00000000000E+00 0. -1.
         11    1    3    3    0    0  0.21190864344E+02 -0.55150423984E+02  0.37916257290E+02  0.70201599442E+02  0.00000000000E+00 0.  1.
         -1    1    1    2    0  502 -0.11330354132E+02  0.12407305345E+03  0.17438714167E+03  0.21432072858E+03  0.00000000000E+00 0.  1.
<scales pt_clust_5="13000.00000" pt_clust_6="13000.00000" pt_clust_7="13000.00000" pt_clust_8="13000.00000" pt_clust_9="109.47121"></scales>
<clustering>
<clus scale="   80.632">  5  6 -1 -1</clus>
<clus scale="   91.916">  7  8 -1 -1</clus>
<clus scale="  101.931">  2  7  1 -1</clus>
<clus scale="  109.471">  1  9  2 -1</clus>
<clus scale="  109.471">  1  5  2 -1</clus>
</clustering>
</event>
<event>
 9    1  0.3197504E-005  0.2767075E+03  0.7546771E-02  0.1126552E+00
         21   -1    0    0  501  502  0.00000000000E+00  0.00000000000E+00  0.13325452971E+03  0.13325452971E+03  0.00000000000E+00 0.  1.
          1   -1    0    0  502    0 -0.00000000000E+00 -0.00000000000E+00 -0.30558081441E+04  0.30558081441E+04  0.00000000000E+00 0. -1.
        -24    2    1    2    0    0 -0.10294015551E+03  0.19656172389E+02 -0.50026446789E+03  0.51748109742E+03  0.80864748920E+02 0.  0.
         23    2    1    2    0    0 -0.17391317587E+03  0.18943727976E+03 -0.52531236896E+02  0.27656166229E+03  0.87146695278E+02 0.  0.
         11    1    3    3    0    0 -0.94558348633E+02  0.10702807291E+02 -0.49511866570E+03  0.50418084504E+03  0.00000000000E+00 0. -1.
        -12    1    3    3    0    0 -0.83818068795E+01  0.89533650982E+01 -0.51458021958E+01  0.13300252381E+02  0.00000000000E+00 0.  1.
        -11    1    4    4    0    0 -0.18067757801E+03  0.16165395690E+03 -0.52048950247E+02  0.24796266291E+03  0.00000000000E+00 0.  1.
         11    1    4    4    0    0  0.67644021385E+01  0.27783322856E+02 -0.48228664973E+00  0.28598999382E+02  0.00000000000E+00 0. -1.
          2    1    1    2  501    0  0.27685333138E+03 -0.20909345215E+03 -0.23697579096E+04  0.23950199141E+04  0.00000000000E+00 0. -1.
<scales pt_clust_5="13000.00000" pt_clust_6="13000.00000" pt_clust_7="13000.00000" pt_clust_8="13000.00000" pt_clust_9="262.62625"></scales>
<clustering>
<clus scale="   80.865">  5  6 -1 -1</clus>
<clus scale="   87.147">  7  8 -1 -1</clus>
<clus scale="  132.371">  2  5  1 -1</clus>
<clus scale="  262.626">  1  9  2 -1</clus>
<clus scale="  262.626">  1  5  2 -1</clus>
</clustering>
</event>
<event>
 9    1  0.3197504E-005  0.1007921E+03  0.7546771E-02  0.1284755E+00
         21   -1    0    0  501  502  0.00000000000E+00  0.00000000000E+00  0.69616779136E+02  0.69616779136E+02  0.00000000000E+00 0. -1.
         -4   -1    0    0    0  501 -0.00000000000E+00 -0.00000000000E+00 -0.66340333566E+03  0.66340333566E+03  0.00000000000E+00 0.  1.
        -24    2    1    2    0    0  0.19940513382E+02  0.36834032327E+02 -0.54502731524E+03  0.55251184437E+03  0.80375330797E+02 0.  0.
         23    2    1    2    0    0 -0.53137706995E+02  0.51503493694E+01 -0.64395999327E+02  0.12474761968E+03  0.92547187338E+02 0.  0.
         13    1    3    3    0    0 -0.26571681279E+02  0.28255688935E+02 -0.16215911158E+03  0.16673336700E+03  0.00000000000E+00 0. -1.
        -14    1    3    3    0    0  0.46512194661E+02  0.85783433918E+01 -0.38286820366E+03  0.38577847737E+03  0.00000000000E+00 0.  1.
        -11    1    4    4    0    0 -0.29499173294E+02 -0.12735254859E+02 -0.83509305109E+02  0.89477326631E+02  0.00000000000E+00 0.  1.
         11    1    4    4    0    0 -0.23638533701E+02  0.17885604228E+02  0.19113305782E+02  0.35270293053E+02  0.00000000000E+00 0. -1.
         -3    1    1    2    0  502  0.33197193612E+02 -0.41984381696E+02  0.15636758036E+02  0.55760650749E+02  0.00000000000E+00 0.  1.
<scales pt_clust_5="13000.00000" pt_clust_6="13000.00000" pt_clust_7="13000.00000" pt_clust_8="13000.00000" pt_clust_9="53.52328"></scales>
<clustering>
<clus scale="   53.523">  1  9  2 -1</clus>
<clus scale="   80.375">  5  6 -1 -1</clus>
<clus scale="   89.746">  2  5  1 -1</clus>
<clus scale="   92.547">  7  8 -1 -1</clus>
<clus scale="   53.523">  1  5  2 -1</clus>
</clustering>
</event>
<event>
 9    1  0.3197504E-005  0.9759339E+02  0.7546771E-02  0.1288911E+00
          1   -1    0    0  502    0 -0.00000000000E+00  0.00000000000E+00  0.62472282033E+02  0.62472282033E+02  0.00000000000E+00 0. -1.
         21   -1    0    0  501  502  0.00000000000E+00 -0.00000000000E+00 -0.39283295970E+03  0.39283295970E+03  0.00000000000E+00 0.  1.
        -24    2    1    2    0    0 -0.14365625625E+02  0.28978114112E+02  0.10993134093E+02  0.92130470178E+02  0.85563264553E+02 0.  0.
         23    2    1    2    0    0 -0.77431853432E+01 -0.37494676533E+02 -0.26167265409E+03  0.28004584611E+03  0.92126490967E+02 0.  0.
         11    1    3    3    0    0  0.72992897110E+01  0.55439812837E+02  0.14455143442E+02  0.57756416523E+02  0.00000000000E+00 0. -1.
        -12    1    3    3    0    0 -0.21664915336E+02 -0.26461698725E+02 -0.34620093491E+01  0.34374053655E+02  0.00000000000E+00 0.  1.
        -13    1    4    4    0    0 -0.31453056223E+02 -0.55677367911E+02 -0.21758352320E+03  0.22678592022E+03  0.00000000000E+00 0.  1.
         13    1    4    4    0    0  0.23709870880E+02  0.18182691378E+02 -0.44089130884E+02  0.53259925883E+02  0.00000000000E+00 0. -1.
          2    1    1    2  501    0  0.22108810969E+02  0.85165624208E+01 -0.79681157676E+02  0.83128925450E+02  0.00000000000E+00 0. -1.
<scales pt_clust_5="13000.00000" pt_clust_6="13000.00000" pt_clust_7="13000.00000" pt_clust_8="13000.00000" pt_clust_9="23.69243"></scales>
<clustering>
<clus scale="   23.692">  2  9  1 -1</clus>
<clus scale="   85.563">  5  6 -1 -1</clus>
<clus scale="   91.423">  1  5  2 -1</clus>
<clus scale="   92.126">  7  8 -1 -1</clus>
<clus scale="   23.692">  2  5  1 -1</clus>
</clustering>
</event>
<event>
 9    1  0.3997856E-005  0.1053710E+03  0.7546771E-02  0.1276052E+00
          1   -1    0    0  502    0 -0.00000000000E+00  0.00000000000E+00  0.54863062224E+03  0.54863062224E+03  0.00000000000E+00 0. -1.
         21   -1    0    0  501  502  0.00000000000E+00 -0.00000000000E+00 -0.29582706868E+03  0.29582706868E+03  0.00000000000E+00 0. -1.
         23    2    1    2    0    0 -0.27909277553E+02  0.29555291237E+02  0.34061059516E+03  0.35581949931E+03  0.94548905561E+02 0.  0.
        -24    2    1    2    0    0  0.77380165489E+02  0.13823774876E+02  0.18039627132E+03  0.21248220456E+03  0.80169107417E+02 0.  0.
         11    1    4    4    0    0  0.89367052925E+02  0.21323059106E+02  0.17440665311E+03  0.19712641540E+03  0.00000000000E+00 0. -1.
        -12    1    4    4    0    0 -0.11986887436E+02 -0.74992842304E+01  0.59896182078E+01  0.15355789158E+02  0.00000000000E+00 0.  1.
        -11    1    3    3    0    0  0.25329152728E+02  0.39505004590E+02  0.19186106154E+03  0.19751677979E+03  0.00000000000E+00 0. -1.
         11    1    3    3    0    0 -0.53238430280E+02 -0.99497133534E+01  0.14874953362E+03  0.15830271952E+03  0.00000000000E+00 0.  1.
          2    1    1    2  501    0 -0.49470887936E+02 -0.43379066113E+02 -0.26820331292E+03  0.27615598706E+03  0.00000000000E+00 0. -1.
<scales pt_clust_5="13000.00000" pt_clust_6="13000.00000" pt_clust_7="13000.00000" pt_clust_8="13000.00000" pt_clust_9="65.79599"></scales>
<clustering>
<clus scale="   65.796">  2  9  1 -1</clus>
<clus scale="   80.169">  5  6 -1 -1</clus>
<clus scale="   92.686">  2  5  1 -1</clus>
<clus scale="   94.549">  7  8 -1 -1</clus>
<clus scale="   65.796">  2  5  1 -1</clus>
</clustering>
</event>
<event>
 9    1  0.3197504E-005  0.1119859E+03  0.7546771E-02  0.1261944E+00
         -2   -1    0    0    0  501 -0.00000000000E+00  0.00000000000E+00  0.11429324794E+04  0.11429324794E+04  0.00000000000E+00 0.  1.
         21   -1    0    0  501  502  0.00000000000E+00 -0.00000000000E+00 -0.37367419152E+03  0.37367419152E+03  0.00000000000E+00 0.  1.
        -24    2    1    2    0    0 -0.61441110925E+02  0.26410477845E+02  0.11231153456E+04  0.11277286991E+04  0.76885732082E+02 0.  0.
         23    2    1    2    0    0  0.25826244403E+02 -0.79235005409E+01 -0.12512636560E+03  0.15665412172E+03  0.90300219956E+02 0.  0.
         13    1    3    3    0    0 -0.15001747037E+02 -0.16962964502E+02  0.95401454781E+02  0.98052190966E+02  0.00000000000E+00 0. -1.
        -14    1    3    3    0    0 -0.46439363888E+02  0.43373442347E+02  0.10277138908E+04  0.10296765081E+04  0.00000000000E+00 0.  1.
        -13    1    4    4    0    0  0.23975942692E+01  0.25215944172E+02 -0.23157569934E+00  0.25330730863E+02  0.00000000000E+00 0.  1.
         13    1    4    4    0    0  0.23428650134E+02 -0.33139444713E+02 -0.12489478990E+03  0.13132339086E+03  0.00000000000E+00 0. -1.
         -1    1    1    2    0  502  0.35614866521E+02 -0.18486977304E+02 -0.22873069211E+03  0.23222385011E+03  0.00000000000E+00 0.  1.
<scales pt_clust_5="13000.00000" pt_clust_6="13000.00000" pt_clust_7="13000.00000" pt_clust_8="13000.00000" pt_clust_9="40.12714"></scales>
<clustering>
<clus scale="   40.127">  2  9  1 -1</clus>
<clus scale="   76.886">  5  6 -1 -1</clus>
<clus scale="   90.300">  7  8 -1 -1</clus>
<clus scale="  101.480">  1  5  2 -1</clus>
<clus scale="   40.127">  2  5  1 -1</clus>
</clustering>
</event>
<event>
 9    1  0.3197504E-005  0.9227290E+02  0.7546771E-02  0.1303355E+00
         21   -1    0    0  501  502  0.00000000000E+00  0.00000000000E+00  0.51023636119E+02  0.51023636119E+02  0.00000000000E+00 0.  1.
          3   -1    0    0  502    0 -0.00000000000E+00 -0.00000000000E+00 -0.39762941606E+03  0.39762941606E+03  0.00000000000E+00 0. -1.
        -24    2    1    2    0    0 -0.30024404252E+02  0.44494896192E+02 -0.15571406524E+03  0.18338526928E+03  0.80635142703E+02 0.  0.
         23    2    1    2    0    0 -0.64250405471E+01  0.34643035537E+02 -0.10377588436E+03  0.14205844007E+03  0.90386642610E+02 0.  0.
         13    1    3    3    0    0 -0.42225137065E+02 -0.77236723044E+01 -0.76648620353E+02  0.87850033103E+02  0.00000000000E+00 0. -1.
        -14    1    3    3    0    0  0.12200732814E+02  0.52218568496E+02 -0.79065444883E+02  0.95535236177E+02  0.00000000000E+00 0.  1.
        -11    1    4    4    0    0  0.24196605791E+01  0.56742814526E+02 -0.29372872147E+02  0.63940342319E+02  0.00000000000E+00 0.  1.
         11    1    4    4    0    0 -0.88447011262E+01 -0.22099778989E+02 -0.74403012213E+02  0.78118097748E+02  0.00000000000E+00 0. -1.
          4    1    1    2  501    0  0.36449444799E+02 -0.79137931729E+02 -0.87115830345E+02  0.12320934283E+03  0.00000000000E+00 0. -1.
<scales pt_clust_5="13000.00000" pt_clust_6="13000.00000" pt_clust_7="13000.00000" pt_clust_8="13000.00000" pt_clust_9="87.12849"></scales>
<clustering>
<clus scale="   80.635">  5  6 -1 -1</clus>
<clus scale="   87.128">  1  9  2 -1</clus>
<clus scale="   82.744">  2  5  1 -1</clus>
<clus scale="   90.387">  7  8 -1 -1</clus>
<clus scale="   87.128">  1  5  2 -1</clus>
</clustering>
</event>
<event>
 9    1  0.3197504E-005  0.1003451E+03  0.7546771E-02  0.1285210E+00
         21   -1    0    0  501  502  0.00000000000E+00  0.00000000000E+00  0.60744282694E+03  0.60744282694E+03  0.00000000000E+00 0. -1.
          3   -1    0    0  502    0 -0.00000000000E+00 -0.00000000000E+00 -0.25965147932E+02  0.25965147932E+02  0.00000000000E+00 0. -1.
        -24    2    1    2    0    0 -0.37458466499E+02 -0.19848960087E+02  0.10089216362E+03  0.13543748383E+03  0.79793266750E+02 0.  0.
         23    2    1    2    0    0  0.45268745790E+02 -0.15763728614E+01  0.43795936841E+03  0.44962761399E+03  0.91130887149E+02 0.  0.
         13    1    3    3    0    0 -0.34909582472E+02 -0.41893334011E+02  0.32379394157E+02  0.63420466325E+02  0.00000000000E+00 0. -1.
        -14    1    3    3    0    0 -0.25488840272E+01  0.22044373925E+02  0.68512769462E+02  0.72017017509E+02  0.00000000000E+00 0.  1.
        -13    1    4    4    0    0  0.57541805060E+02  0.31102530574E+02  0.31975507285E+03  0.32637667403E+03  0.00000000000E+00 0. -1.
         13    1    4    4    0    0 -0.12273059270E+02 -0.32678903435E+02  0.11820429555E+03  0.12325093996E+03  0.00000000000E+00 0.  1.
          4    1    1    2  501    0 -0.78102792910E+01  0.21425332948E+02  0.42626146982E+02  0.48342877046E+02  0.00000000000E+00 0. -1.
<scales pt_clust_5="13000.00000" pt_clust_6="13000.00000" pt_clust_7="13000.00000" pt_clust_8="13000.00000" pt_clust_9="22.80451"></scales>
<clustering>
<clus scale="   22.805">  1  9  2 -1</clus>
<clus scale="   79.793">  5  6 -1 -1</clus>
<clus scale="   90.174">  2  5  1 -1</clus>
<clus scale="   91.131">  7  8 -1 -1</clus>
<clus scale="   22.805">  1  5  2 -1</clus>
</clustering>
</event>
<event>
 9    1  0.3197504E-005  0.1024314E+03  0.7546771E-02  0.1278807E+00
         -2   -1    0    0    0  501 -0.00000000000E+00  0.00000000000E+00  0.85633268615E+03  0.85633268615E+03  0.00000000000E+00 0.  1.
         21   -1    0    0  501  502  0.00000000000E+00 -0.00000000000E+00 -0.27850307105E+02  0.27850307105E+02  0.00000000000E+00 0.  1.
        -24    2    1    2    0    0 -0.28315366207E+02  0.21853493105E+02  0.34167145156E+03  0.35368715292E+03  0.84118286967E+02 0.  0.
         23    2    1    2    0    0  0.79187050978E+02 -0.21553273457E+02  0.17131376392E+03  0.21092350320E+03  0.91679800702E+02 0.  0.
         11    1    3    3    0    0  0.39086049887E+01  0.43273896585E+02  0.10135828155E+03  0.11027877655E+03  0.00000000000E+00 0. -1.
        -12    1    3    3    0    0 -0.32223971196E+02 -0.21420403479E+02  0.24031317001E+03  0.24340837637E+03  0.00000000000E+00 0.  1.
        -13    1    4    4    0    0  0.74746294533E+02  0.61347888926E+01  0.16631074977E+03  0.18243878335E+03  0.00000000000E+00 0. -1.
         13    1    4    4    0    0  0.44407564449E+01 -0.27688062350E+02  0.50030141456E+01  0.28484719852E+02  0.00000000000E+00 0.  1.
         -1    1    1    2    0  502 -0.50871684771E+02 -0.30021964773E+00  0.31549716356E+03  0.31957233713E+03  0.00000000000E+00 0.  1.
<scales pt_clust_5="13000.00000" pt_clust_6="13000.00000" pt_clust_7="13000.00000" pt_clust_8="13000.00000" pt_clust_9="50.87260"></scales>
<clustering>
<clus scale="   50.873">  2  9  1 -1</clus>
<clus scale="   84.118">  5  6 -1 -1</clus>
<clus scale="   91.680">  7  8 -1 -1</clus>
<clus scale="   95.723">  1  5  2 -1</clus>
<clus scale="   50.873">  2  5  1 -1</clus>
</clustering>
</event>
<event>
 9    1  0.3197504E-005  0.4798592E+03  0.7546771E-02  0.1053539E+00
          1   -1    0    0  502    0 -0.00000000000E+00  0.00000000000E+00  0.38995330651E+03  0.38995330651E+03  0.00000000000E+00 0. -1.
         21   -1    0    0  501  502  0.00000000000E+00 -0.00000000000E+00 -0.96602991863E+03  0.96602991863E+03  0.00000000000E+00 0. -1.
        -24    2    1    2    0    0 -0.15243897338E+03 -0.34771040307E+02  0.77271009607E+02  0.19152829030E+03  0.79155613896E+02 0.  0.
         23    2    1    2    0    0  0.31099578566E+02  0.48609610113E+03 -0.36134855959E+03  0.61338233385E+03  0.91697887908E+02 0.  0.
         11    1    3    3    0    0 -0.80605443351E+02 -0.50381394863E+02  0.17208004567E+02  0.96600403039E+02  0.00000000000E+00 0. -1.
        -12    1    3    3    0    0 -0.71833530030E+02  0.15610354556E+02  0.60063005040E+02  0.94927887264E+02  0.00000000000E+00 0.  1.
        -11    1    4    4    0    0  0.47455147156E+02  0.46880599494E+03 -0.33682344830E+03  0.57920729209E+03  0.00000000000E+00 0. -1.
         11    1    4    4    0    0 -0.16355568590E+02  0.17290106188E+02 -0.24525111287E+02  0.34175041763E+02  0.00000000000E+00 0.  1.
          2    1    1    2  501    0  0.12133939482E+03 -0.45132506082E+03 -0.29199906214E+03  0.55107260098E+03  0.00000000000E+00 0. -1.
<scales pt_clust_5="13000.00000" pt_clust_6="13000.00000" pt_clust_7="13000.00000" pt_clust_8="13000.00000" pt_clust_9="471.01649"></scales>
<clustering>
<clus scale="   79.156">  5  6 -1 -1</clus>
<clus scale="   91.698">  7  8 -1 -1</clus>
<clus scale="  175.249">  1  5  2 -1</clus>
<clus scale="  471.016">  2  9  1 -1</clus>
<clus scale="  471.016">  2  5  1 -1</clus>
</clustering>
</event>
<event>
 9    1  0.3197504E-005  0.1569751E+03  0.7546771E-02  0.1217331E+00
         21   -1    0    0  501  502  0.00000000000E+00  0.00000000000E+00  0.51547748233E+03  0.51547748233E+03  0.00000000000E+00 0. -1.
          3   -1    0    0  502    0 -0.00000000000E+00 -0.00000000000E+00 -0.80490891778E+02  0.80490891778E+02  0.00000000000E+00 0. -1.
        -24    2    1    2    0    0 -0.27983158541E+02 -0.37319540727E+02  0.19460961300E+03  0.21494088002E+03  0.78427515252E+02 0.  0.
         23    2    1    2    0    0  0.12113471661E+03 -0.49016943024E+02  0.17870430907E+03  0.23983712885E+03  0.92251493349E+02 0.  0.
         13    1    3    3    0    0  0.21282255809E+02 -0.22086857572E+02  0.31891905904E+02  0.44247681881E+02  0.00000000000E+00 0. -1.
        -14    1    3    3    0    0 -0.49265414349E+02 -0.15232683155E+02  0.16271770710E+03  0.17069319814E+03  0.00000000000E+00 0.  1.
        -13    1    4    4    0    0  0.37919703069E+02 -0.58906530996E+02  0.11465017877E+03  0.13435976617E+03  0.00000000000E+00 0.  1.
         13    1    4    4    0    0  0.83215013545E+02  0.98895879728E+01  0.64054130301E+02  0.10547736268E+03  0.00000000000E+00 0. -1.
          4    1    1    2  501    0 -0.93151558073E+02  0.86336483751E+02  0.61672668488E+02  0.14119036524E+03  0.00000000000E+00 0. -1.
<scales pt_clust_5="13000.00000" pt_clust_6="13000.00000" pt_clust_7="13000.00000" pt_clust_8="13000.00000" pt_clust_9="127.00735"></scales>
<clustering>
<clus scale="   78.428">  5  6 -1 -1</clus>
<clus scale="   91.251">  2  5  1 -1</clus>
<clus scale="   92.251">  7  8 -1 -1</clus>
<clus scale="  127.007">  1  9  2 -1</clus>
<clus scale="  127.007">  1  5  2 -1</clus>
</clustering>
</event>
<event>
 9    1  0.3197504E-005  0.1789991E+03  0.7546771E-02  0.1170207E+00
         21   -1    0    0  501  502  0.00000000000E+00  0.00000000000E+00  0.99932217008E+02  0.99932217008E+02  0.00000000000E+00 0. -1.
          1   -1    0    0  502    0 -0.00000000000E+00 -0.00000000000E+00 -0.11622142663E+04  0.11622142663E+04  0.00000000000E+00 0. -1.
         23    2    1    2    0    0  0.14901423947E+03  0.39552319605E+02 -0.10365021287E+04  0.10516416744E+04  0.88565901405E+02 0.  0.
        -24    2    1    2    0    0 -0.16769376342E+03 -0.30658605410E+02 -0.30680000136E+02  0.18924372839E+03  0.76228458933E+02 0.  0.
         11    1    4    4    0    0 -0.12990211549E+03 -0.42351318010E+02 -0.49647784906E+02  0.14537226796E+03  0.00000000000E+00 0. -1.
        -12    1    4    4    0    0 -0.37791647930E+02  0.11692712600E+02  0.18967784770E+02  0.43871460430E+02  0.00000000000E+00 0.  1.
        -13    1    3    3    0    0  0.11989977143E+03 -0.99961106188E+01 -0.70824555930E+03  0.71839240648E+03  0.00000000000E+00 0. -1.
         13    1    3    3    0    0  0.29114468032E+02  0.49548430224E+02 -0.32825656942E+03  0.33324926790E+03  0.00000000000E+00 0.  1.
          2    1    1    2  501    0  0.18679523955E+02 -0.88937141949E+01  0.49000795379E+01  0.21261080566E+02  0.00000000000E+00 0. -1.
<scales pt_clust_5="13000.00000" pt_clust_6="13000.00000" pt_clust_7="13000.00000" pt_clust_8="13000.00000" pt_clust_9="20.68871"></scales>
<clustering>
<clus scale="   20.689">  1  9  2 -1</clus>
<clus scale="   76.228">  5  6 -1 -1</clus>
<clus scale="   88.566">  7  8 -1 -1</clus>
<clus scale="  173.227">  1  5  2 -1</clus>
<clus scale="   20.689">  1  5  2 -1</clus>
</clustering>
</event>
<event>
 9    1  0.3197504E-005  0.9117301E+02  0.7546771E-02  0.1306011E+00
          1   -1    0    0  502    0 -0.00000000000E+00  0.00000000000E+00  0.75243389986E+02  0.75243389986E+02  0.00000000000E+00 0. -1.
         21   -1    0    0  501  502  0.00000000000E+00 -0.00000000000E+00 -0.16679706614E+03  0.16679706614E+03  0.00000000000E+00 0. -1.
         23    2    1    2    0    0  0.12728420501E+02  0.24986749104E+02  0.69723163197E+01  0.92746479648E+02  0.88130278412E+02 0.  0.
        -24    2    1    2    0    0 -0.25275813487E+02  0.17283399837E+01 -0.67098733981E+02  0.10618010827E+03  0.78295091693E+02 0.  0.
         11    1    4    4    0    0 -0.44333619250E+02 -0.23315049840E+02 -0.34194232240E+02  0.60649046681E+02  0.00000000000E+00 0. -1.
        -12    1    4    4    0    0  0.19057805762E+02  0.25043389824E+02 -0.32904501741E+02  0.45531061586E+02  0.00000000000E+00 0.  1.
        -11    1    3    3    0    0 -0.12847478626E+02 -0.23481940563E+02 -0.18272245248E+02  0.32408859684E+02  0.00000000000E+00 0.  1.
         11    1    3    3    0    0  0.25575899127E+02  0.48468689667E+02  0.25244561567E+02  0.60337619964E+02  0.00000000000E+00 0. -1.
          2    1    1    2  501    0  0.12547392986E+02 -0.26715089088E+02 -0.31427258495E+02  0.43113868212E+02  0.00000000000E+00 0. -1.
<scales pt_clust_5="13000.00000" pt_clust_6="13000.00000" pt_clust_7="13000.00000" pt_clust_8="13000.00000" pt_clust_9="29.51496"></scales>
<clustering>
<clus scale="   29.515">  2  9  1 -1</clus>
<clus scale="   78.295">  5  6 -1 -1</clus>
<clus scale="   81.705">  2  5  1 -1</clus>
<clus scale="   88.130">  7  8 -1 -1</clus>
<clus scale="   29.515">  2  5  1 -1</clus>
</clustering>
</event>
<event>
 9    1  0.3197504E-005  0.9666917E+02  0.7546771E-02  0.1287891E+00
         -4   -1    0    0    0  501 -0.00000000000E+00  0.00000000000E+00  0.14951738254E+03  0.14951738254E+03  0.00000000000E+00 0.  1.
         21   -1    0    0  501  502  0.00000000000E+00 -0.00000000000E+00 -0.11110423349E+03  0.11110423349E+03  0.00000000000E+00 0.  1.
         23    2    1    2    0    0 -0.50247858671E+01  0.25657658778E+02  0.48326714180E+02  0.10662048137E+03  0.91372270501E+02 0.  0.
        -24    2    1    2    0    0 -0.23535404585E+02 -0.31219998300E+02  0.30066666079E+02  0.10455375873E+03  0.92189372993E+02 0.  0.
         11    1    4    4    0    0  0.13207194717E+02 -0.31289310993E+02  0.51743192382E+02  0.61893529004E+02  0.00000000000E+00 0. -1.
        -12    1    4    4    0    0 -0.36742599302E+02  0.69312693351E-01 -0.21676526303E+02  0.42660229726E+02  0.00000000000E+00 0.  1.
        -13    1    3    3    0    0  0.11689028192E+02  0.49608738529E+02  0.56697591964E+02  0.76238292563E+02  0.00000000000E+00 0.  1.
         13    1    3    3    0    0 -0.16713814059E+02 -0.23951079751E+02 -0.83708777834E+01  0.30382188804E+02  0.00000000000E+00 0. -1.
         -3    1    1    2    0  502  0.28560190452E+02  0.55623395217E+01 -0.39980231208E+02  0.49447375937E+02  0.00000000000E+00 0.  1.
<scales pt_clust_5="13000.00000" pt_clust_6="13000.00000" pt_clust_7="13000.00000" pt_clust_8="13000.00000" pt_clust_9="29.09681"></scales>
<clustering>
<clus scale="   29.097">  2  9  1 -1</clus>
<clus scale="   91.372">  7  8 -1 -1</clus>
<clus scale="   92.189">  5  6 -1 -1</clus>
<clus scale="   95.890">  1  7  2 -1</clus>
<clus scale="   29.097">  2  5  1 -1</clus>
</clustering>
</event>
<event>
 9    1  0.3197504E-005  0.1319404E+03  0.7546771E-02  0.1236384E+00
         21   -1    0    0  501  502  0.00000000000E+00  0.00000000000E+00  0.16481245766E+03  0.16481245766E+03  0.00000000000E+00 0.  1.
         -4   -1    0    0    0  501 -0.00000000000E+00 -0.00000000000E+00 -0.50966960651E+03  0.50966960651E+03  0.00000000000E+00 0.  1.
        -24    2    1    2    0    0 -0.72643063916E+02 -0.24732180629E+02 -0.30863463043E+03  0.32799598285E+03  0.80232999257E+02 0.  0.
         23    2    1    2    0    0  0.10532746242E+02  0.62977889632E+02 -0.15748184476E+03  0.20497901421E+03  0.11462421868E+03 0.  0.
         11    1    3    3    0    0 -0.43560480015E+02  0.18116097615E+02 -0.22287709722E+03  0.22781551501E+03  0.00000000000E+00 0. -1.
        -12    1    3    3    0    0 -0.29082583901E+02 -0.42848278244E+02 -0.85757533210E+02  0.10018046784E+03  0.00000000000E+00 0.  1.
        -13    1    4    4    0    0 -0.32021100458E+02  0.56403759170E+02 -0.14698546340E+03  0.16065945778E+03  0.00000000000E+00 0.  1.
         13    1    4    4    0    0  0.42553846700E+02  0.65741304626E+01 -0.10496381369E+02  0.44319556430E+02  0.00000000000E+00 0. -1.
         -3    1    1    2    0  502  0.62110317675E+02 -0.38245709004E+02  0.12125932634E+03  0.14150706712E+03  0.00000000000E+00 0.  1.
<scales pt_clust_5="13000.00000" pt_clust_6="13000.00000" pt_clust_7="13000.00000" pt_clust_8="13000.00000" pt_clust_9="72.94125"></scales>
<clustering>
<clus scale="   72.941">  1  9  2 -1</clus>
<clus scale="   80.233">  5  6 -1 -1</clus>
<clus scale="  103.474">  2  5  1 -1</clus>
<clus scale="  114.624">  7  8 -1 -1</clus>
<clus scale="   72.941">  1  5  2 -1</clus>
</clustering>
</event>
<event>
 9    1  0.3197504E-005  0.1803213E+03  0.7546771E-02  0.1168790E+00
         21   -1    0    0  501  502  0.00000000000E+00  0.00000000000E+00  0.17038004614E+03  0.17038004614E+03  0.00000000000E+00 0. -1.
          1   -1    0    0  502    0 -0.00000000000E+00 -0.00000000000E+00 -0.24447961908E+03  0.24447961908E+03  0.00000000000E+00 0. -1.
         23    2    1    2    0    0  0.13732082810E+03 -0.10090691281E+03 -0.83344584685E+02  0.21048682164E+03  0.91209469937E+02 0.  0.
        -24    2    1    2    0    0 -0.12232567544E+03  0.65857026112E+02 -0.11724678580E+02  0.16086333804E+03  0.80242299789E+02 0.  0.
         13    1    4    4    0    0 -0.74193544954E+02  0.27336866028E+02  0.31983052936E+02  0.85293036246E+02  0.00000000000E+00 0. -1.
        -14    1    4    4    0    0 -0.48132130488E+02  0.38520160084E+02 -0.43707731516E+02  0.75570301789E+02  0.00000000000E+00 0.  1.
        -13    1    3    3    0    0  0.70330364413E+02 -0.10597981214E+01 -0.14107793003E+02  0.71739202351E+02  0.00000000000E+00 0.  1.
         13    1    3    3    0    0  0.66990463683E+02 -0.99847114690E+02 -0.69236791682E+02  0.13874761929E+03  0.00000000000E+00 0. -1.
          2    1    1    2  501    0 -0.14995152655E+02  0.35049886699E+02  0.20969690324E+02  0.43509505548E+02  0.00000000000E+00 0. -1.
<scales pt_clust_5="13000.00000" pt_clust_6="13000.00000" pt_clust_7="13000.00000" pt_clust_8="13000.00000" pt_clust_9="38.12282"></scales>
<clustering>
<clus scale="   38.123">  1  9  2 -1</clus>
<clus scale="   80.242">  5  6 -1 -1</clus>
<clus scale="   91.209">  7  8 -1 -1</clus>
<clus scale="  175.030">  1  5  2 -1</clus>
<clus scale="   38.123">  1  5  2 -1</clus>
</clustering>
</event>
<event>
 9    1  0.3197504E-005  0.1189876E+03  0.7546771E-02  0.1256995E+00
         21   -1    0    0  501  502  0.00000000000E+00  0.00000000000E+00  0.63702552941E+02  0.63702552941E+02  0.00000000000E+00 0. -1.
         -2   -1    0    0    0  501 -0.00000000000E+00 -0.00000000000E+00 -0.37161915835E+03  0.37161915835E+03  0.00000000000E+00 0.  1.
        -24    2    1    2    0    0 -0.41937283545E+02 -0.66787896792E+01 -0.24117240582E+03  0.25781502273E+03  0.80629489859E+02 0.  0.
         23    2    1    2    0    0  0.66500079880E+02 -0.75279464850E+00 -0.77542595715E+02  0.14966490758E+03  0.10937962830E+03 0.  0.
         11    1    3    3    0    0 -0.28696877581E+02  0.39449832805E+00 -0.17447193881E+02  0.33586768022E+02  0.00000000000E+00 0. -1.
        -12    1    3    3    0    0 -0.13240405964E+02 -0.70732880073E+01 -0.22372521194E+03  0.22422825471E+03  0.00000000000E+00 0.  1.
        -13    1    4    4    0    0  0.78622270347E+02  0.37828080215E+02 -0.47983686132E+02  0.99573385912E+02  0.00000000000E+00 0. -1.
         13    1    4    4    0    0 -0.12122190467E+02 -0.38580874863E+02 -0.29558909583E+02  0.50091521665E+02  0.00000000000E+00 0.  1.
         -1    1    1    2    0  502 -0.24562796334E+02  0.74315843277E+01  0.10798396125E+02  0.27841780982E+02  0.00000000000E+00 0.  1.
<scales pt_clust_5="13000.00000" pt_clust_6="13000.00000" pt_clust_7="13000.00000" pt_clust_8="13000.00000" pt_clust_9="25.66241"></scales>
<clustering>
<clus scale="   25.662">  1  9  2 -1</clus>
<clus scale="   80.629">  5  6 -1 -1</clus>
<clus scale="   93.248">  2  5  1 -1</clus>
<clus scale="  109.380">  7  8 -1 -1</clus>
<clus scale="   25.662">  1  5  2 -1</clus>
</clustering>
</event>
<event>
 9    1  0.3197504E-005  0.9883349E+02  0.7546771E-02  0.1289196E+00
         21   -1    0    0  501  502  0.00000000000E+00  0.00000000000E+00  0.11326353253E+03  0.11326353253E+03  0.00000000000E+00 0. -1.
          1   -1    0    0  502    0 -0.00000000000E+00 -0.00000000000E+00 -0.11358905393E+03  0.11358905393E+03  0.00000000000E+00 0. -1.
        -24    2    1    2    0    0  0.36875994093E+02  0.13986419264E+02 -0.42301888300E+02  0.99449942621E+02  0.80903538053E+02 0.  0.
         23    2    1    2    0    0 -0.14084012799E+02 -0.13041810583E+02  0.43701507222E+02  0.10452595689E+03  0.92991428047E+02 0.  0.
         11    1    3    3    0    0  0.44376733883E+02 -0.22252311798E+02 -0.10694146921E+02  0.50782129424E+02  0.00000000000E+00 0. -1.
        -12    1    3    3    0    0 -0.75007397901E+01  0.36238731061E+02 -0.31607741379E+02  0.48667813197E+02  0.00000000000E+00 0.  1.
        -13    1    4    4    0    0 -0.53579760784E+02 -0.16592539373E+01  0.28425783712E+02  0.60675934842E+02  0.00000000000E+00 0. -1.
         13    1    4    4    0    0  0.39495747985E+02 -0.11382556645E+02  0.15275723510E+02  0.43850022046E+02  0.00000000000E+00 0.  1.
          2    1    1    2  501    0 -0.22791981294E+02 -0.94460868120E+00 -0.17251403271E+01  0.22876686955E+02  0.00000000000E+00 0. -1.
<scales pt_clust_5="13000.00000" pt_clust_6="13000.00000" pt_clust_7="13000.00000" pt_clust_8="13000.00000" pt_clust_9="22.81156"></scales>
<clustering>
<clus scale="   22.812">  1  9  2 -1</clus>
<clus scale="   80.904">  5  6 -1 -1</clus>
<clus scale="   87.556">  2  5  1 -1</clus>
<clus scale="   92.991">  7  8 -1 -1</clus>
<clus scale="   22.812">  1  5  2 -1</clus>
</clustering>
</event>
<event>
 9    1  0.3197504E-005  0.9321212E+02  0.7546771E-02  0.1307313E+00
          1   -1    0    0  502    0 -0.00000000000E+00  0.00000000000E+00  0.16053701298E+03  0.16053701298E+03  0.00000000000E+00 0. -1.
         21   -1    0    0  501  502  0.00000000000E+00 -0.00000000000E+00 -0.91837856610E+02  0.91837856610E+02  0.00000000000E+00 0. -1.
        -24    2    1    2    0    0 -0.15169976535E+02 -0.80801370222E+01  0.91872177947E+02  0.11764060376E+03  0.71438069466E+02 0.  0.
         23    2    1    2    0    0  0.40066040105E+02  0.52447459820E+01  0.19308291284E+01  0.99265170224E+02  0.90647950823E+02 0.  0.
         11    1    3    3    0    0 -0.42911051964E+02 -0.13139915961E+02  0.62276714698E+02  0.76762002095E+02  0.00000000000E+00 0. -1.
        -12    1    3    3    0    0  0.27741075429E+02  0.50597789389E+01  0.29595463250E+02  0.40878601662E+02  0.00000000000E+00 0.  1.
        -11    1    4    4    0    0  0.60816242286E+02 -0.21277004854E+02 -0.58740142316E+01  0.64697993049E+02  0.00000000000E+00 0. -1.
         11    1    4    4    0    0 -0.20750202182E+02  0.26521750836E+02  0.78048433600E+01  0.34567177175E+02  0.00000000000E+00 0.  1.
          2    1    1    2  501    0 -0.24896063570E+02  0.28353910403E+01 -0.25103850701E+02  0.35469095613E+02  0.00000000000E+00 0. -1.
<scales pt_clust_5="13000.00000" pt_clust_6="13000.00000" pt_clust_7="13000.00000" pt_clust_8="13000.00000" pt_clust_9="25.05700"></scales>
<clustering>
<clus scale="   25.057">  2  9  1 -1</clus>
<clus scale="   71.438">  5  6 -1 -1</clus>
<clus scale="   74.665">  1  5  2 -1</clus>
<clus scale="   90.648">  7  8 -1 -1</clus>
<clus scale="   25.057">  2  5  1 -1</clus>
</clustering>
</event>
<event>
 9    1  0.3197504E-005  0.1030430E+03  0.7546771E-02  0.1283259E+00
         21   -1    0    0  501  502  0.00000000000E+00  0.00000000000E+00  0.50202725981E+02  0.50202725981E+02  0.00000000000E+00 0.  1.
         -2   -1    0    0    0  501 -0.00000000000E+00 -0.00000000000E+00 -0.34659488435E+03  0.34659488435E+03  0.00000000000E+00 0.  1.
        -24    2    1    2    0    0  0.88380031609E+01 -0.18619635241E+02 -0.88852229018E+02  0.12246328904E+03  0.81717424364E+02 0.  0.
         23    2    1    2    0    0 -0.51357412725E+02 -0.28938584620E+02 -0.14065438521E+03  0.18190402062E+03  0.99148328875E+02 0.  0.
         11    1    3    3    0    0 -0.25817407496E+02 -0.78706035885E+01 -0.80946689132E+02  0.85327905237E+02  0.00000000000E+00 0. -1.
        -12    1    3    3    0    0  0.34655410657E+02 -0.10749031652E+02 -0.79055398853E+01  0.37135383803E+02  0.00000000000E+00 0.  1.
        -13    1    4    4    0    0  0.29055406576E+02 -0.66033490030E+01 -0.22927860384E+02  0.37596644147E+02  0.00000000000E+00 0. -1.
         13    1    4    4    0    0 -0.80412819301E+02 -0.22335235617E+02 -0.11772652482E+03  0.14430737648E+03  0.00000000000E+00 0.  1.
         -1    1    1    2    0  502  0.42519409564E+02  0.47558219861E+02 -0.66885544140E+02  0.92430300665E+02  0.00000000000E+00 0.  1.
<scales pt_clust_5="13000.00000" pt_clust_6="13000.00000" pt_clust_7="13000.00000" pt_clust_8="13000.00000" pt_clust_9="63.79408"></scales>
<clustering>
<clus scale="   63.794">  1  9  2 -1</clus>
<clus scale="   81.717">  5  6 -1 -1</clus>
<clus scale="   86.401">  2  5  1 -1</clus>
<clus scale="   99.148">  7  8 -1 -1</clus>
<clus scale="   63.794">  1  5  2 -1</clus>
</clustering>
</event>
<event>
 9    1  0.3197504E-005  0.1053415E+03  0.7546771E-02  0.1273595E+00
         -2   -1    0    0    0  501 -0.00000000000E+00  0.00000000000E+00  0.12707261296E+03  0.12707261296E+03  0.00000000000E+00 0.  1.
         21   -1    0    0  501  502  0.00000000000E+00 -0.00000000000E+00 -0.26571696495E+03  0.26571696495E+03  0.00000000000E+00 0.  1.
        -24    2    1    2    0    0 -0.57657735220E+02 -0.23035420717E+02  0.78165643515E+02  0.12857254957E+03  0.81030782039E+02 0.  0.
         23    2    1    2    0    0  0.36543022206E+01  0.22330830476E+02 -0.10819840426E+03  0.14291845055E+03  0.90591218711E+02 0.  0.
         11    1    3    3    0    0 -0.50497254474E+02  0.67898077606E+01  0.74527983348E+01  0.51493867614E+02  0.00000000000E+00 0. -1.
        -12    1    3    3    0    0 -0.71604807463E+01 -0.29825228478E+02  0.70712845180E+02  0.77078681953E+02  0.00000000000E+00 0.  1.
        -13    1    4    4    0    0  0.38506139035E+02  0.29408141100E+02 -0.91702932171E+02  0.10371590657E+03  0.00000000000E+00 0. -1.
         13    1    4    4    0    0 -0.34851836814E+02 -0.70773106236E+01 -0.16495472091E+02  0.39202543980E+02  0.00000000000E+00 0.  1.
         -1    1    1    2    0  502  0.54003433000E+02  0.70459024100E+00 -0.10861159125E+03  0.12129857780E+03  0.00000000000E+00 0.  1.
<scales pt_clust_5="13000.00000" pt_clust_6="13000.00000" pt_clust_7="13000.00000" pt_clust_8="13000.00000" pt_clust_9="54.00803"></scales>
<clustering>
<clus scale="   54.008">  2  9  1 -1</clus>
<clus scale="   81.031">  5  6 -1 -1</clus>
<clus scale="   90.591">  7  8 -1 -1</clus>
<clus scale="   97.242">  1  5  2 -1</clus>
<clus scale="   54.008">  2  5  1 -1</clus>
</clustering>
</event>
<event>
 9    1  0.3197504E-005  0.1190947E+03  0.7546771E-02  0.1244958E+00
         21   -1    0    0  501  502  0.00000000000E+00  0.00000000000E+00  0.88182253606E+02  0.88182253606E+02  0.00000000000E+00 0.  1.
          1   -1    0    0  502    0 -0.00000000000E+00 -0.00000000000E+00 -0.30674968898E+03  0.30674968898E+03  0.00000000000E+00 0. -1.
         23    2    1    2    0    0 -0.62403496687E+02  0.58388451507E+02 -0.21938417579E+03  0.24995677479E+03  0.83937863983E+02 0.  0.
        -24    2    1    2    0    0  0.40359065712E+02 -0.73829677391E+02 -0.11059519235E+01  0.11799211497E+03  0.82711792495E+02 0.  0.
         13    1    4    4    0    0  0.18788896973E+02 -0.11066049222E+02 -0.36695233202E+02  0.42685128963E+02  0.00000000000E+00 0. -1.
        -14    1    4    4    0    0  0.21570168739E+02 -0.62763628168E+02  0.35589281278E+02  0.75306986012E+02  0.00000000000E+00 0.  1.
        -13    1    3    3    0    0  0.16527925176E+02  0.25157485416E+02 -0.32017777476E+02  0.43945528300E+02  0.00000000000E+00 0.  1.
         13    1    3    3    0    0 -0.78931421863E+02  0.33230966091E+02 -0.18736639831E+03  0.20601124649E+03  0.00000000000E+00 0. -1.
          2    1    1    2  501    0  0.22044430975E+02  0.15441225883E+02  0.19226923352E+01  0.26983052822E+02  0.00000000000E+00 0. -1.
<scales pt_clust_5="13000.00000" pt_clust_6="13000.00000" pt_clust_7="13000.00000" pt_clust_8="13000.00000" pt_clust_9="26.91446"></scales>
<clustering>
<clus scale="   26.914">  1  9  2 -1</clus>
<clus scale="   82.712">  5  6 -1 -1</clus>
<clus scale="   83.938">  7  8 -1 -1</clus>
<clus scale="  118.234">  1  5  2 -1</clus>
<clus scale="   26.914">  1  5  2 -1</clus>
</clustering>
</event>
<event>
 9    1  0.3197504E-005  0.1905378E+03  0.7546771E-02  0.1180644E+00
         21   -1    0    0  501  502  0.00000000000E+00  0.00000000000E+00  0.64483042321E+03  0.64483042321E+03  0.00000000000E+00 0.  1.
         -4   -1    0    0    0  501 -0.00000000000E+00 -0.00000000000E+00 -0.15515733439E+03  0.15515733439E+03  0.00000000000E+00 0.  1.
        -24    2    1    2    0    0  0.28757967582E+02 -0.73804879727E+02  0.15891525375E+03  0.19521351993E+03  0.81117689299E+02 0.  0.
         23    2    1    2    0    0  0.49436932231E+02 -0.83191001399E+02 -0.80416539040E+02  0.15775464641E+03  0.95157531130E+02 0.  0.
         11    1    3    3    0    0 -0.21760855307E+02 -0.17027189842E+02  0.12664248870E+02  0.30394789307E+02  0.00000000000E+00 0. -1.
        -12    1    3    3    0    0  0.50518822889E+02 -0.56777689885E+02  0.14625100488E+03  0.16481873062E+03  0.00000000000E+00 0.  1.
        -11    1    4    4    0    0  0.29635194067E+02 -0.34779381083E+02 -0.93298579916E+02  0.10388683791E+03  0.00000000000E+00 0.  1.
         11    1    4    4    0    0  0.19801738164E+02 -0.48411620316E+02  0.12882040875E+02  0.53867808504E+02  0.00000000000E+00 0. -1.
         -3    1    1    2    0  502 -0.78194899814E+02  0.15699588113E+03  0.41117437410E+03  0.44701959126E+03  0.00000000000E+00 0.  1.
<scales pt_clust_5="13000.00000" pt_clust_6="13000.00000" pt_clust_7="13000.00000" pt_clust_8="13000.00000" pt_clust_9="165.07478"></scales>
<clustering>
<clus scale="   81.118">  5  6 -1 -1</clus>
<clus scale="   95.158">  7  8 -1 -1</clus>
<clus scale="  113.377">  2  5  1 -1</clus>
<clus scale="  165.075">  1  9  2 -1</clus>
<clus scale="  165.075">  1  5  2 -1</clus>
</clustering>
</event>
<event>
 9    1  0.3197504E-005  0.1068799E+03  0.7546771E-02  0.1266466E+00
          3   -1    0    0  502    0 -0.00000000000E+00  0.00000000000E+00  0.35145442590E+03  0.35145442590E+03  0.00000000000E+00 0. -1.
         21   -1    0    0  501  502  0.00000000000E+00 -0.00000000000E+00 -0.79360050678E+02  0.79360050678E+02  0.00000000000E+00 0.  1.
        -24    2    1    2    0    0  0.30683855434E+02  0.31741389659E+02  0.13959035715E+03  0.17241594859E+03  0.91064684248E+02 0.  0.
         23    2    1    2    0    0 -0.85034323606E+02 -0.49449361891E+02  0.24580772798E+02  0.13627165731E+03  0.91047650229E+02 0.  0.
         11    1    3    3    0    0  0.45561671783E+02  0.54785662114E+02  0.82047381049E+02  0.10866971724E+03  0.00000000000E+00 0. -1.
        -12    1    3    3    0    0 -0.14877816349E+02 -0.23044272455E+02  0.57542976099E+02  0.63746231344E+02  0.00000000000E+00 0.  1.
        -11    1    4    4    0    0 -0.30508171841E+02 -0.52450387251E+02  0.47489709093E+02  0.77052346763E+02  0.00000000000E+00 0. -1.
         11    1    4    4    0    0 -0.54526151765E+02  0.30010253606E+01 -0.22908936295E+02  0.59219310548E+02  0.00000000000E+00 0.  1.
          4    1    1    2  501    0  0.54350468172E+02  0.17707972232E+02  0.10792324528E+03  0.12212687068E+03  0.00000000000E+00 0. -1.
<scales pt_clust_5="13000.00000" pt_clust_6="13000.00000" pt_clust_7="13000.00000" pt_clust_8="13000.00000" pt_clust_9="57.16248"></scales>
<clustering>
<clus scale="   57.162">  2  9  1 -1</clus>
<clus scale="   91.048">  7  8 -1 -1</clus>
<clus scale="   91.065">  5  6 -1 -1</clus>
<clus scale="  106.865">  2  7  1 -1</clus>
<clus scale="   57.162">  2  5  1 -1</clus>
</clustering>
</event>
<event>
 9    1  0.3197504E-005  0.1156407E+03  0.7546771E-02  0.1254775E+00
         21   -1    0    0  501  502  0.00000000000E+00  0.00000000000E+00  0.37216408331E+03  0.37216408331E+03  0.00000000000E+00 0.  1.
          1   -1    0    0  502    0 -0.00000000000E+00 -0.00000000000E+00 -0.57499327103E+02  0.57499327103E+02  0.00000000000E+00 0. -1.
         23    2    1    2    0    0 -0.10165212134E+02 -0.62124060201E+02  0.11134023027E+03  0.15716738828E+03  0.91335703140E+02 0.  0.
        -24    2    1    2    0    0  0.70885268491E+02  0.56499066756E+02  0.12845704698E+03  0.17593668700E+03  0.78966062850E+02 0.  0.
         13    1    4    4    0    0  0.62984970881E+02  0.37306034872E+02  0.36751381341E+02  0.81911603728E+02  0.00000000000E+00 0. -1.
        -14    1    4    4    0    0  0.79002976098E+01  0.19193031884E+02  0.91705665634E+02  0.94025083274E+02  0.00000000000E+00 0.  1.
        -13    1    3    3    0    0  0.30754159471E+02 -0.38077947206E+02  0.95183522969E+02  0.10703107695E+03  0.00000000000E+00 0.  1.
         13    1    3    3    0    0 -0.40919371605E+02 -0.24046112995E+02  0.16156707297E+02  0.50136311326E+02  0.00000000000E+00 0. -1.
          2    1    1    2  501    0 -0.60720056357E+02  0.56249934455E+01  0.74867478969E+02  0.96559335139E+02  0.00000000000E+00 0. -1.
<scales pt_clust_5="13000.00000" pt_clust_6="13000.00000" pt_clust_7="13000.00000" pt_clust_8="13000.00000" pt_clust_9="60.98004"></scales>
<clustering>
<clus scale="   60.980">  1  9  2 -1</clus>
<clus scale="   78.966">  5  6 -1 -1</clus>
<clus scale="   91.336">  7  8 -1 -1</clus>
<clus scale="  106.142">  1  5  2 -1</clus>
<clus scale="   60.980">  1  5  2 -1</clus>
</clustering>
</event>
<event>
 9    1  0.3197504E-005  0.1136969E+03  0.7546771E-02  0.1269619E+00
         21   -1    0    0  501  502  0.00000000000E+00  0.00000000000E+00  0.50978262686E+03  0.50978262686E+03  0.00000000000E+00 0.  1.
          3   -1    0    0  502    0 -0.00000000000E+00 -0.00000000000E+00 -0.38522366822E+03  0.38522366822E+03  0.00000000000E+00 0. -1.
        -24    2    1    2    0    0 -0.18048834875E+02  0.16489124091E+02 -0.34971207913E+03  0.35954378971E+03  0.79847021080E+02 0.  0.
         23    2    1    2    0    0  0.10589146533E+03 -0.22177649383E+02  0.13792254320E+03  0.18778593606E+03  0.67350421674E+02 0.  0.
         13    1    3    3    0    0 -0.39955447748E+02  0.35909791766E+02 -0.24468198442E+03  0.25050992884E+03  0.00000000000E+00 0. -1.
        -14    1    3    3    0    0  0.21906612873E+02 -0.19420667674E+02 -0.10503009471E+03  0.10903386086E+03  0.00000000000E+00 0.  1.
        -13    1    4    4    0    0  0.82995875540E+02  0.12334323053E+02  0.10763857932E+03  0.13647898974E+03  0.00000000000E+00 0.  1.
         13    1    4    4    0    0  0.22895589791E+02 -0.34511972436E+02  0.30283963877E+02  0.51306946327E+02  0.00000000000E+00 0. -1.
          4    1    1    2  501    0 -0.87842630456E+02  0.56885252917E+01  0.33634849457E+03  0.34767656930E+03  0.00000000000E+00 0. -1.
<scales pt_clust_5="13000.00000" pt_clust_6="13000.00000" pt_clust_7="13000.00000" pt_clust_8="13000.00000" pt_clust_9="91.60193"></scales>
<clustering>
<clus scale="   67.350">  7  8 -1 -1</clus>
<clus scale="   79.847">  5  6 -1 -1</clus>
<clus scale="   83.506">  2  5  1 -1</clus>
<clus scale="   91.602">  1  9  2 -1</clus>
<clus scale="   91.602">  1  5  2 -1</clus>
</clustering>
</event>
<event>
 9    1  0.3197504E-005  0.1438482E+03  0.7546771E-02  0.1208544E+00
          1   -1    0    0  502    0 -0.00000000000E+00  0.00000000000E+00  0.23624366951E+03  0.23624366951E+03  0.00000000000E+00 0. -1.
         21   -1    0    0  501  502  0.00000000000E+00 -0.00000000000E+00 -0.20865260523E+03  0.20865260523E+03  0.00000000000E+00 0. -1.
         23    2    1    2    0    0  0.61482879429E+01  0.12925534944E+03  0.13519993331E+03  0.20786977919E+03  0.90476938115E+02 0.  0.
        -24    2    1    2    0    0  0.43291062142E+02 -0.74191156713E+02 -0.25132905005E+02  0.12621765430E+03  0.88998817679E+02 0.  0.
         13    1    4    4    0    0  0.56872866764E+02 -0.10405316631E+02 -0.18304968983E+02  0.60645407721E+02  0.00000000000E+00 0. -1.
        -14    1    4    4    0    0 -0.13581804622E+02 -0.63785840082E+02 -0.68279360220E+01  0.65572246584E+02  0.00000000000E+00 0.  1.
        -11    1    3    3    0    0 -0.24716515297E+02  0.15383987482E+02  0.63385289610E+02  0.69751474093E+02  0.00000000000E+00 0.  1.
         11    1    3    3    0    0  0.30864803240E+02  0.11387136196E+03  0.71814643700E+02  0.13811830510E+03  0.00000000000E+00 0. -1.
          2    1    1    2  501    0 -0.49439350085E+02 -0.55064192728E+02 -0.82475964022E+02  0.11080884125E+03  0.00000000000E+00 0. -1.
<scales pt_clust_5="13000.00000" pt_clust_6="13000.00000" pt_clust_7="13000.00000" pt_clust_8="13000.00000" pt_clust_9="74.00213"></scales>
<clustering>
<clus scale="   74.002">  2  9  1 -1</clus>
<clus scale="   88.999">  5  6 -1 -1</clus>
<clus scale="   90.477">  7  8 -1 -1</clus>
<clus scale="  142.923">  2  5  1 -1</clus>
<clus scale="   74.002">  2  5  1 -1</clus>
</clustering>
</event>
<event>
 9    1  0.3197504E-005  0.9923519E+02  0.7546771E-02  0.1288658E+00
         21   -1    0    0  501  502  0.00000000000E+00  0.00000000000E+00  0.90147827221E+02  0.90147827221E+02  0.00000000000E+00 0.  1.
         -4   -1    0    0    0  501 -0.00000000000E+00 -0.00000000000E+00 -0.15588059262E+03  0.15588059262E+03  0.00000000000E+00 0.  1.
        -24    2    1    2    0    0 -0.16550871142E+02 -0.21987770099E+02 -0.56863840847E+02  0.10263046367E+03  0.80883387098E+02 0.  0.
         23    2    1    2    0    0 -0.19744381364E+01  0.52307336194E+02 -0.21590750678E+01  0.10723879063E+03  0.93571046728E+02 0.  0.
         13    1    3    3    0    0  0.14799785521E+02  0.22523860420E+02 -0.34483232215E+02  0.43765868479E+02  0.00000000000E+00 0. -1.
        -14    1    3    3    0    0 -0.31350656662E+02 -0.44511630520E+02 -0.22380608632E+02  0.58864595195E+02  0.00000000000E+00 0.  1.
        -11    1    4    4    0    0  0.30683762278E+02  0.67380565243E+01 -0.31049028285E+02  0.44169410577E+02  0.00000000000E+00 0. -1.
         11    1    4    4    0    0 -0.32658200414E+02  0.45569279669E+02  0.28889953217E+02  0.63069380057E+02  0.00000000000E+00 0.  1.
         -3    1    1    2    0  502  0.18525309278E+02 -0.30319566094E+02 -0.67098494839E+01  0.36159165534E+02  0.00000000000E+00 0.  1.
<scales pt_clust_5="13000.00000" pt_clust_6="13000.00000" pt_clust_7="13000.00000" pt_clust_8="13000.00000" pt_clust_9="35.53116"></scales>
<clustering>
<clus scale="   35.531">  1  9  2 -1</clus>
<clus scale="   80.883">  5  6 -1 -1</clus>
<clus scale="   87.374">  2  5  1 -1</clus>
<clus scale="   93.571">  7  8 -1 -1</clus>
<clus scale="   35.531">  1  5  2 -1</clus>
</clustering>
</event>
<event>
 9    1  0.3197504E-005  0.8991925E+02  0.7546771E-02  0.1305356E+00
         21   -1    0    0  501  502  0.00000000000E+00  0.00000000000E+00  0.25206909492E+03  0.25206909492E+03  0.00000000000E+00 0.  1.
         -2   -1    0    0    0  501 -0.00000000000E+00 -0.00000000000E+00 -0.71705639254E+02  0.71705639254E+02  0.00000000000E+00 0.  1.
        -24    2    1    2    0    0  0.19236213734E+02  0.15522720525E+02  0.23065224399E+01  0.87670914119E+02  0.84082592523E+02 0.  0.
         23    2    1    2    0    0  0.20397985071E+02 -0.13392516550E+02  0.17367251770E+03  0.19617099417E+03  0.87894699805E+02 0.  0.
         13    1    3    3    0    0  0.15307163324E+02 -0.32527799453E+02  0.13108233782E+02  0.38264772039E+02  0.00000000000E+00 0. -1.
        -14    1    3    3    0    0  0.39290504098E+01  0.48050519978E+02 -0.10801711342E+02  0.49406142080E+02  0.00000000000E+00 0.  1.
        -13    1    4    4    0    0 -0.19945030449E+02  0.23804132614E+02  0.97250707234E+02  0.10208888787E+03  0.00000000000E+00 0. -1.
         13    1    4    4    0    0  0.40343015520E+02 -0.37196649164E+02  0.76421810467E+02  0.94082106297E+02  0.00000000000E+00 0.  1.
         -1    1    1    2    0  502 -0.39634198805E+02 -0.21302039745E+01  0.43844155267E+01  0.39932825888E+02  0.00000000000E+00 0.  1.
<scales pt_clust_5="13000.00000" pt_clust_6="13000.00000" pt_clust_7="13000.00000" pt_clust_8="13000.00000" pt_clust_9="39.69142"></scales>
<clustering>
<clus scale="   39.691">  1  9  2 -1</clus>
<clus scale="   84.083">  5  6 -1 -1</clus>
<clus scale="   86.197">  2  5  1 -1</clus>
<clus scale="   87.895">  7  8 -1 -1</clus>
<clus scale="   39.691">  1  5  2 -1</clus>
</clustering>
</event>
<event>
 9    1  0.3197504E-005  0.1465183E+03  0.7546771E-02  0.1207099E+00
         21   -1    0    0  501  502  0.00000000000E+00  0.00000000000E+00  0.69598494427E+03  0.69598494427E+03  0.00000000000E+00 0. -1.
          1   -1    0    0  502    0 -0.00000000000E+00 -0.00000000000E+00 -0.63125303831E+02  0.63125303831E+02  0.00000000000E+00 0. -1.
         23    2    1    2    0    0  0.91340238680E+02 -0.58582857224E+02  0.91758539860E+02  0.16929070867E+03  0.92003934936E+02 0.  0.
        -24    2    1    2    0    0 -0.12834570389E+03  0.25651476372E+02  0.24186329350E+03  0.28650922723E+03  0.80368318366E+02 0.  0.
         13    1    4    4    0    0 -0.93107003878E+02 -0.45061400369E+01  0.21134201908E+03  0.23098629505E+03  0.00000000000E+00 0. -1.
        -14    1    4    4    0    0 -0.35238700014E+02  0.30157616409E+02  0.30521274419E+02  0.55522932184E+02  0.00000000000E+00 0.  1.
        -11    1    3    3    0    0  0.75199551629E+02 -0.40881584817E+02  0.10985833109E+03  0.13926639743E+03  0.00000000000E+00 0.  1.
         11    1    3    3    0    0  0.16140687051E+02 -0.17701272407E+02 -0.18099791230E+02  0.30024311248E+02  0.00000000000E+00 0. -1.
          2    1    1    2  501    0  0.37005465213E+02  0.32931380852E+02  0.29923780708E+03  0.30331031220E+03  0.00000000000E+00 0. -1.
<scales pt_clust_5="13000.00000" pt_clust_6="13000.00000" pt_clust_7="13000.00000" pt_clust_8="13000.00000" pt_clust_9="49.53666"></scales>
<clustering>
<clus scale="   49.537">  1  9  2 -1</clus>
<clus scale="   80.368">  5  6 -1 -1</clus>
<clus scale="   92.004">  7  8 -1 -1</clus>
<clus scale="  139.506">  1  5  2 -1</clus>
<clus scale="   49.537">  1  5  2 -1</clus>
</clustering>
</event>
<event>
 9    1  0.3197504E-005  0.1018338E+03  0.7546771E-02  0.1282443E+00
         -2   -1    0    0    0  501 -0.00000000000E+00  0.00000000000E+00  0.51041306990E+02  0.51041306990E+02  0.00000000000E+00 0.  1.
         21   -1    0    0  501  502  0.00000000000E+00 -0.00000000000E+00 -0.30086475256E+03  0.30086475256E+03  0.00000000000E+00 0.  1.
         23    2    1    2    0    0 -0.22214135411E+02 -0.24637708963E+02 -0.78276253930E+02  0.12745794103E+03  0.94962467787E+02 0.  0.
        -24    2    1    2    0    0 -0.71610015313E+01  0.51828514339E+02 -0.14910867742E+03  0.17855993390E+03  0.83143114385E+02 0.  0.
         13    1    4    4    0    0 -0.32011284490E+02  0.12555988387E+02 -0.16689121427E+02  0.38221747122E+02  0.00000000000E+00 0. -1.
        -14    1    4    4    0    0  0.24850282959E+02  0.39272525951E+02 -0.13241955599E+03  0.14033818677E+03  0.00000000000E+00 0.  1.
        -11    1    3    3    0    0  0.30303891156E+02 -0.32489471234E+02 -0.20325361999E+02  0.48857055791E+02  0.00000000000E+00 0. -1.
         11    1    3    3    0    0 -0.52518026567E+02  0.78517622712E+01 -0.57950891931E+02  0.78600885242E+02  0.00000000000E+00 0.  1.
         -1    1    1    2    0  502  0.29375136942E+02 -0.27190805376E+02 -0.22438514222E+02  0.45888184621E+02  0.00000000000E+00 0.  1.
<scales pt_clust_5="13000.00000" pt_clust_6="13000.00000" pt_clust_7="13000.00000" pt_clust_8="13000.00000" pt_clust_9="40.02799"></scales>
<clustering>
<clus scale="   40.028">  2  9  1 -1</clus>
<clus scale="   83.143">  5  6 -1 -1</clus>
<clus scale="   90.912">  2  5  1 -1</clus>
<clus scale="   94.962">  7  8 -1 -1</clus>
<clus scale="   40.028">  2  5  1 -1</clus>
</clustering>
</event>
<event>
 9    1  0.3197504E-005  0.1008825E+03  0.7546771E-02  0.1282391E+00
         21   -1    0    0  501  502  0.00000000000E+00  0.00000000000E+00  0.30136396175E+02  0.30136396175E+02  0.00000000000E+00 0. -1.
          3   -1    0    0  502    0 -0.00000000000E+00 -0.00000000000E+00 -0.55294144932E+03  0.55294144932E+03  0.00000000000E+00 0. -1.
        -24    2    1    2    0    0 -0.24273107608E+02 -0.34665206919E+02 -0.34776765667E+03  0.35966891539E+03  0.81415756147E+02 0.  0.
         23    2    1    2    0    0  0.53562896794E+02  0.32253415773E+02 -0.13432678679E+03  0.17319874958E+03  0.89693112699E+02 0.  0.
         13    1    3    3    0    0 -0.62720035852E+01 -0.51438172098E+02 -0.31188805390E+03  0.31616353640E+03  0.00000000000E+00 0. -1.
        -14    1    3    3    0    0 -0.18001104023E+02  0.16772965179E+02 -0.35879602765E+02  0.43505378995E+02  0.00000000000E+00 0.  1.
        -13    1    4    4    0    0  0.65462766997E+02  0.48791682492E+02 -0.76490004219E+02  0.11187816091E+03  0.00000000000E+00 0. -1.
         13    1    4    4    0    0 -0.11899870203E+02 -0.16538266719E+02 -0.57836782570E+02  0.61320588671E+02  0.00000000000E+00 0.  1.
          4    1    1    2  501    0 -0.29289789186E+02  0.24117911460E+01 -0.40710609688E+02  0.50210180524E+02  0.00000000000E+00 0. -1.
<scales pt_clust_5="13000.00000" pt_clust_6="13000.00000" pt_clust_7="13000.00000" pt_clust_8="13000.00000" pt_clust_9="29.38892"></scales>
<clustering>
<clus scale="   29.389">  1  9  2 -1</clus>
<clus scale="   81.416">  5  6 -1 -1</clus>
<clus scale="   89.693">  7  8 -1 -1</clus>
<clus scale="   93.600">  2  5  1 -1</clus>
<clus scale="   29.389">  1  5  2 -1</clus>
</clustering>
</event>
<event>
 9    1  0.3197504E-005  0.1493475E+03  0.7546771E-02  0.1219782E+00
         21   -1    0    0  501  502  0.00000000000E+00  0.00000000000E+00  0.15587041304E+03  0.15587041304E+03  0.00000000000E+00 0. -1.
          1   -1    0    0  502    0 -0.00000000000E+00 -0.00000000000E+00 -0.24712129252E+03  0.24712129252E+03  0.00000000000E+00 0. -1.
         23    2    1    2    0    0  0.39967798963E+02 -0.25789322787E+01 -0.62656303434E+02  0.11854219293E+03  0.92316646916E+02 0.  0.
        -24    2    1    2    0    0  0.36982852379E+02  0.11009429993E+03 -0.50272273005E+02  0.15046862008E+03  0.81394213234E+02 0.  0.
         11    1    4    4    0    0 -0.20614323554E+02  0.29590362290E+02 -0.35103100521E+02  0.50326608690E+02  0.00000000000E+00 0. -1.
        -12    1    4    4    0    0  0.57597175933E+02  0.80503937640E+02 -0.15169172483E+02  0.10014201139E+03  0.00000000000E+00 0.  1.
        -13    1    3    3    0    0  0.19946070817E+02 -0.43796066759E+02 -0.10762613575E+02  0.49313031296E+02  0.00000000000E+00 0. -1.
         13    1    3    3    0    0  0.20021728146E+02  0.41217134481E+02 -0.51893689859E+02  0.69229161629E+02  0.00000000000E+00 0.  1.
          2    1    1    2  501    0 -0.76950651342E+02 -0.10751536765E+03  0.21677696964E+02  0.13398089255E+03  0.00000000000E+00 0. -1.
<scales pt_clust_5="13000.00000" pt_clust_6="13000.00000" pt_clust_7="13000.00000" pt_clust_8="13000.00000" pt_clust_9="125.21846"></scales>
<clustering>
<clus scale="   81.394">  5  6 -1 -1</clus>
<clus scale="   92.317">  7  8 -1 -1</clus>
<clus scale="  100.630">  2  7  1 -1</clus>
<clus scale="  125.218">  1  9  2 -1</clus>
<clus scale="  125.218">  1  5  2 -1</clus>
</clustering>
</event>
<event>
 9    1  0.3197504E-005  0.9238905E+02  0.7546771E-02  0.1303244E+00
          1   -1    0    0  502    0 -0.00000000000E+00  0.00000000000E+00  0.94720041703E+02  0.94720041703E+02  0.00000000000E+00 0. -1.
         21   -1    0    0  501  502  0.00000000000E+00 -0.00000000000E+00 -0.24112453222E+03  0.24112453222E+03  0.00000000000E+00 0. -1.
         23    2    1    2    0    0  0.30930267153E+02  0.44251727789E+01  0.37291463500E+02  0.10239712187E+03  0.90101352579E+02 0.  0.
        -24    2    1    2    0    0  0.84710630105E+01 -0.13403904046E+02 -0.54595484756E+02  0.98169909213E+02  0.80032746841E+02 0.  0.
         13    1    4    4    0    0  0.16756602623E+02  0.30412777939E+02 -0.35505242336E+02  0.49662289786E+02  0.00000000000E+00 0. -1.
        -14    1    4    4    0    0 -0.82855396122E+01 -0.43816681985E+02 -0.19090242420E+02  0.48507619427E+02  0.00000000000E+00 0.  1.
        -11    1    3    3    0    0  0.40312935238E+02 -0.27523731136E+02 -0.44340200810E+01  0.49013763957E+02  0.00000000000E+00 0. -1.
         11    1    3    3    0    0 -0.93826680851E+01  0.31948903915E+02  0.41725483581E+02  0.53383357911E+02  0.00000000000E+00 0.  1.
          2    1    1    2  501    0 -0.39401330164E+02  0.89787312673E+01 -0.12910046926E+03  0.13527754284E+03  0.00000000000E+00 0. -1.
<scales pt_clust_5="13000.00000" pt_clust_6="13000.00000" pt_clust_7="13000.00000" pt_clust_8="13000.00000" pt_clust_9="40.41141"></scales>
<clustering>
<clus scale="   40.411">  2  9  1 -1</clus>
<clus scale="   80.033">  5  6 -1 -1</clus>
<clus scale="   82.600">  2  5  1 -1</clus>
<clus scale="   90.101">  7  8 -1 -1</clus>
<clus scale="   40.411">  2  5  1 -1</clus>
</clustering>
</event>
<event>
 9    1  0.3197504E-005  0.1444117E+03  0.7546771E-02  0.1230893E+00
         21   -1    0    0  501  502  0.00000000000E+00  0.00000000000E+00  0.46499400796E+02  0.46499400796E+02  0.00000000000E+00 0. -1.
          1   -1    0    0  502    0 -0.00000000000E+00 -0.00000000000E+00 -0.65545174060E+03  0.65545174060E+03  0.00000000000E+00 0. -1.
        -24    2    1    2    0    0 -0.95395785238E+01 -0.15005886438E+02 -0.17475673175E+03  0.19581075802E+03  0.86520272051E+02 0.  0.
         23    2    1    2    0    0  0.76146579359E+02 -0.78043703597E+02 -0.20235785948E+03  0.24759936066E+03  0.92019665763E+02 0.  0.
         13    1    3    3    0    0 -0.47289635558E+02 -0.80204455767E+01 -0.11709271890E+03  0.12653593165E+03  0.00000000000E+00 0. -1.
        -14    1    3    3    0    0  0.37750057035E+02 -0.69854408611E+01 -0.57664012853E+02  0.69274826369E+02  0.00000000000E+00 0.  1.
        -13    1    4    4    0    0  0.26301452549E+02 -0.87245563518E+02 -0.14273987779E+03  0.16934647168E+03  0.00000000000E+00 0.  1.
         13    1    4    4    0    0  0.49845126809E+02  0.92018599215E+01 -0.59617981689E+02  0.78252888978E+02  0.00000000000E+00 0. -1.
          2    1    1    2  501    0 -0.66607000835E+02  0.93049590035E+02 -0.23183774858E+03  0.25854102273E+03  0.00000000000E+00 0. -1.
<scales pt_clust_5="13000.00000" pt_clust_6="13000.00000" pt_clust_7="13000.00000" pt_clust_8="13000.00000" pt_clust_9="111.29745"></scales>
<clustering>
<clus scale="   86.520">  5  6 -1 -1</clus>
<clus scale="   88.329">  2  5  1 -1</clus>
<clus scale="   92.020">  7  8 -1 -1</clus>
<clus scale="  111.297">  1  9  2 -1</clus>
<clus scale="  111.297">  1  5  2 -1</clus>
</clustering>
</event>
<event>
 9    1  0.3197504E-005  0.4879703E+03  0.7546771E-02  0.1053968E+00
          1   -1    0    0  502    0 -0.00000000000E+00  0.00000000000E+00  0.18357209775E+04  0.18357209775E+04  0.00000000000E+00 0. -1.
         21   -1    0    0  501  502  0.00000000000E+00 -0.00000000000E+00 -0.27867949861E+03  0.27867949861E+03  0.00000000000E+00 0. -1.
        -24    2    1    2    0    0 -0.13930865987E+03 -0.37484966831E+02  0.38380673622E+03  0.41762936891E+03  0.79338852744E+02 0.  0.
         23    2    1    2    0    0  0.71480770342E+02 -0.44764657423E+03  0.11106117710E+04  0.12029342198E+04  0.89973747981E+02 0.  0.
         11    1    3    3    0    0 -0.11157251453E+03 -0.57387190159E+02  0.25244909071E+03  0.28190824570E+03  0.00000000000E+00 0. -1.
        -12    1    3    3    0    0 -0.27736145346E+02  0.19902223329E+02  0.13135764551E+03  0.13572112321E+03  0.00000000000E+00 0.  1.
        -13    1    4    4    0    0  0.57368105516E+01 -0.14864652581E+03  0.46901897845E+03  0.49204420815E+03  0.00000000000E+00 0.  1.
         13    1    4    4    0    0  0.65743959790E+02 -0.29900004842E+03  0.64159279258E+03  0.71089001167E+03  0.00000000000E+00 0. -1.
          2    1    1    2  501    0  0.67827889531E+02  0.48513154106E+03  0.62622971613E+02  0.49383688734E+03  0.00000000000E+00 0. -1.
<scales pt_clust_5="13000.00000" pt_clust_6="13000.00000" pt_clust_7="13000.00000" pt_clust_8="13000.00000" pt_clust_9="479.60374"></scales>
<clustering>
<clus scale="   79.339">  5  6 -1 -1</clus>
<clus scale="   89.974">  7  8 -1 -1</clus>
<clus scale="  164.641">  1  5  2 -1</clus>
<clus scale="  479.604">  2  9  1 -1</clus>
<clus scale="  479.604">  2  5  1 -1</clus>
</clustering>
</event>
<event>
 9    1  0.3197504E-005  0.1026454E+03  0.7546771E-02  0.1280007E+00
          3   -1    0    0  502    0 -0.00000000000E+00  0.00000000000E+00  0.14434238376E+03  0.14434238376E+03  0.00000000000E+00 0. -1.
         21   -1    0    0  501  502  0.00000000000E+00 -0.00000000000E+00 -0.23138973230E+03  0.23138973230E+03  0.00000000000E+00 0.  1.
        -24    2    1    2    0    0 -0.11564546779E+02  0.49436203419E+02  0.88350766962E+02  0.12964695620E+03  0.80154839402E+02 0.  0.
         23    2    1    2    0    0  0.52620933232E+02 -0.40896177585E+01 -0.14062717690E+03  0.17572211650E+03  0.91195239772E+02 0.  0.
         13    1    3    3    0    0  0.30442872362E+01  0.66318301504E+02  0.83717750974E+02  0.10684590131E+03  0.00000000000E+00 0. -1.
        -14    1    3    3    0    0 -0.14608834016E+02 -0.16882098085E+02  0.46330159879E+01  0.22801054892E+02  0.00000000000E+00 0.  1.
        -13    1    4    4    0    0  0.36885515076E+02  0.24943283403E+02 -0.16839610961E+02  0.47605473494E+02  0.00000000000E+00 0. -1.
         13    1    4    4    0    0  0.15735418157E+02 -0.29032901161E+02 -0.12378756594E+03  0.12811664300E+03  0.00000000000E+00 0.  1.
          4    1    1    2  501    0 -0.41056386453E+02 -0.45346585661E+02 -0.34770938607E+02  0.70363043363E+02  0.00000000000E+00 0. -1.
<scales pt_clust_5="13000.00000" pt_clust_6="13000.00000" pt_clust_7="13000.00000" pt_clust_8="13000.00000" pt_clust_9="61.17140"></scales>
<clustering>
<clus scale="   61.171">  2  9  1 -1</clus>
<clus scale="   80.155">  5  6 -1 -1</clus>
<clus scale="   91.195">  7  8 -1 -1</clus>
<clus scale="   92.975">  1  5  2 -1</clus>
<clus scale="   61.171">  2  5  1 -1</clus>
</clustering>
</event>
<event>
 9    1  0.3197504E-005  0.2822665E+03  0.7546771E-02  0.1117138E+00
         21   -1    0    0  501  502  0.00000000000E+00  0.00000000000E+00  0.15435593819E+04  0.15435593819E+04  0.00000000000E+00 0. -1.
         -4   -1    0    0    0  501 -0.00000000000E+00 -0.00000000000E+00 -0.17014804922E+03  0.17014804922E+03  0.00000000000E+00 0.  1.
         23    2    1    2    0    0  0.10993374297E+03  0.66562674274E+02  0.31464705266E+03  0.35194661602E+03  0.91365394574E+02 0.  0.
        -24    2    1    2    0    0 -0.15950236535E+03 -0.23632518855E+03  0.11321582099E+04  0.11702848935E+04  0.80584865556E+02 0.  0.
         11    1    4    4    0    0 -0.56438587134E+02 -0.11405734463E+03  0.64876612382E+03  0.66112924258E+03  0.00000000000E+00 0. -1.
        -12    1    4    4    0    0 -0.10306377821E+03 -0.12226784393E+03  0.48339208605E+03  0.50915565095E+03  0.00000000000E+00 0.  1.
        -13    1    3    3    0    0  0.59310500499E+02 -0.12732897836E+02  0.15767884217E+03  0.16894519652E+03  0.00000000000E+00 0.  1.
         13    1    3    3    0    0  0.50623242475E+02  0.79295572111E+02  0.15696821049E+03  0.18300141950E+03  0.00000000000E+00 0. -1.
         -3    1    1    2    0  502  0.49568622374E+02  0.16976251428E+03 -0.73393929890E+02  0.19147592152E+03  0.00000000000E+00 0.  1.
<scales pt_clust_5="13000.00000" pt_clust_6="13000.00000" pt_clust_7="13000.00000" pt_clust_8="13000.00000" pt_clust_9="270.51902"></scales>
<clustering>
<clus scale="   80.585">  5  6 -1 -1</clus>
<clus scale="   91.365">  7  8 -1 -1</clus>
<clus scale="  157.682">  2  7  1 -1</clus>
<clus scale="  270.519">  1  9  2 -1</clus>
<clus scale="  270.519">  1  5  2 -1</clus>
</clustering>
</event>
<event>
 9    1  0.3197504E-005  0.1246148E+03  0.7546771E-02  0.1240030E+00
         21   -1    0    0  501  502  0.00000000000E+00  0.00000000000E+00  0.32072836629E+03  0.32072836629E+03  0.00000000000E+00 0. -1.
          3   -1    0    0  502    0 -0.00000000000E+00 -0.00000000000E+00 -0.17009484642E+03  0.17009484642E+03  0.00000000000E+00 0. -1.
         23    2    1    2    0    0  0.15707984808E+02  0.78696945236E+02 -0.10658821918E+03  0.16394549766E+03  0.95273961595E+02 0.  0.
        -24    2    1    2    0    0 -0.70786668770E+02 -0.66344283138E+02  0.23382370101E+03  0.26577355912E+03  0.80930496050E+02 0.  0.
         11    1    4    4    0    0 -0.86685796911E+02 -0.42208356336E+02  0.16461286979E+03  0.19077046321E+03  0.00000000000E+00 0. -1.
        -12    1    4    4    0    0  0.15899128141E+02 -0.24135926802E+02  0.69210831223E+02  0.75003095915E+02  0.00000000000E+00 0.  1.
        -13    1    3    3    0    0 -0.58543623178E+01  0.87363027904E+02 -0.45688095097E+02  0.98762210568E+02  0.00000000000E+00 0. -1.
         13    1    3    3    0    0  0.21562347126E+02 -0.86660826681E+01 -0.60900124084E+02  0.65183287090E+02  0.00000000000E+00 0.  1.
          4    1    1    2  501    0  0.55078683962E+02 -0.12352662098E+02  0.23398038039E+02  0.61104155931E+02  0.00000000000E+00 0. -1.
<scales pt_clust_5="13000.00000" pt_clust_6="13000.00000" pt_clust_7="13000.00000" pt_clust_8="13000.00000" pt_clust_9="56.44687"></scales>
<clustering>
<clus scale="   56.447">  1  9  2 -1</clus>
<clus scale="   80.930">  5  6 -1 -1</clus>
<clus scale="   95.274">  7  8 -1 -1</clus>
<clus scale="  114.024">  1  5  2 -1</clus>
<clus scale="   56.447">  1  5  2 -1</clus>
</clustering>
</event>
<event>
 9    1  0.3197504E-005  0.1122783E+03  0.7546771E-02  0.1261896E+00
         21   -1    0    0  501  502  0.00000000000E+00  0.00000000000E+00  0.73428972578E+02  0.73428972578E+02  0.00000000000E+00 0. -1.
          1   -1    0    0  502    0 -0.00000000000E+00 -0.00000000000E+00 -0.54602142282E+03  0.54602142282E+03  0.00000000000E+00 0. -1.
        -24    2    1    2    0    0  0.53820521830E+02 -0.54065707890E+02 -0.20492557756E+03  0.23218043135E+03  0.78060944301E+02 0.  0.
         23    2    1    2    0    0 -0.31348470675E+02 -0.15226356109E+02  0.10859635401E+02  0.99375193475E+02  0.92427965806E+02 0.  0.
         11    1    3    3    0    0  0.71387842384E+02 -0.51413518628E+02 -0.14428028482E+03  0.16898631461E+03  0.00000000000E+00 0. -1.
        -12    1    3    3    0    0 -0.17567320554E+02 -0.26521892625E+01 -0.60645292736E+02  0.63194116738E+02  0.00000000000E+00 0.  1.
        -13    1    4    4    0    0 -0.34778816983E+02  0.18118141127E+02 -0.27902978910E+02  0.48129090794E+02  0.00000000000E+00 0.  1.
         13    1    4    4    0    0  0.34303463075E+01 -0.33344497236E+02  0.38762614311E+02  0.51246102681E+02  0.00000000000E+00 0. -1.
          2    1    1    2  501    0 -0.22472051154E+02  0.69292063999E+02 -0.27852650809E+03  0.28789477057E+03  0.00000000000E+00 0. -1.
<scales pt_clust_5="13000.00000" pt_clust_6="13000.00000" pt_clust_7="13000.00000" pt_clust_8="13000.00000" pt_clust_9="72.84496"></scales>
<clustering>
<clus scale="   72.845">  1  9  2 -1</clus>
<clus scale="   78.061">  5  6 -1 -1</clus>
<clus scale="   92.428">  7  8 -1 -1</clus>
<clus scale="  100.782">  2  5  1 -1</clus>
<clus scale="   72.845">  1  5  2 -1</clus>
</clustering>
</event>
<event>
 9    1  0.3197504E-005  0.1360041E+03  0.7546771E-02  0.1234519E+00
         21   -1    0    0  501  502  0.00000000000E+00  0.00000000000E+00  0.38575126992E+02  0.38575126992E+02  0.00000000000E+00 0. -1.
          1   -1    0    0  502    0 -0.00000000000E+00 -0.00000000000E+00 -0.91959005702E+03  0.91959005702E+03  0.00000000000E+00 0. -1.
        -24    2    1    2    0    0  0.42571240534E+02 -0.35617372494E+02 -0.12197304765E+03  0.15655798302E+03  0.80944857460E+02 0.  0.
         23    2    1    2    0    0  0.50415073457E+02 -0.31069357072E+02 -0.57153152402E+03  0.58193993220E+03  0.92189029479E+02 0.  0.
         13    1    3    3    0    0  0.66214183934E+01 -0.56224468214E+02 -0.66960536648E+02  0.87685503225E+02  0.00000000000E+00 0. -1.
        -14    1    3    3    0    0  0.35949822140E+02  0.20607095720E+02 -0.55012511005E+02  0.68872479794E+02  0.00000000000E+00 0.  1.
        -11    1    4    4    0    0  0.95391244687E+01  0.32489694879E+02 -0.16346715313E+03  0.16693736946E+03  0.00000000000E+00 0.  1.
         11    1    4    4    0    0  0.40875948988E+02 -0.63559051951E+02 -0.40806437088E+03  0.41500256273E+03  0.00000000000E+00 0. -1.
          2    1    1    2  501    0 -0.92986313991E+02  0.66686729566E+02 -0.18751035835E+03  0.21966726879E+03  0.00000000000E+00 0. -1.
<scales pt_clust_5="13000.00000" pt_clust_6="13000.00000" pt_clust_7="13000.00000" pt_clust_8="13000.00000" pt_clust_9="99.99154"></scales>
<clustering>
<clus scale="   80.945">  5  6 -1 -1</clus>
<clus scale="   92.189">  7  8 -1 -1</clus>
<clus scale="   98.148">  2  5  1 -1</clus>
<clus scale="   99.992">  1  9  2 -1</clus>
<clus scale="   99.992">  1  5  2 -1</clus>
</clustering>
</event>
<event>
 9    1  0.3197504E-005  0.1029711E+03  0.7546771E-02  0.1279458E+00
         21   -1    0    0  501  502  0.00000000000E+00  0.00000000000E+00  0.16859449002E+03  0.16859449002E+03  0.00000000000E+00 0.  1.
          1   -1    0    0  502    0 -0.00000000000E+00 -0.00000000000E+00 -0.12985629230E+03  0.12985629230E+03  0.00000000000E+00 0. -1.
         23    2    1    2    0    0 -0.32130125715E+01 -0.55124825895E+02 -0.79150873054E+02  0.13254902563E+03  0.90858756380E+02 0.  0.
        -24    2    1    2    0    0  0.27073508411E+01  0.26424584663E+02  0.66194547086E+02  0.10677237889E+03  0.79454605947E+02 0.  0.
         13    1    4    4    0    0 -0.35034963055E+02  0.40307603712E+01  0.12479404209E+02  0.37408972117E+02  0.00000000000E+00 0. -1.
        -14    1    4    4    0    0  0.37742313896E+02  0.22393824291E+02  0.53715142877E+02  0.69363406771E+02  0.00000000000E+00 0.  1.
        -13    1    3    3    0    0 -0.45753658878E+02 -0.40859878821E+02 -0.48688428154E+02  0.78316601267E+02  0.00000000000E+00 0. -1.
         13    1    3    3    0    0  0.42540646306E+02 -0.14264947074E+02 -0.30462444899E+02  0.54232424364E+02  0.00000000000E+00 0.  1.
          2    1    1    2  501    0  0.50566173042E+00  0.28700241232E+02  0.51694523688E+02  0.59129377807E+02  0.00000000000E+00 0. -1.
<scales pt_clust_5="13000.00000" pt_clust_6="13000.00000" pt_clust_7="13000.00000" pt_clust_8="13000.00000" pt_clust_9="28.70470"></scales>
<clustering>
<clus scale="   28.705">  1  9  2 -1</clus>
<clus scale="   79.455">  5  6 -1 -1</clus>
<clus scale="   90.859">  7  8 -1 -1</clus>
<clus scale="   93.063">  1  5  2 -1</clus>
<clus scale="   28.705">  1  5  2 -1</clus>
</clustering>
</event>
<event>
 9    1  0.3197504E-005  0.1080819E+03  0.7546771E-02  0.1269277E+00
         21   -1    0    0  501  502  0.00000000000E+00  0.00000000000E+00  0.11952071018E+03  0.11952071018E+03  0.00000000000E+00 0. -1.
          1   -1    0    0  502    0 -0.00000000000E+00 -0.00000000000E+00 -0.26253289650E+03  0.26253289650E+03  0.00000000000E+00 0. -1.
        -24    2    1    2    0    0  0.63319634514E+02 -0.66049823013E+01 -0.17453355537E+03  0.20242960803E+03  0.80391432077E+02 0.  0.
         23    2    1    2    0    0 -0.12684767069E+02  0.52758008212E+02  0.97838004995E+01  0.10774553533E+03  0.92569254538E+02 0.  0.
         13    1    3    3    0    0  0.50477480914E+02 -0.11748799394E+02 -0.18018154608E+03  0.18748706599E+03  0.00000000000E+00 0. -1.
        -14    1    3    3    0    0  0.12842153599E+02  0.51438170922E+01  0.56479907145E+01  0.14942542035E+02  0.00000000000E+00 0.  1.
        -11    1    4    4    0    0  0.12746376660E+01  0.68081146882E+02  0.33800528449E+02  0.76020674723E+02  0.00000000000E+00 0. -1.
         11    1    4    4    0    0 -0.13959404735E+02 -0.15323138670E+02 -0.24016727950E+02  0.31724860609E+02  0.00000000000E+00 0.  1.
          2    1    1    2  501    0 -0.50634867445E+02 -0.46153025910E+02  0.21737568552E+02  0.71878463314E+02  0.00000000000E+00 0. -1.
<scales pt_clust_5="13000.00000" pt_clust_6="13000.00000" pt_clust_7="13000.00000" pt_clust_8="13000.00000" pt_clust_9="68.51271"></scales>
<clustering>
<clus scale="   68.513">  1  9  2 -1</clus>
<clus scale="   80.391">  5  6 -1 -1</clus>
<clus scale="   92.569">  7  8 -1 -1</clus>
<clus scale="   97.854">  2  5  1 -1</clus>
<clus scale="   68.513">  1  5  2 -1</clus>
</clustering>
</event>
<event>
 9    1  0.3197504E-005  0.1048117E+03  0.7546771E-02  0.1275824E+00
          3   -1    0    0  502    0 -0.00000000000E+00  0.00000000000E+00  0.94461003010E+02  0.94461003010E+02  0.00000000000E+00 0. -1.
         21   -1    0    0  501  502  0.00000000000E+00 -0.00000000000E+00 -0.36441946680E+03  0.36441946680E+03  0.00000000000E+00 0. -1.
        -24    2    1    2    0    0 -0.54417294854E+02  0.51794473026E+01  0.47692306920E+02  0.10746301596E+03  0.79282248999E+02 0.  0.
         23    2    1    2    0    0  0.22315770136E+02  0.14242313357E+02 -0.28898944235E+03  0.30420321427E+03  0.91235194372E+02 0.  0.
         11    1    3    3    0    0 -0.46540530960E+02  0.27047987955E+02  0.60453997200E+02  0.80946281273E+02  0.00000000000E+00 0. -1.
        -12    1    3    3    0    0 -0.78767638935E+01 -0.21868540652E+02 -0.12761690280E+02  0.26516734687E+02  0.00000000000E+00 0.  1.
        -11    1    4    4    0    0  0.56082690200E+02  0.18515822712E+02 -0.21100866054E+03  0.21911813858E+03  0.00000000000E+00 0. -1.
         11    1    4    4    0    0 -0.33766920065E+02 -0.42735093550E+01 -0.77980781811E+02  0.85085075688E+02  0.00000000000E+00 0.  1.
          4    1    1    2  501    0  0.32101524718E+02 -0.19421760659E+02 -0.28661328358E+02  0.47214239585E+02  0.00000000000E+00 0. -1.
<scales pt_clust_5="13000.00000" pt_clust_6="13000.00000" pt_clust_7="13000.00000" pt_clust_8="13000.00000" pt_clust_9="37.51950"></scales>
<clustering>
<clus scale="   37.519">  2  9  1 -1</clus>
<clus scale="   79.282">  5  6 -1 -1</clus>
<clus scale="   91.235">  7  8 -1 -1</clus>
<clus scale="   94.590">  1  5  2 -1</clus>
<clus scale="   37.519">  2  5  1 -1</clus>
</clustering>
</event>
<event>
 9    1  0.3197504E-005  0.1203516E+03  0.7546771E-02  0.1254810E+00
          1   -1    0    0  502    0 -0.00000000000E+00  0.00000000000E+00  0.71990762937E+03  0.71990762937E+03  0.00000000000E+00 0. -1.
         21   -1    0    0  501  502  0.00000000000E+00 -0.00000000000E+00 -0.40852052388E+02  0.40852052388E+02  0.00000000000E+00 0. -1.
        -24    2    1    2    0    0  0.34911438117E+02  0.28872244062E+02  0.30900942785E+03  0.32298265457E+03  0.82331972331E+02 0.  0.
         23    2    1    2    0    0 -0.44748730317E+01 -0.55128245964E+02  0.37699837774E+03  0.39698369915E+03  0.11139628620E+03 0.  0.
         13    1    3    3    0    0  0.16854627950E+02 -0.28826873686E+02  0.10218286828E+03  0.10750072418E+03  0.00000000000E+00 0. -1.
        -14    1    3    3    0    0  0.18056810166E+02  0.57699117748E+02  0.20682655957E+03  0.21548193039E+03  0.00000000000E+00 0.  1.
        -11    1    4    4    0    0  0.47818933102E+02 -0.33290071785E+02  0.11490259772E+03  0.12883123148E+03  0.00000000000E+00 0.  1.
         11    1    4    4    0    0 -0.52293806134E+02 -0.21838174179E+02  0.26209578003E+03  0.26815246767E+03  0.00000000000E+00 0. -1.
          2    1    1    2  501    0 -0.30436565085E+02  0.26256001901E+02 -0.69522286019E+01  0.40793328040E+02  0.00000000000E+00 0. -1.
<scales pt_clust_5="13000.00000" pt_clust_6="13000.00000" pt_clust_7="13000.00000" pt_clust_8="13000.00000" pt_clust_9="40.19654"></scales>
<clustering>
<clus scale="   40.197">  2  9  1 -1</clus>
<clus scale="   82.332">  5  6 -1 -1</clus>
<clus scale="   94.095">  1  5  2 -1</clus>
<clus scale="  111.396">  7  8 -1 -1</clus>
<clus scale="   40.197">  2  5  1 -1</clus>
</clustering>
</event>
<event>
 9    1  0.3197504E-005  0.1220627E+03  0.7546771E-02  0.1254216E+00
         21   -1    0    0  501  502  0.00000000000E+00  0.00000000000E+00  0.90382519362E+02  0.90382519362E+02  0.00000000000E+00 0. -1.
          1   -1    0    0  502    0 -0.00000000000E+00 -0.00000000000E+00 -0.37045962438E+03  0.37045962438E+03  0.00000000000E+00 0. -1.
        -24    2    1    2    0    0 -0.19264460894E+02  0.43550473500E+02 -0.20607961047E+03  0.22538322755E+03  0.77852618544E+02 0.  0.
         23    2    1    2    0    0 -0.36153264204E+02  0.52534888484E+02 -0.17699963990E+02  0.11106867144E+03  0.89196345384E+02 0.  0.
         13    1    3    3    0    0 -0.45999894645E+02  0.45161774012E+02 -0.14374469092E+03  0.15753765361E+03  0.00000000000E+00 0. -1.
        -14    1    3    3    0    0  0.26735433751E+02 -0.16113005120E+01 -0.62334919554E+02  0.67845573939E+02  0.00000000000E+00 0.  1.
        -11    1    4    4    0    0 -0.46606844905E+02  0.73001684419E+02 -0.15434678694E+02  0.87975412624E+02  0.00000000000E+00 0. -1.
         11    1    4    4    0    0  0.10453580701E+02 -0.20466795935E+02 -0.22652852958E+01  0.23093258817E+02  0.00000000000E+00 0.  1.
          2    1    1    2  501    0  0.55417725097E+02 -0.96085361983E+02 -0.56297530561E+02  0.12439024475E+03  0.00000000000E+00 0. -1.
<scales pt_clust_5="13000.00000" pt_clust_6="13000.00000" pt_clust_7="13000.00000" pt_clust_8="13000.00000" pt_clust_9="83.32663"></scales>
<clustering>
<clus scale="   77.853">  5  6 -1 -1</clus>
<clus scale="   89.196">  7  8 -1 -1</clus>
<clus scale="   91.262">  2  5  1 -1</clus>
<clus scale="   83.327">  1  9  2 -1</clus>
<clus scale="   83.327">  1  5  2 -1</clus>
</clustering>
</event>
<event>
 9    1  0.3197504E-005  0.1510528E+03  0.7546771E-02  0.1210022E+00
         21   -1    0    0  501  502  0.00000000000E+00  0.00000000000E+00  0.29638218154E+03  0.29638218154E+03  0.00000000000E+00 0. -1.
          1   -1    0    0  502    0 -0.00000000000E+00 -0.00000000000E+00 -0.16941094652E+03  0.16941094652E+03  0.00000000000E+00 0. -1.
         23    2    1    2    0    0 -0.23685331816E+02 -0.54122069788E+02  0.11582257857E+03  0.16648465029E+03  0.10398113144E+03 0.  0.
        -24    2    1    2    0    0  0.39377210090E+02 -0.87966480831E+02 -0.60265394141E+02  0.13951061207E+03  0.80886505210E+02 0.  0.
         11    1    4    4    0    0  0.63921253205E+02 -0.53003274920E+02 -0.37634195930E+02  0.91168012301E+02  0.00000000000E+00 0. -1.
        -12    1    4    4    0    0 -0.24544043116E+02 -0.34963205911E+02 -0.22631198211E+02  0.48342599770E+02  0.00000000000E+00 0.  1.
        -11    1    3    3    0    0 -0.42330633970E+02  0.13492814330E+02  0.22667944093E+02  0.49877593168E+02  0.00000000000E+00 0.  1.
         11    1    3    3    0    0  0.18645302154E+02 -0.67614884118E+02  0.93154634475E+02  0.11660705712E+03  0.00000000000E+00 0. -1.
          2    1    1    2  501    0 -0.15691878274E+02  0.14208855062E+03  0.71414050584E+02  0.15979786570E+03  0.00000000000E+00 0. -1.
<scales pt_clust_5="13000.00000" pt_clust_6="13000.00000" pt_clust_7="13000.00000" pt_clust_8="13000.00000" pt_clust_9="127.57087"></scales>
<clustering>
<clus scale="   80.887">  5  6 -1 -1</clus>
<clus scale="  103.981">  7  8 -1 -1</clus>
<clus scale="  119.592">  2  7  1 -1</clus>
<clus scale="  127.571">  1  9  2 -1</clus>
<clus scale="  127.571">  1  5  2 -1</clus>
</clustering>
</event>
<event>
 9    1  0.3197504E-005  0.9781223E+02  0.7546771E-02  0.1291866E+00
          3   -1    0    0  502    0 -0.00000000000E+00  0.00000000000E+00  0.16406291899E+03  0.16406291899E+03  0.00000000000E+00 0. -1.
         21   -1    0    0  501  502  0.00000000000E+00 -0.00000000000E+00 -0.16624365179E+03  0.16624365179E+03  0.00000000000E+00 0. -1.
        -24    2    1    2    0    0  0.13436057347E+02 -0.13772971666E+02  0.67307709913E+02  0.10588183642E+03  0.79438108509E+02 0.  0.
         23    2    1    2    0    0 -0.57765962325E+02  0.29817944695E+02  0.27934731391E+02  0.11619416341E+03  0.92166795346E+02 0.  0.
         13    1    3    3    0    0 -0.30211946146E+02 -0.20473942801E+02  0.22000290838E+02  0.42614044876E+02  0.00000000000E+00 0. -1.
        -14    1    3    3    0    0  0.43648003493E+02  0.67009711345E+01  0.45307419075E+02  0.63267791540E+02  0.00000000000E+00 0.  1.
        -11    1    4    4    0    0  0.10028239982E+01  0.44849634778E+02  0.32448028949E+02  0.55365783463E+02  0.00000000000E+00 0.  1.
         11    1    4    4    0    0 -0.58768786324E+02 -0.15031690083E+02 -0.45132975586E+01  0.60828379952E+02  0.00000000000E+00 0. -1.
          4    1    1    2  501    0  0.44329904978E+02 -0.16044973029E+02 -0.97423174109E+02  0.10823057095E+03  0.00000000000E+00 0. -1.
<scales pt_clust_5="13000.00000" pt_clust_6="13000.00000" pt_clust_7="13000.00000" pt_clust_8="13000.00000" pt_clust_9="47.14426"></scales>
<clustering>
<clus scale="   47.144">  2  9  1 -1</clus>
<clus scale="   79.438">  5  6 -1 -1</clus>
<clus scale="   85.924">  1  5  2 -1</clus>
<clus scale="   92.167">  7  8 -1 -1</clus>
<clus scale="   47.144">  2  5  1 -1</clus>
</clustering>
</event>
<event>
 9    1  0.3197504E-005  0.1003999E+03  0.7546771E-02  0.1285873E+00
         -2   -1    0    0    0  501 -0.00000000000E+00  0.00000000000E+00  0.25067163042E+03  0.25067163042E+03  0.00000000000E+00 0.  1.
         21   -1    0    0  501  502  0.00000000000E+00 -0.00000000000E+00 -0.23460684906E+03  0.23460684906E+03  0.00000000000E+00 0. -1.
        -24    2    1    2    0    0 -0.37552153100E+02  0.13022184817E+02  0.21389375248E+03  0.23189434095E+03  0.80278929460E+02 0.  0.
         23    2    1    2    0    0  0.36466490866E+00 -0.45948753424E+02 -0.10164981549E+03  0.14513674514E+03  0.92847018677E+02 0.  0.
         13    1    3    3    0    0 -0.29888389055E+02 -0.30604185600E+02  0.77950898206E+02  0.88917234031E+02  0.00000000000E+00 0. -1.
        -14    1    3    3    0    0 -0.76637640445E+01  0.43626370417E+02  0.13594285428E+03  0.14297710692E+03  0.00000000000E+00 0.  1.
        -13    1    4    4    0    0 -0.36559203326E+02 -0.44204498295E+02 -0.30525531161E+02  0.64980159049E+02  0.00000000000E+00 0.  1.
         13    1    4    4    0    0  0.36923868235E+02 -0.17442551288E+01 -0.71124284331E+02  0.80156586086E+02  0.00000000000E+00 0. -1.
         -1    1    1    2    0  502  0.37187488191E+02  0.32926568607E+02 -0.96179155633E+02  0.10824739339E+03  0.00000000000E+00 0.  1.
<scales pt_clust_5="13000.00000" pt_clust_6="13000.00000" pt_clust_7="13000.00000" pt_clust_8="13000.00000" pt_clust_9="49.66959"></scales>
<clustering>
<clus scale="   49.670">  2  9  1 -1</clus>
<clus scale="   80.279">  5  6 -1 -1</clus>
<clus scale="   88.906">  1  5  2 -1</clus>
<clus scale="   92.847">  7  8 -1 -1</clus>
<clus scale="   49.670">  2  5  1 -1</clus>
</clustering>
</event>
<event>
 9    1  0.3197504E-005  0.1529714E+03  0.7546771E-02  0.1198497E+00
         21   -1    0    0  501  502  0.00000000000E+00  0.00000000000E+00  0.16184358295E+03  0.16184358295E+03  0.00000000000E+00 0.  1.
          1   -1    0    0  502    0 -0.00000000000E+00 -0.00000000000E+00 -0.35700981641E+03  0.35700981641E+03  0.00000000000E+00 0. -1.
        -24    2    1    2    0    0  0.11088864955E+03  0.62311500751E+02 -0.26058833532E+03  0.30148440378E+03  0.82507875326E+02 0.  0.
         23    2    1    2    0    0 -0.86064137417E+02 -0.33199660726E+02  0.10133722008E+03  0.16489375048E+03  0.91714031380E+02 0.  0.
         13    1    3    3    0    0  0.12129538489E+03  0.66044522239E+02 -0.25243828728E+03  0.28774908896E+03  0.00000000000E+00 0. -1.
        -14    1    3    3    0    0 -0.10406735345E+02 -0.37330214873E+01 -0.81500480418E+01  0.13735314815E+02  0.00000000000E+00 0.  1.
        -13    1    4    4    0    0 -0.22117797525E+02  0.53294357937E+01  0.85632379704E+02  0.88603071657E+02  0.00000000000E+00 0.  1.
         13    1    4    4    0    0 -0.63946339892E+02 -0.38529096519E+02  0.15704840379E+02  0.76290678824E+02  0.00000000000E+00 0. -1.
          2    1    1    2  501    0 -0.24824512131E+02 -0.29111840026E+02 -0.35915118217E+02  0.52475245104E+02  0.00000000000E+00 0. -1.
<scales pt_clust_5="13000.00000" pt_clust_6="13000.00000" pt_clust_7="13000.00000" pt_clust_8="13000.00000" pt_clust_9="38.25908"></scales>
<clustering>
<clus scale="   38.259">  1  9  2 -1</clus>
<clus scale="   82.508">  5  6 -1 -1</clus>
<clus scale="   91.714">  7  8 -1 -1</clus>
<clus scale="  147.636">  2  5  1 -1</clus>
<clus scale="   38.259">  1  5  2 -1</clus>
</clustering>
</event>
<event>
 9    1  0.3197504E-005  0.1126210E+03  0.7546771E-02  0.1260078E+00
         21   -1    0    0  501  502  0.00000000000E+00  0.00000000000E+00  0.35519450162E+03  0.35519450162E+03  0.00000000000E+00 0. -1.
         -2   -1    0    0    0  501 -0.00000000000E+00 -0.00000000000E+00 -0.15679906533E+03  0.15679906533E+03  0.00000000000E+00 0.  1.
        -24    2    1    2    0    0  0.27262403339E+02  0.55120768838E+02 -0.11327271623E+03  0.15216822415E+03  0.80888332936E+02 0.  0.
         23    2    1    2    0    0 -0.48231851988E+02 -0.85833037293E+02  0.19321944090E+03  0.23567600332E+03  0.92281115938E+02 0.  0.
         13    1    3    3    0    0 -0.19955898995E+02  0.37248574535E+02 -0.21471234398E+02  0.47399452699E+02  0.00000000000E+00 0. -1.
        -14    1    3    3    0    0  0.47218302334E+02  0.17872194303E+02 -0.91801481830E+02  0.10476877145E+03  0.00000000000E+00 0.  1.
        -11    1    4    4    0    0 -0.13922186400E+02 -0.63479011879E+02  0.18194479562E+03  0.19320279728E+03  0.00000000000E+00 0. -1.
         11    1    4    4    0    0 -0.34309665588E+02 -0.22354025414E+02  0.11274645287E+02  0.42473206040E+02  0.00000000000E+00 0.  1.
         -1    1    1    2    0  502  0.20969448649E+02  0.30712268455E+02  0.11844871161E+03  0.12414933948E+03  0.00000000000E+00 0.  1.
<scales pt_clust_5="13000.00000" pt_clust_6="13000.00000" pt_clust_7="13000.00000" pt_clust_8="13000.00000" pt_clust_9="37.18819"></scales>
<clustering>
<clus scale="   37.188">  1  9  2 -1</clus>
<clus scale="   80.888">  5  6 -1 -1</clus>
<clus scale="   92.281">  7  8 -1 -1</clus>
<clus scale="  103.492">  2  5  1 -1</clus>
<clus scale="   37.188">  1  5  2 -1</clus>
</clustering>
</event>
<event>
 9    1  0.3197504E-005  0.1014797E+03  0.7546771E-02  0.1282492E+00
         21   -1    0    0  501  502  0.00000000000E+00  0.00000000000E+00  0.23211926985E+03  0.23211926985E+03  0.00000000000E+00 0. -1.
         -2   -1    0    0    0  501 -0.00000000000E+00 -0.00000000000E+00 -0.98506539263E+02  0.98506539263E+02  0.00000000000E+00 0.  1.
         23    2    1    2    0    0  0.25881970902E+02  0.48783565256E+02 -0.18954280637E+02  0.10770743283E+03  0.90509191114E+02 0.  0.
        -24    2    1    2    0    0 -0.47091004010E+02  0.11732958988E+02  0.11717144591E+03  0.14967277002E+03  0.79483113706E+02 0.  0.
         13    1    4    4    0    0 -0.56131625745E+02  0.16980265182E+02  0.12401297151E+03  0.13717983057E+03  0.00000000000E+00 0. -1.
        -14    1    4    4    0    0  0.90406217356E+01 -0.52473061947E+01 -0.68415255939E+01  0.12492939451E+02  0.00000000000E+00 0.  1.
        -13    1    3    3    0    0  0.50316318302E+02 -0.12552377319E+01 -0.83109741928E+01  0.51013525670E+02  0.00000000000E+00 0.  1.
         13    1    3    3    0    0 -0.24434347400E+02  0.50038802988E+02 -0.10643306444E+02  0.56693907163E+02  0.00000000000E+00 0. -1.
         -1    1    1    2    0  502  0.21209033107E+02 -0.60516524244E+02  0.35395565310E+02  0.73245606254E+02  0.00000000000E+00 0.  1.
<scales pt_clust_5="13000.00000" pt_clust_6="13000.00000" pt_clust_7="13000.00000" pt_clust_8="13000.00000" pt_clust_9="64.12545"></scales>
<clustering>
<clus scale="   64.125">  1  9  2 -1</clus>
<clus scale="   79.483">  5  6 -1 -1</clus>
<clus scale="   90.509">  7  8 -1 -1</clus>
<clus scale="   91.781">  1  5  2 -1</clus>
<clus scale="   64.125">  1  5  2 -1</clus>
</clustering>
</event>
<event>
 9    1  0.3197504E-005  0.1086585E+03  0.7546771E-02  0.1268171E+00
         21   -1    0    0  501  502  0.00000000000E+00  0.00000000000E+00  0.56003219836E+03  0.56003219836E+03  0.00000000000E+00 0.  1.
         -4   -1    0    0    0  501 -0.00000000000E+00 -0.00000000000E+00 -0.34834464932E+02  0.34834464932E+02  0.00000000000E+00 0.  1.
        -24    2    1    2    0    0 -0.43116641054E+02 -0.31474279582E+02  0.87949232612E+02  0.12983324461E+03  0.79195510459E+02 0.  0.
         23    2    1    2    0    0  0.68993960144E+02  0.23147880965E+02  0.25253362365E+03  0.27832897202E+03  0.91639482020E+02 0.  0.
         11    1    3    3    0    0  0.18010767454E+02 -0.15673698875E+02  0.51903633489E+02  0.57131775310E+02  0.00000000000E+00 0. -1.
        -12    1    3    3    0    0 -0.61127408508E+02 -0.15800580707E+02  0.36045599122E+02  0.72701469295E+02  0.00000000000E+00 0.  1.
        -13    1    4    4    0    0 -0.35367744069E+01 -0.21844587087E+02  0.17298643399E+02  0.28088036985E+02  0.00000000000E+00 0.  1.
         13    1    4    4    0    0  0.72530734551E+02  0.44992468052E+02  0.23523498025E+03  0.25024093504E+03  0.00000000000E+00 0. -1.
         -3    1    1    2    0  502 -0.25877319090E+02  0.83263986165E+01  0.18471487716E+03  0.18670444666E+03  0.00000000000E+00 0.  1.
<scales pt_clust_5="13000.00000" pt_clust_6="13000.00000" pt_clust_7="13000.00000" pt_clust_8="13000.00000" pt_clust_9="27.18390"></scales>
<clustering>
<clus scale="   27.184">  1  9  2 -1</clus>
<clus scale="   79.196">  5  6 -1 -1</clus>
<clus scale="   91.639">  7  8 -1 -1</clus>
<clus scale="   98.391">  2  5  1 -1</clus>
<clus scale="   27.184">  1  5  2 -1</clus>
</clustering>
</event>
<event>
 9    1  0.3197504E-005  0.1298658E+03  0.7546771E-02  0.1233187E+00
         21   -1    0    0  501  502  0.00000000000E+00  0.00000000000E+00  0.74265884215E+03  0.74265884215E+03  0.00000000000E+00 0. -1.
         -2   -1    0    0    0  501 -0.00000000000E+00 -0.00000000000E+00 -0.91775840868E+02  0.91775840868E+02  0.00000000000E+00 0.  1.
         23    2    1    2    0    0  0.33592797255E+02 -0.76398743968E+02 -0.25397290150E+02  0.13170536091E+03  0.98671351656E+02 0.  0.
        -24    2    1    2    0    0 -0.61982669330E+02  0.77929407018E+02  0.65489020056E+03  0.66715034301E+03  0.79331971010E+02 0.  0.
         11    1    4    4    0    0 -0.65109617082E+02  0.86516782703E+02  0.48172963809E+03  0.49374878242E+03  0.00000000000E+00 0. -1.
        -12    1    4    4    0    0  0.31269477522E+01 -0.85873756850E+01  0.17316056246E+03  0.17340156059E+03  0.00000000000E+00 0.  1.
        -11    1    3    3    0    0  0.23880768188E+02  0.17113531299E+02  0.10312068403E+02  0.31136839877E+02  0.00000000000E+00 0. -1.
         11    1    3    3    0    0  0.97120290670E+01 -0.93512275267E+02 -0.35709358553E+02  0.10056852103E+03  0.00000000000E+00 0.  1.
         -1    1    1    2    0  502  0.28389872075E+02 -0.15306630504E+01  0.21390090876E+02  0.35578979096E+02  0.00000000000E+00 0.  1.
<scales pt_clust_5="13000.00000" pt_clust_6="13000.00000" pt_clust_7="13000.00000" pt_clust_8="13000.00000" pt_clust_9="28.43112"></scales>
<clustering>
<clus scale="   28.431">  1  9  2 -1</clus>
<clus scale="   79.332">  5  6 -1 -1</clus>
<clus scale="   98.671">  7  8 -1 -1</clus>
<clus scale="  115.856">  1  5  2 -1</clus>
<clus scale="   28.431">  1  5  2 -1</clus>
</clustering>
</event>
<event>
 9    1  0.3197504E-005  0.1231431E+03  0.7546771E-02  0.1240744E+00
         21   -1    0    0  501  502  0.00000000000E+00  0.00000000000E+00  0.23717612817E+02  0.23717612817E+02  0.00000000000E+00 0.  1.
          1   -1    0    0  502    0 -0.00000000000E+00 -0.00000000000E+00 -0.81366162441E+03  0.81366162441E+03  0.00000000000E+00 0. -1.
         23    2    1    2    0    0  0.16662524973E+02  0.73723274983E+02 -0.45419926110E+03  0.46947103873E+03  0.91615099247E+02 0.  0.
        -24    2    1    2    0    0 -0.57196824044E+01 -0.93512816771E+02 -0.30660776123E+03  0.33102546661E+03  0.82414674866E+02 0.  0.
         11    1    4    4    0    0 -0.48206952227E+00 -0.90925257229E+02 -0.31080483064E+03  0.32383217497E+03  0.00000000000E+00 0. -1.
        -12    1    4    4    0    0 -0.52376128821E+01 -0.25875595416E+01  0.41970694115E+01  0.71932916477E+01  0.00000000000E+00 0.  1.
        -11    1    3    3    0    0  0.29127214708E+02  0.92054400841E+02 -0.37452549654E+03  0.38677093338E+03  0.00000000000E+00 0. -1.
         11    1    3    3    0    0 -0.12464689735E+02 -0.18331125858E+02 -0.79673764563E+02  0.82700105351E+02  0.00000000000E+00 0.  1.
          2    1    1    2  501    0 -0.10942842568E+02  0.19789541788E+02 -0.29136989255E+02  0.36882731874E+02  0.00000000000E+00 0. -1.
<scales pt_clust_5="13000.00000" pt_clust_6="13000.00000" pt_clust_7="13000.00000" pt_clust_8="13000.00000" pt_clust_9="22.61353"></scales>
<clustering>
<clus scale="   22.614">  1  9  2 -1</clus>
<clus scale="   82.415">  5  6 -1 -1</clus>
<clus scale="   91.615">  7  8 -1 -1</clus>
<clus scale="  116.461">  1  5  2 -1</clus>
<clus scale="   22.614">  1  5  2 -1</clus>
</clustering>
</event>
<event>
 9    1  0.3197504E-005  0.2280098E+03  0.7546771E-02  0.1154465E+00
         21   -1    0    0  501  502  0.00000000000E+00  0.00000000000E+00  0.16279578134E+03  0.16279578134E+03  0.00000000000E+00 0. -1.
          1   -1    0    0  502    0 -0.00000000000E+00 -0.00000000000E+00 -0.71918265101E+03  0.71918265101E+03  0.00000000000E+00 0. -1.
        -24    2    1    2    0    0 -0.36866562021E+02  0.81036470852E+02 -0.36804740656E+02  0.12621368918E+03  0.81542954315E+02 0.  0.
         23    2    1    2    0    0  0.14786889673E+03  0.13879077919E+03 -0.52343743489E+02  0.22760070892E+03  0.89073700987E+02 0.  0.
         11    1    3    3    0    0  0.34582049591E+01  0.71603794021E+02 -0.44095680122E+02  0.84163480828E+02  0.00000000000E+00 0. -1.
        -12    1    3    3    0    0 -0.40324766980E+02  0.94326768313E+01  0.72909394655E+01  0.42050208353E+02  0.00000000000E+00 0.  1.
        -11    1    4    4    0    0  0.66503011884E+02  0.11847750588E+03 -0.18307905576E+02  0.13709394369E+03  0.00000000000E+00 0. -1.
         11    1    4    4    0    0  0.81365884851E+02  0.20313273312E+02 -0.34035837912E+02  0.90506765231E+02  0.00000000000E+00 0.  1.
          2    1    1    2  501    0 -0.11100233471E+03 -0.21982725004E+03 -0.46723838552E+03  0.52816403425E+03  0.00000000000E+00 0. -1.
<scales pt_clust_5="13000.00000" pt_clust_6="13000.00000" pt_clust_7="13000.00000" pt_clust_8="13000.00000" pt_clust_9="209.89139"></scales>
<clustering>
<clus scale="   81.543">  5  6 -1 -1</clus>
<clus scale="   89.074">  7  8 -1 -1</clus>
<clus scale="  120.728">  2  5  1 -1</clus>
<clus scale="  209.891">  1  9  2 -1</clus>
<clus scale="  209.891">  1  5  2 -1</clus>
</clustering>
</event>
<event>
 9    1  0.3197504E-005  0.1026727E+03  0.7546771E-02  0.1281309E+00
          1   -1    0    0  502    0 -0.00000000000E+00  0.00000000000E+00  0.15892262982E+03  0.15892262982E+03  0.00000000000E+00 0. -1.
         21   -1    0    0  501  502  0.00000000000E+00 -0.00000000000E+00 -0.14712681690E+03  0.14712681690E+03  0.00000000000E+00 0. -1.
        -24    2    1    2    0    0 -0.25519677361E+02 -0.58294524829E+02  0.46368617861E+02  0.11057838283E+03  0.77640353351E+02 0.  0.
         23    2    1    2    0    0 -0.23820733178E+02  0.66552349455E+01 -0.68030593276E+02  0.11660081620E+03  0.91410443800E+02 0.  0.
         13    1    3    3    0    0 -0.41859572392E+02 -0.68984859147E+02  0.34743600933E+02  0.87853585004E+02  0.00000000000E+00 0. -1.
        -14    1    3    3    0    0  0.16339895031E+02  0.10690334318E+02  0.11625016928E+02  0.22724797822E+02  0.00000000000E+00 0.  1.
        -13    1    4    4    0    0  0.28751310790E+02 -0.18717592767E+02 -0.13982953729E+02  0.37047390543E+02  0.00000000000E+00 0.  1.
         13    1    4    4    0    0 -0.52572043968E+02  0.25372827712E+02 -0.54047639547E+02  0.79553425657E+02  0.00000000000E+00 0. -1.
          2    1    1    2  501    0  0.49340410539E+02  0.51639289883E+02  0.33457788335E+02  0.78870247699E+02  0.00000000000E+00 0. -1.
<scales pt_clust_5="13000.00000" pt_clust_6="13000.00000" pt_clust_7="13000.00000" pt_clust_8="13000.00000" pt_clust_9="71.42197"></scales>
<clustering>
<clus scale="   71.422">  2  9  1 -1</clus>
<clus scale="   77.640">  5  6 -1 -1</clus>
<clus scale="   90.630">  1  5  2 -1</clus>
<clus scale="   91.410">  7  8 -1 -1</clus>
<clus scale="   71.422">  2  5  1 -1</clus>
</clustering>
</event>
<event>
 9    1  0.3197504E-005  0.1698564E+03  0.7546771E-02  0.1209116E+00
          1   -1    0    0  502    0 -0.00000000000E+00  0.00000000000E+00  0.50931116470E+02  0.50931116470E+02  0.00000000000E+00 0. -1.
         21   -1    0    0  501  502  0.00000000000E+00 -0.00000000000E+00 -0.10272006040E+04  0.10272006040E+04  0.00000000000E+00 0. -1.
        -24    2    1    2    0    0  0.23917839503E+02  0.17448127938E+02 -0.55841674251E+02  0.10233254506E+03  0.80480786401E+02 0.  0.
         23    2    1    2    0    0  0.47594583521E+02 -0.13766126276E+03 -0.63396621943E+03  0.65701167695E+03  0.92386733992E+02 0.  0.
         13    1    3    3    0    0  0.13275073765E+02  0.45739957507E+02 -0.54067357402E+02  0.72053108418E+02  0.00000000000E+00 0. -1.
        -14    1    3    3    0    0  0.10642765738E+02 -0.28291829569E+02 -0.17743168486E+01  0.30279436639E+02  0.00000000000E+00 0.  1.
        -13    1    4    4    0    0  0.58295651894E+02 -0.40877233242E+02 -0.33873570137E+03  0.34613755447E+03  0.00000000000E+00 0. -1.
         13    1    4    4    0    0 -0.10701068373E+02 -0.96784029522E+02 -0.29523051806E+03  0.31087412248E+03  0.00000000000E+00 0.  1.
          2    1    1    2  501    0 -0.71512423024E+02  0.12021313483E+03 -0.28646159388E+03  0.31878749850E+03  0.00000000000E+00 0. -1.
<scales pt_clust_5="13000.00000" pt_clust_6="13000.00000" pt_clust_7="13000.00000" pt_clust_8="13000.00000" pt_clust_9="142.53394"></scales>
<clustering>
<clus scale="   80.481">  5  6 -1 -1</clus>
<clus scale="   85.753">  1  5  2 -1</clus>
<clus scale="   92.387">  7  8 -1 -1</clus>
<clus scale="  142.534">  2  9  1 -1</clus>
<clus scale="  142.534">  2  5  1 -1</clus>
</clustering>
</event>
<event>
 9    1  0.3197504E-005  0.1057323E+03  0.7546771E-02  0.1273126E+00
         21   -1    0    0  501  502  0.00000000000E+00  0.00000000000E+00  0.84930470610E+02  0.84930470610E+02  0.00000000000E+00 0.  1.
          1   -1    0    0  502    0 -0.00000000000E+00 -0.00000000000E+00 -0.43038955442E+03  0.43038955442E+03  0.00000000000E+00 0. -1.
        -24    2    1    2    0    0 -0.46666158764E+02  0.84935199214E+01 -0.29343341002E+03  0.30801252667E+03  0.80738344136E+02 0.  0.
         23    2    1    2    0    0  0.78438645559E+02 -0.14052898041E+02 -0.94837100572E+02  0.15370511160E+03  0.91000443003E+02 0.  0.
         11    1    3    3    0    0 -0.57859538847E+02 -0.11121722599E+02 -0.26615481031E+03  0.27259824284E+03  0.00000000000E+00 0. -1.
        -12    1    3    3    0    0  0.11193380082E+02  0.19615242521E+02 -0.27278599713E+02  0.35414283829E+02  0.00000000000E+00 0.  1.
        -11    1    4    4    0    0  0.26336263628E+02  0.84234650139E+01 -0.92900820100E+02  0.96928406156E+02  0.00000000000E+00 0. -1.
         11    1    4    4    0    0  0.52102381932E+02 -0.22476363055E+02 -0.19362804724E+01  0.56776705445E+02  0.00000000000E+00 0.  1.
          2    1    1    2  501    0 -0.31772486795E+02  0.55593781200E+01  0.42811426788E+02  0.53602386755E+02  0.00000000000E+00 0. -1.
<scales pt_clust_5="13000.00000" pt_clust_6="13000.00000" pt_clust_7="13000.00000" pt_clust_8="13000.00000" pt_clust_9="32.25519"></scales>
<clustering>
<clus scale="   32.255">  1  9  2 -1</clus>
<clus scale="   80.738">  5  6 -1 -1</clus>
<clus scale="   91.000">  7  8 -1 -1</clus>
<clus scale="   97.041">  2  5  1 -1</clus>
<clus scale="   32.255">  1  5  2 -1</clus>
</clustering>
</event>
<event>
 9    1  0.3197504E-005  0.1470013E+03  0.7546771E-02  0.1206921E+00
         -4   -1    0    0    0  501 -0.00000000000E+00  0.00000000000E+00  0.54673424610E+03  0.54673424610E+03  0.00000000000E+00 0.  1.
         21   -1    0    0  501  502  0.00000000000E+00 -0.00000000000E+00 -0.10909712131E+03  0.10909712131E+03  0.00000000000E+00 0. -1.
         23    2    1    2    0    0 -0.25212455472E+02 -0.11294622869E+03  0.35282691411E+03  0.38291126990E+03  0.93497009631E+02 0.  0.
        -24    2    1    2    0    0 -0.58471678484E+02  0.11227744014E+03 -0.56040245586E+01  0.14972019700E+03  0.79746921870E+02 0.  0.
         11    1    4    4    0    0 -0.74472373032E+02  0.91624479094E+02 -0.20207971593E+02  0.11978957229E+03  0.00000000000E+00 0. -1.
        -12    1    4    4    0    0  0.16000694549E+02  0.20652961047E+02  0.14603947035E+02  0.29930624702E+02  0.00000000000E+00 0.  1.
        -13    1    3    3    0    0 -0.52960800339E+02 -0.74528326711E+02  0.15936576872E+03  0.18373014476E+03  0.00000000000E+00 0.  1.
         13    1    3    3    0    0  0.27748344868E+02 -0.38417901977E+02  0.19346114538E+03  0.19918112513E+03  0.00000000000E+00 0. -1.
         -3    1    1    2    0  502  0.83684133956E+02  0.66878854711E+00  0.90414235244E+02  0.12319990052E+03  0.00000000000E+00 0.  1.
<scales pt_clust_5="13000.00000" pt_clust_6="13000.00000" pt_clust_7="13000.00000" pt_clust_8="13000.00000" pt_clust_9="83.68685"></scales>
<clustering>
<clus scale="   79.747">  5  6 -1 -1</clus>
<clus scale="   83.687">  2  9  1 -1</clus>
<clus scale="   93.497">  7  8 -1 -1</clus>
<clus scale="  138.662">  2  5  1 -1</clus>
<clus scale="   83.687">  2  5  1 -1</clus>
</clustering>
</event>
<event>
 9    1  0.3197504E-005  0.1090961E+03  0.7546771E-02  0.1267826E+00
         21   -1    0    0  501  502  0.00000000000E+00  0.00000000000E+00  0.85969352376E+02  0.85969352376E+02  0.00000000000E+00 0. -1.
         -4   -1    0    0    0  501 -0.00000000000E+00 -0.00000000000E+00 -0.33624763688E+03  0.33624763688E+03  0.00000000000E+00 0.  1.
        -24    2    1    2    0    0  0.49924368493E+02  0.24866127780E+02 -0.21331686874E+03  0.23417084265E+03  0.78874141380E+02 0.  0.
         23    2    1    2    0    0 -0.33526614525E+02 -0.70368562418E+02 -0.59408310805E+02  0.13472428439E+03  0.92441965322E+02 0.  0.
         11    1    3    3    0    0 -0.12025390545E+01 -0.25078948395E+02 -0.53365118225E+02  0.58976568194E+02  0.00000000000E+00 0. -1.
        -12    1    3    3    0    0  0.51126907548E+02  0.49945076175E+02 -0.15995175052E+03  0.17519427446E+03  0.00000000000E+00 0.  1.
        -13    1    4    4    0    0 -0.68171484870E+01 -0.87830077249E+02 -0.36083580649E+02  0.95197798165E+02  0.00000000000E+00 0. -1.
         13    1    4    4    0    0 -0.26709466038E+02  0.17461514830E+02 -0.23324730156E+02  0.39526486222E+02  0.00000000000E+00 0.  1.
         -3    1    1    2    0  502 -0.16397753968E+02  0.45502434638E+02  0.22446895043E+02  0.53321862217E+02  0.00000000000E+00 0.  1.
<scales pt_clust_5="13000.00000" pt_clust_6="13000.00000" pt_clust_7="13000.00000" pt_clust_8="13000.00000" pt_clust_9="48.36691"></scales>
<clustering>
<clus scale="   48.367">  1  9  2 -1</clus>
<clus scale="   78.874">  5  6 -1 -1</clus>
<clus scale="   92.442">  7  8 -1 -1</clus>
<clus scale="   97.865">  2  5  1 -1</clus>
<clus scale="   48.367">  1  5  2 -1</clus>
</clustering>
</event>
<event>
 9    1  0.3197504E-005  0.9782890E+02  0.7546771E-02  0.1290210E+00
         21   -1    0    0  501  502  0.00000000000E+00  0.00000000000E+00  0.16336712574E+03  0.16336712574E+03  0.00000000000E+00 0.  1.
         -4   -1    0    0    0  501 -0.00000000000E+00 -0.00000000000E+00 -0.26982028745E+03  0.26982028745E+03  0.00000000000E+00 0.  1.
         23    2    1    2    0    0 -0.30471105715E+02  0.40140258346E+01 -0.18334395407E+03  0.20705477254E+03  0.91170569004E+02 0.  0.
        -24    2    1    2    0    0  0.89109823885E+02 -0.26912086150E+01  0.10610503118E+03  0.16060615086E+03  0.81168064748E+02 0.  0.
         11    1    4    4    0    0  0.25591205942E+02  0.52277785552E+01  0.91222756742E+02  0.94888517945E+02  0.00000000000E+00 0. -1.
        -12    1    4    4    0    0  0.63518617943E+02 -0.79189871702E+01  0.14882274438E+02  0.65717632913E+02  0.00000000000E+00 0.  1.
        -13    1    3    3    0    0  0.72538431382E+01  0.31160318613E+02 -0.13963657633E+03  0.14325486779E+03  0.00000000000E+00 0.  1.
         13    1    3    3    0    0 -0.37724948853E+02 -0.27146292779E+02 -0.43707377734E+02  0.63799904749E+02  0.00000000000E+00 0. -1.
         -3    1    1    2    0  502 -0.58638718170E+02 -0.13228172195E+01 -0.29214238824E+02  0.65526489789E+02  0.00000000000E+00 0.  1.
<scales pt_clust_5="13000.00000" pt_clust_6="13000.00000" pt_clust_7="13000.00000" pt_clust_8="13000.00000" pt_clust_9="58.65367"></scales>
<clustering>
<clus scale="   58.654">  1  9  2 -1</clus>
<clus scale="   81.168">  5  6 -1 -1</clus>
<clus scale="   88.581">  1  5  2 -1</clus>
<clus scale="   91.171">  7  8 -1 -1</clus>
<clus scale="   58.654">  1  5  2 -1</clus>
</clustering>
</event>
<event>
 9    1  0.3197504E-005  0.1000427E+03  0.7546771E-02  0.1285825E+00
         -2   -1    0    0    0  501 -0.00000000000E+00  0.00000000000E+00  0.10319032111E+03  0.10319032111E+03  0.00000000000E+00 0.  1.
         21   -1    0    0  501  502  0.00000000000E+00 -0.00000000000E+00 -0.11960339062E+03  0.11960339062E+03  0.00000000000E+00 0.  1.
        -24    2    1    2    0    0 -0.46923486930E+02 -0.12789631365E+02  0.18080651107E+02  0.96343116523E+02  0.81176954001E+02 0.  0.
         23    2    1    2    0    0  0.20796496781E+02  0.84111716632E+01 -0.30173356221E+02  0.99609282425E+02  0.92240639809E+02 0.  0.
         13    1    3    3    0    0  0.21379373665E+02  0.80838392827E+01  0.84785511244E+00  0.22872361796E+02  0.00000000000E+00 0. -1.
        -14    1    3    3    0    0 -0.68302860595E+02 -0.20873470648E+02  0.17232795994E+02  0.73470754727E+02  0.00000000000E+00 0.  1.
        -11    1    4    4    0    0  0.38482642723E+02  0.39392643129E+02 -0.37165629280E+01  0.55195171561E+02  0.00000000000E+00 0. -1.
         11    1    4    4    0    0 -0.17686145941E+02 -0.30981471466E+02 -0.26456793293E+02  0.44414110864E+02  0.00000000000E+00 0.  1.
         -1    1    1    2    0  502  0.26126990149E+02  0.43784597019E+01 -0.43203643924E+01  0.26841312786E+02  0.00000000000E+00 0.  1.
<scales pt_clust_5="13000.00000" pt_clust_6="13000.00000" pt_clust_7="13000.00000" pt_clust_8="13000.00000" pt_clust_9="26.49133"></scales>
<clustering>
<clus scale="   26.491">  2  9  1 -1</clus>
<clus scale="   81.177">  5  6 -1 -1</clus>
<clus scale="   89.944">  1  5  2 -1</clus>
<clus scale="   92.241">  7  8 -1 -1</clus>
<clus scale="   26.491">  2  5  1 -1</clus>
</clustering>
</event>
<event>
 9    1  0.3197504E-005  0.2706211E+03  0.7546771E-02  0.1100925E+00
         21   -1    0    0  501  502  0.00000000000E+00  0.00000000000E+00  0.20884721652E+03  0.20884721652E+03  0.00000000000E+00 0. -1.
          3   -1    0    0  502    0 -0.00000000000E+00 -0.00000000000E+00 -0.84035689384E+03  0.84035689384E+03  0.00000000000E+00 0. -1.
        -24    2    1    2    0    0 -0.11092580442E+03  0.18105547582E+02 -0.58051853557E+03  0.59674581378E+03  0.80445330434E+02 0.  0.
         23    2    1    2    0    0 -0.63424927657E+02  0.12734587553E+02 -0.19474389642E+03  0.22439219610E+03  0.90784256968E+02 0.  0.
         11    1    3    3    0    0 -0.95542120895E+02  0.23166483908E+02 -0.56754086982E+03  0.57599272718E+03  0.00000000000E+00 0. -1.
        -12    1    3    3    0    0 -0.15383683530E+02 -0.50609363261E+01 -0.12977665744E+02  0.20753086604E+02  0.00000000000E+00 0.  1.
        -11    1    4    4    0    0 -0.63421940577E+02 -0.24861701758E+02 -0.88425813685E+02  0.11162244974E+03  0.00000000000E+00 0. -1.
         11    1    4    4    0    0 -0.29870801874E-02  0.37596289312E+02 -0.10631808273E+03  0.11276974636E+03  0.00000000000E+00 0.  1.
          4    1    1    2  501    0  0.17435073208E+03 -0.30840135135E+02  0.14375275466E+03  0.22806610047E+03  0.00000000000E+00 0. -1.
<scales pt_clust_5="13000.00000" pt_clust_6="13000.00000" pt_clust_7="13000.00000" pt_clust_8="13000.00000" pt_clust_9="177.05731"></scales>
<clustering>
<clus scale="   80.445">  5  6 -1 -1</clus>
<clus scale="   90.784">  7  8 -1 -1</clus>
<clus scale="  100.320">  5  7 -1 -1</clus>
<clus scale="  177.057">  1  9  2 -1</clus>
<clus scale="  177.057">  1  5  2 -1</clus>
</clustering>
</event>
<event>
 9    1  0.3197504E-005  0.1165970E+03  0.7546771E-02  0.1251940E+00
         21   -1    0    0  501  502  0.00000000000E+00  0.00000000000E+00  0.94723121082E+02  0.94723121082E+02  0.00000000000E+00 0. -1.
         -4   -1    0    0    0  501 -0.00000000000E+00 -0.00000000000E+00 -0.25633258286E+03  0.25633258286E+03  0.00000000000E+00 0.  1.
         23    2    1    2    0    0 -0.42533474863E+02 -0.61356438329E+02 -0.11625843162E+03  0.16414552992E+03  0.88622926273E+02 0.  0.
        -24    2    1    2    0    0  0.86078407893E+02  0.24867555096E+02 -0.50707634590E+02  0.12984623617E+03  0.79125806412E+02 0.  0.
         11    1    4    4    0    0  0.69014872094E+02 -0.18604638197E+02 -0.40088992742E+02  0.81953111421E+02  0.00000000000E+00 0. -1.
        -12    1    4    4    0    0  0.17063535799E+02  0.43472193293E+02 -0.10618641849E+02  0.47893124751E+02  0.00000000000E+00 0.  1.
        -11    1    3    3    0    0 -0.67141775128E+02 -0.31446743577E+02 -0.93112774856E+02  0.11902480620E+03  0.00000000000E+00 0.  1.
         11    1    3    3    0    0  0.24608300266E+02 -0.29909694753E+02 -0.23145656768E+02  0.45120723724E+02  0.00000000000E+00 0. -1.
         -3    1    1    2    0  502 -0.43544933030E+02  0.36488883234E+02  0.53566044308E+01  0.57063937853E+02  0.00000000000E+00 0.  1.
<scales pt_clust_5="13000.00000" pt_clust_6="13000.00000" pt_clust_7="13000.00000" pt_clust_8="13000.00000" pt_clust_9="56.81197"></scales>
<clustering>
<clus scale="   56.812">  1  9  2 -1</clus>
<clus scale="   79.126">  5  6 -1 -1</clus>
<clus scale="   88.623">  7  8 -1 -1</clus>
<clus scale="  109.552">  1  5  2 -1</clus>
<clus scale="   56.812">  1  5  2 -1</clus>
</clustering>
</event>
<event>
 9    1  0.3197504E-005  0.2169706E+03  0.7546771E-02  0.1163308E+00
         21   -1    0    0  501  502  0.00000000000E+00  0.00000000000E+00  0.11038653268E+03  0.11038653268E+03  0.00000000000E+00 0. -1.
          3   -1    0    0  502    0 -0.00000000000E+00 -0.00000000000E+00 -0.67702437458E+03  0.67702437458E+03  0.00000000000E+00 0. -1.
        -24    2    1    2    0    0 -0.65732344190E+02  0.47761011440E+02 -0.58055793838E+02  0.12792692626E+03  0.79956037783E+02 0.  0.
         23    2    1    2    0    0 -0.15371939342E+03  0.31012712484E+02 -0.25123971212E+03  0.31222407461E+03  0.98848568881E+02 0.  0.
         13    1    3    3    0    0 -0.21169415135E+02  0.54309928613E+02 -0.52573571531E+01  0.58526509270E+02  0.00000000000E+00 0. -1.
        -14    1    3    3    0    0 -0.44562929055E+02 -0.65489171735E+01 -0.52798436685E+02  0.69400416991E+02  0.00000000000E+00 0.  1.
        -13    1    4    4    0    0 -0.72209603079E+02 -0.23787985831E+02 -0.58598265713E+02  0.95988810761E+02  0.00000000000E+00 0.  1.
         13    1    4    4    0    0 -0.81509790339E+02  0.54800698315E+02 -0.19264144641E+03  0.21623526385E+03  0.00000000000E+00 0. -1.
          4    1    1    2  501    0  0.21945173761E+03 -0.78773723924E+02 -0.25734233595E+03  0.34725990640E+03  0.00000000000E+00 0. -1.
<scales pt_clust_5="13000.00000" pt_clust_6="13000.00000" pt_clust_7="13000.00000" pt_clust_8="13000.00000" pt_clust_9="193.14563"></scales>
<clustering>
<clus scale="   79.956">  5  6 -1 -1</clus>
<clus scale="   98.849">  7  8 -1 -1</clus>
<clus scale="  113.995">  2  5  1 -1</clus>
<clus scale="  193.146">  1  9  2 -1</clus>
<clus scale="  193.146">  1  5  2 -1</clus>
</clustering>
</event>
<event>
 9    1  0.3197504E-005  0.9210776E+02  0.7546771E-02  0.1304906E+00
          1   -1    0    0  502    0 -0.00000000000E+00  0.00000000000E+00  0.20037828064E+03  0.20037828064E+03  0.00000000000E+00 0. -1.
         21   -1    0    0  501  502  0.00000000000E+00 -0.00000000000E+00 -0.92541455879E+02  0.92541455879E+02  0.00000000000E+00 0. -1.
        -24    2    1    2    0    0 -0.61009528826E+01  0.87009139503E+01  0.72844478446E+02  0.10849710618E+03  0.79701797224E+02 0.  0.
         23    2    1    2    0    0 -0.18289562520E+01  0.50712668987E+02  0.59052137553E+02  0.11983369280E+03  0.91092475564E+02 0.  0.
         11    1    3    3    0    0 -0.10952653445E+02  0.36697202555E+02  0.70192305608E+02  0.79960021632E+02  0.00000000000E+00 0. -1.
        -12    1    3    3    0    0  0.48517005625E+01 -0.27996288605E+02  0.26521728384E+01  0.28537084553E+02  0.00000000000E+00 0.  1.
        -11    1    4    4    0    0  0.17108236405E+02 -0.13975567672E+02  0.46208864554E+02  0.51217842672E+02  0.00000000000E+00 0.  1.
         11    1    4    4    0    0 -0.18937192657E+02  0.64688236659E+02  0.12843273000E+02  0.68615850131E+02  0.00000000000E+00 0. -1.
          2    1    1    2  501    0  0.79299091346E+01 -0.59413582938E+02 -0.24059791243E+02  0.64588937528E+02  0.00000000000E+00 0. -1.
<scales pt_clust_5="13000.00000" pt_clust_6="13000.00000" pt_clust_7="13000.00000" pt_clust_8="13000.00000" pt_clust_9="59.94045"></scales>
<clustering>
<clus scale="   59.940">  2  9  1 -1</clus>
<clus scale="   79.702">  5  6 -1 -1</clus>
<clus scale="   80.860">  1  5  2 -1</clus>
<clus scale="   91.092">  7  8 -1 -1</clus>
<clus scale="   59.940">  2  5  1 -1</clus>
</clustering>
</event>
<event>
 9    1  0.3197504E-005  0.1034145E+03  0.7546771E-02  0.1277767E+00
         -2   -1    0    0    0  501 -0.00000000000E+00  0.00000000000E+00  0.70967844742E+03  0.70967844742E+03  0.00000000000E+00 0.  1.
         21   -1    0    0  501  502  0.00000000000E+00 -0.00000000000E+00 -0.23044801654E+02  0.23044801654E+02  0.00000000000E+00 0. -1.
        -24    2    1    2    0    0 -0.27846842074E+02 -0.33185839600E+02  0.40755212039E+03  0.41772326935E+03  0.80729501131E+02 0.  0.
         23    2    1    2    0    0  0.55371189947E+02  0.37370955150E+02  0.25273058339E+03  0.27666622096E+03  0.90602941857E+02 0.  0.
         13    1    3    3    0    0  0.22299490675E+02  0.37630036267E+01  0.51253954552E+02  0.56021382863E+02  0.00000000000E+00 0. -1.
        -14    1    3    3    0    0 -0.50146332748E+02 -0.36948843227E+02  0.35629816584E+03  0.36170188648E+03  0.00000000000E+00 0.  1.
        -11    1    4    4    0    0  0.46460443154E+02 -0.12476816408E+01  0.22117355430E+03  0.22600413848E+03  0.00000000000E+00 0.  1.
         11    1    4    4    0    0  0.89107467925E+01  0.38618636791E+02  0.31557029086E+02  0.50662082475E+02  0.00000000000E+00 0. -1.
         -1    1    1    2    0  502 -0.27524347873E+02 -0.41851155500E+01  0.26350941982E+02  0.38333758768E+02  0.00000000000E+00 0.  1.
<scales pt_clust_5="13000.00000" pt_clust_6="13000.00000" pt_clust_7="13000.00000" pt_clust_8="13000.00000" pt_clust_9="27.84071"></scales>
<clustering>
<clus scale="   27.841">  2  9  1 -1</clus>
<clus scale="   80.730">  5  6 -1 -1</clus>
<clus scale="   90.603">  7  8 -1 -1</clus>
<clus scale="   94.884">  1  5  2 -1</clus>
<clus scale="   27.841">  2  5  1 -1</clus>
</clustering>
</event>
<event>
 9    1  0.3197504E-005  0.1121806E+03  0.7546771E-02  0.1260634E+00
         -2   -1    0    0    0  501 -0.00000000000E+00  0.00000000000E+00  0.33711619303E+03  0.33711619303E+03  0.00000000000E+00 0.  1.
         21   -1    0    0  501  502  0.00000000000E+00 -0.00000000000E+00 -0.52088832888E+02  0.52088832888E+02  0.00000000000E+00 0.  1.
        -24    2    1    2    0    0  0.67077634361E+02  0.42502226153E+02  0.16719064677E+03  0.20143200649E+03  0.79475106856E+02 0.  0.
         23    2    1    2    0    0 -0.51901955603E+02 -0.96485256722E+01  0.10768999845E+03  0.15018814635E+03  0.90401529272E+02 0.  0.
         11    1    3    3    0    0  0.26476196624E+02  0.38502770995E+02  0.23975877180E+02  0.52519473041E+02  0.00000000000E+00 0. -1.
        -12    1    3    3    0    0  0.40601437737E+02  0.39994551576E+01  0.14321476959E+03  0.14891253344E+03  0.00000000000E+00 0.  1.
        -11    1    4    4    0    0 -0.56561174921E+02  0.30472600311E+02  0.63882324346E+02  0.90601861139E+02  0.00000000000E+00 0.  1.
         11    1    4    4    0    0  0.46592193174E+01 -0.40121125983E+02  0.43807674103E+02  0.59586285210E+02  0.00000000000E+00 0. -1.
         -1    1    1    2    0  502 -0.15175678758E+02 -0.32853700481E+02  0.10146714923E+02  0.37584873084E+02  0.00000000000E+00 0.  1.
<scales pt_clust_5="13000.00000" pt_clust_6="13000.00000" pt_clust_7="13000.00000" pt_clust_8="13000.00000" pt_clust_9="36.18932"></scales>
<clustering>
<clus scale="   36.189">  2  9  1 -1</clus>
<clus scale="   79.475">  5  6 -1 -1</clus>
<clus scale="   90.402">  7  8 -1 -1</clus>
<clus scale="  103.578">  1  5  2 -1</clus>
<clus scale="   36.189">  2  5  1 -1</clus>
</clustering>
</event>
<event>
 9    1  0.3197504E-005  0.1143385E+03  0.7546771E-02  0.1256251E+00
         -2   -1    0    0    0  501 -0.00000000000E+00  0.00000000000E+00  0.20421764557E+03  0.20421764557E+03  0.00000000000E+00 0.  1.
         21   -1    0    0  501  502  0.00000000000E+00 -0.00000000000E+00 -0.25659679714E+03  0.25659679714E+03  0.00000000000E+00 0.  1.
        -24    2    1    2    0    0  0.36688487533E+02 -0.64704319046E+02  0.91156535978E+02  0.14324518982E+03  0.81712767260E+02 0.  0.
         23    2    1    2    0    0  0.71085848206E+02  0.62426087286E+02 -0.16143226301E+03  0.20829535301E+03  0.91522480045E+02 0.  0.
         13    1    3    3    0    0  0.51776444598E+02 -0.10671971202E+02  0.32378002968E+02  0.61992146767E+02  0.00000000000E+00 0. -1.
        -14    1    3    3    0    0 -0.15087957065E+02 -0.54032347844E+02  0.58778533010E+02  0.81253043049E+02  0.00000000000E+00 0.  1.
        -11    1    4    4    0    0  0.66293466185E+01  0.62133316768E+02 -0.52008223522E+02  0.81297924962E+02  0.00000000000E+00 0. -1.
         11    1    4    4    0    0  0.64456501587E+02  0.29277051803E+00 -0.10942403949E+03  0.12699742804E+03  0.00000000000E+00 0.  1.
         -1    1    1    2    0  502 -0.10777433574E+03  0.22782317596E+01  0.17896575459E+02  0.10927389989E+03  0.00000000000E+00 0.  1.
<scales pt_clust_5="13000.00000" pt_clust_6="13000.00000" pt_clust_7="13000.00000" pt_clust_8="13000.00000" pt_clust_9="107.79847"></scales>
<clustering>
<clus scale="   81.713">  5  6 -1 -1</clus>
<clus scale="   91.522">  7  8 -1 -1</clus>
<clus scale="  107.798">  2  9  1 -1</clus>
<clus scale="  106.649">  1  5  2 -1</clus>
<clus scale="  107.798">  2  5  1 -1</clus>
</clustering>
</event>
<event>
 9    1  0.4229977E-005  0.9623187E+02  0.7546771E-02  0.1292588E+00
          1   -1    0    0  502    0 -0.00000000000E+00  0.00000000000E+00  0.14975734933E+03  0.14975734933E+03  0.00000000000E+00 0. -1.
         21   -1    0    0  501  502  0.00000000000E+00 -0.00000000000E+00 -0.31186333526E+03  0.31186333526E+03  0.00000000000E+00 0. -1.
         23    2    1    2    0    0  0.36513494315E+01  0.39488635299E+02  0.10196186388E+03  0.14250761162E+03  0.91320934140E+02 0.  0.
        -24    2    1    2    0    0 -0.29656954418E+02  0.36946675004E+02 -0.11807457201E+03  0.15228176502E+03  0.83687153511E+02 0.  0.
         11    1    4    4    0    0 -0.42978351389E+02  0.57419979893E+02 -0.86768855835E+02  0.11257454029E+03  0.00000000000E+00 0. -1.
        -12    1    4    4    0    0  0.13321396972E+02 -0.20473304888E+02 -0.31305716171E+02  0.39707224725E+02  0.00000000000E+00 0.  1.
        -13    1    3    3    0    0 -0.19781261305E+02 -0.20283567991E+02  0.58437729965E+02  0.64943742676E+02  0.00000000000E+00 0.  1.
         13    1    3    3    0    0  0.23432610736E+02  0.59772203290E+02  0.43524133917E+02  0.77563868942E+02  0.00000000000E+00 0. -1.
          2    1    1    2  501    0  0.26005604986E+02 -0.76435310303E+02 -0.14599327780E+03  0.16683130795E+03  0.00000000000E+00 0. -1.
<scales pt_clust_5="13000.00000" pt_clust_6="13000.00000" pt_clust_7="13000.00000" pt_clust_8="13000.00000" pt_clust_9="80.73815"></scales>
<clustering>
<clus scale="   80.738">  2  9  1 -1</clus>
<clus scale="   83.687">  5  6 -1 -1</clus>
<clus scale="   89.020">  2  5  1 -1</clus>
<clus scale="   91.321">  7  8 -1 -1</clus>
<clus scale="   80.738">  2  5  1 -1</clus>
</clustering>
</event>
<event>
 9    1  0.3197504E-005  0.1040816E+03  0.7546771E-02  0.1277983E+00
         -4   -1    0    0    0  501 -0.00000000000E+00  0.00000000000E+00  0.67981985224E+03  0.67981985224E+03  0.00000000000E+00 0.  1.
         21   -1    0    0  501  502  0.00000000000E+00 -0.00000000000E+00 -0.18839451622E+03  0.18839451622E+03  0.00000000000E+00 0.  1.
        -24    2    1    2    0    0 -0.42478364507E+02 -0.15806894378E+02  0.62228751627E+03  0.62910574477E+03  0.80486122060E+02 0.  0.
         23    2    1    2    0    0  0.39702549069E+02  0.60069775478E+02 -0.19866670387E+02  0.11958075662E+03  0.93382024144E+02 0.  0.
         13    1    3    3    0    0  0.20892474280E+02 -0.13508976594E+02  0.10306973238E+03  0.10602998474E+03  0.00000000000E+00 0. -1.
        -14    1    3    3    0    0 -0.63370838787E+02 -0.22979177835E+01  0.51921778388E+03  0.52307576003E+03  0.00000000000E+00 0.  1.
        -11    1    4    4    0    0 -0.82543278725E+01  0.68183373866E+02 -0.17546138598E+02  0.70887046631E+02  0.00000000000E+00 0.  1.
         11    1    4    4    0    0  0.47956876941E+02 -0.81135983879E+01 -0.23205317889E+01  0.48693709989E+02  0.00000000000E+00 0. -1.
         -3    1    1    2    0  502  0.27758154378E+01 -0.44262881100E+02 -0.11099550987E+03  0.11952786706E+03  0.00000000000E+00 0.  1.
<scales pt_clust_5="13000.00000" pt_clust_6="13000.00000" pt_clust_7="13000.00000" pt_clust_8="13000.00000" pt_clust_9="44.34983"></scales>
<clustering>
<clus scale="   44.350">  2  9  1 -1</clus>
<clus scale="   80.486">  5  6 -1 -1</clus>
<clus scale="   92.687">  1  5  2 -1</clus>
<clus scale="   93.382">  7  8 -1 -1</clus>
<clus scale="   44.350">  2  5  1 -1</clus>
</clustering>
</event>
<event>
 9    1  0.3197504E-005  0.3395938E+03  0.7546771E-02  0.1066969E+00
          1   -1    0    0  502    0 -0.00000000000E+00  0.00000000000E+00  0.60161265031E+03  0.60161265031E+03  0.00000000000E+00 0. -1.
         21   -1    0    0  501  502  0.00000000000E+00 -0.00000000000E+00 -0.16715461155E+03  0.16715461155E+03  0.00000000000E+00 0.  1.
        -24    2    1    2    0    0 -0.97219327916E+02  0.45478552512E+02  0.73128121630E+02  0.15405005977E+03  0.82848067460E+02 0.  0.
         23    2    1    2    0    0 -0.17497127782E+03  0.12615450874E+02  0.78324951038E+02  0.21778591092E+03  0.10257586158E+03 0.  0.
         13    1    3    3    0    0 -0.24957498970E+02 -0.18330358103E+02 -0.31428335363E+01  0.31124848364E+02  0.00000000000E+00 0. -1.
        -14    1    3    3    0    0 -0.72261828946E+02  0.63808910615E+02  0.76270955166E+02  0.12292521140E+03  0.00000000000E+00 0.  1.
        -13    1    4    4    0    0 -0.16333918158E+02  0.30961753194E+02 -0.84872046014E+01  0.36020267700E+02  0.00000000000E+00 0. -1.
         13    1    4    4    0    0 -0.15863735966E+03 -0.18346302319E+02  0.86812155640E+02  0.18176564322E+03  0.00000000000E+00 0.  1.
          2    1    1    2  501    0  0.27219060573E+03 -0.58094003386E+02  0.28300496609E+03  0.39693129117E+03  0.00000000000E+00 0. -1.
<scales pt_clust_5="13000.00000" pt_clust_6="13000.00000" pt_clust_7="13000.00000" pt_clust_8="13000.00000" pt_clust_9="278.32125"></scales>
<clustering>
<clus scale="   82.848">  5  6 -1 -1</clus>
<clus scale="  102.576">  7  8 -1 -1</clus>
<clus scale="  110.890">  5  7 -1 -1</clus>
<clus scale="  278.321">  2  9  1 -1</clus>
<clus scale="  278.321">  2  5  1 -1</clus>
</clustering>
</event>
<event>
 9    1  0.3197504E-005  0.1003956E+03  0.7546771E-02  0.1282787E+00
         21   -1    0    0  501  502  0.00000000000E+00  0.00000000000E+00  0.23197665459E+03  0.23197665459E+03  0.00000000000E+00 0. -1.
         -2   -1    0    0    0  501 -0.00000000000E+00 -0.00000000000E+00 -0.55280826783E+02  0.55280826783E+02  0.00000000000E+00 0.  1.
        -24    2    1    2    0    0  0.29756445977E+02  0.37588134992E+02  0.56923600961E+02  0.11005275398E+03  0.81074030011E+02 0.  0.
         23    2    1    2    0    0 -0.64430350463E+01 -0.52340403471E+02  0.99186319653E+02  0.14278200046E+03  0.88134800811E+02 0.  0.
         11    1    3    3    0    0  0.14103921588E+02 -0.25451340646E+02  0.14908793747E+02  0.32695006894E+02  0.00000000000E+00 0. -1.
        -12    1    3    3    0    0  0.15652524389E+02  0.63039475638E+02  0.42014807215E+02  0.77357747083E+02  0.00000000000E+00 0.  1.
        -13    1    4    4    0    0  0.19921075826E+02 -0.56388794902E+02  0.99520047072E+02  0.11610678370E+03  0.00000000000E+00 0. -1.
         13    1    4    4    0    0 -0.26364110872E+02  0.40483914305E+01 -0.33372741883E+00  0.26675216761E+02  0.00000000000E+00 0.  1.
         -1    1    1    2    0  502 -0.23313410931E+02  0.14752268479E+02  0.20585907195E+02  0.34422726934E+02  0.00000000000E+00 0.  1.
<scales pt_clust_5="13000.00000" pt_clust_6="13000.00000" pt_clust_7="13000.00000" pt_clust_8="13000.00000" pt_clust_9="27.58886"></scales>
<clustering>
<clus scale="   27.589">  1  9  2 -1</clus>
<clus scale="   81.074">  5  6 -1 -1</clus>
<clus scale="   88.135">  7  8 -1 -1</clus>
<clus scale="   94.258">  2  5  1 -1</clus>
<clus scale="   27.589">  1  5  2 -1</clus>
</clustering>
</event>
<event>
 9    1  0.3197504E-005  0.9294123E+02  0.7546771E-02  0.1301163E+00
          3   -1    0    0  502    0 -0.00000000000E+00  0.00000000000E+00  0.68443429207E+02  0.68443429207E+02  0.00000000000E+00 0. -1.
         21   -1    0    0  501  502  0.00000000000E+00 -0.00000000000E+00 -0.40382642270E+03  0.40382642270E+03  0.00000000000E+00 0. -1.
        -24    2    1    2    0    0 -0.27396286618E+02  0.61832939824E+01  0.24354542882E+02  0.88944903788E+02  0.80803852048E+02 0.  0.
         23    2    1    2    0    0 -0.53440552636E+01  0.17942780070E+02 -0.25094633970E+03  0.26718054701E+03  0.89782386955E+02 0.  0.
         11    1    3    3    0    0 -0.36650263409E+02  0.15024556948E+02  0.47893706907E+02  0.62151317610E+02  0.00000000000E+00 0. -1.
        -12    1    3    3    0    0  0.92539767913E+01 -0.88412629655E+01 -0.23539164024E+02  0.26793586177E+02  0.00000000000E+00 0.  1.
        -13    1    4    4    0    0  0.40683906177E+02 -0.14890611345E+01 -0.13292703159E+03  0.13902155679E+03  0.00000000000E+00 0.  1.
         13    1    4    4    0    0 -0.46027961441E+02  0.19431841204E+02 -0.11801930811E+03  0.12815899022E+03  0.00000000000E+00 0. -1.
          4    1    1    2  501    0  0.32740341882E+02 -0.24126074052E+02 -0.10879119667E+03  0.11614440111E+03  0.00000000000E+00 0. -1.
<scales pt_clust_5="13000.00000" pt_clust_6="13000.00000" pt_clust_7="13000.00000" pt_clust_8="13000.00000" pt_clust_9="40.66937"></scales>
<clustering>
<clus scale="   40.669">  2  9  1 -1</clus>
<clus scale="   80.804">  5  6 -1 -1</clus>
<clus scale="   84.300">  1  5  2 -1</clus>
<clus scale="   89.782">  7  8 -1 -1</clus>
<clus scale="   40.669">  2  5  1 -1</clus>
</clustering>
</event>
<event>
 9    1  0.3197504E-005  0.3053819E+03  0.7546771E-02  0.1092938E+00
         -2   -1    0    0    0  501 -0.00000000000E+00  0.00000000000E+00  0.17711691794E+04  0.17711691794E+04  0.00000000000E+00 0.  1.
         21   -1    0    0  501  502  0.00000000000E+00 -0.00000000000E+00 -0.14137139187E+03  0.14137139187E+03  0.00000000000E+00 0. -1.
         23    2    1    2    0    0  0.12923378176E+03 -0.16853370903E+03  0.93694612387E+03  0.96523532906E+03  0.93307127285E+02 0.  0.
        -24    2    1    2    0    0 -0.33699467090E+03 -0.25131216312E+02  0.26944615113E+03  0.43745926703E+03  0.67619492042E+02 0.  0.
         13    1    4    4    0    0 -0.15522609289E+03 -0.26353002383E+02  0.16386892532E+03  0.22725018226E+03  0.00000000000E+00 0. -1.
        -14    1    4    4    0    0 -0.18176857801E+03  0.12217860708E+01  0.10557722581E+03  0.21020908478E+03  0.00000000000E+00 0.  1.
        -11    1    3    3    0    0  0.14301732731E+03 -0.14014296190E+03  0.82182221975E+03  0.84586391728E+03  0.00000000000E+00 0.  1.
         11    1    3    3    0    0 -0.13783545548E+02 -0.28390747133E+02  0.11512390411E+03  0.11937141177E+03  0.00000000000E+00 0. -1.
         -1    1    1    2    0  502  0.20776088914E+03  0.19366492534E+03  0.42340551252E+03  0.50984597517E+03  0.00000000000E+00 0.  1.
<scales pt_clust_5="13000.00000" pt_clust_6="13000.00000" pt_clust_7="13000.00000" pt_clust_8="13000.00000" pt_clust_9="297.80160"></scales>
<clustering>
<clus scale="   67.619">  5  6 -1 -1</clus>
<clus scale="   93.307">  7  8 -1 -1</clus>
<clus scale="  231.972">  1  7  2 -1</clus>
<clus scale="  297.802">  2  9  1 -1</clus>
<clus scale="  297.802">  2  5  1 -1</clus>
</clustering>
</event>
<event>
 9    1  0.3197504E-005  0.1669944E+03  0.7546771E-02  0.1183417E+00
         21   -1    0    0  501  502  0.00000000000E+00  0.00000000000E+00  0.38113189283E+03  0.38113189283E+03  0.00000000000E+00 0.  1.
         -2   -1    0    0    0  501 -0.00000000000E+00 -0.00000000000E+00 -0.55432071720E+03  0.55432071720E+03  0.00000000000E+00 0.  1.
         23    2    1    2    0    0 -0.12123991626E+03  0.74116126353E+02 -0.50330031307E+03  0.53099585372E+03  0.91940600634E+02 0.  0.
        -24    2    1    2    0    0  0.11189941524E+03 -0.32806019894E+02  0.10109022065E+03  0.17155224567E+03  0.74921466971E+02 0.  0.
         11    1    4    4    0    0  0.10438542579E+03 -0.10346500374E+01  0.87410637829E+02  0.13615435074E+03  0.00000000000E+00 0. -1.
        -12    1    4    4    0    0  0.75139894473E+01 -0.31771369857E+02  0.13679582818E+02  0.35397894938E+02  0.00000000000E+00 0.  1.
        -11    1    3    3    0    0 -0.74940790283E+02  0.86918174400E+02 -0.41379374057E+03  0.42941372919E+03  0.00000000000E+00 0.  1.
         11    1    3    3    0    0 -0.46299125979E+02 -0.12802048047E+02 -0.89506572508E+02  0.10158212452E+03  0.00000000000E+00 0. -1.
         -1    1    1    2    0  502  0.93405010212E+01 -0.41310106459E+02  0.22902126805E+03  0.23290451064E+03  0.00000000000E+00 0.  1.
<scales pt_clust_5="13000.00000" pt_clust_6="13000.00000" pt_clust_7="13000.00000" pt_clust_8="13000.00000" pt_clust_9="42.35292"></scales>
<clustering>
<clus scale="   42.353">  1  9  2 -1</clus>
<clus scale="   74.921">  5  6 -1 -1</clus>
<clus scale="   91.941">  7  8 -1 -1</clus>
<clus scale="  158.263">  1  5  2 -1</clus>
<clus scale="   42.353">  1  5  2 -1</clus>
</clustering>
</event>
<event>
 9    1  0.3197504E-005  0.9098278E+02  0.7546771E-02  0.1303935E+00
         21   -1    0    0  501  502  0.00000000000E+00  0.00000000000E+00  0.25845503784E+03  0.25845503784E+03  0.00000000000E+00 0. -1.
          1   -1    0    0  502    0 -0.00000000000E+00 -0.00000000000E+00 -0.88892032279E+02  0.88892032279E+02  0.00000000000E+00 0. -1.
         23    2    1    2    0    0  0.26493811564E+02  0.45157844222E+02 -0.15112495290E+02  0.10105306641E+03  0.85101009220E+02 0.  0.
        -24    2    1    2    0    0 -0.17847837364E+01 -0.49022092084E+01  0.30328611675E+02  0.84881444087E+02  0.79106369883E+02 0.  0.
         11    1    4    4    0    0  0.18228268519E+02 -0.34762150947E+02  0.23352534218E+01  0.39320863675E+02  0.00000000000E+00 0. -1.
        -12    1    4    4    0    0 -0.20013052255E+02  0.29859941738E+02  0.27993358254E+02  0.45560580412E+02  0.00000000000E+00 0.  1.
        -11    1    3    3    0    0 -0.20279951984E+02  0.87710245898E+00 -0.28771376280E+02  0.35211331333E+02  0.00000000000E+00 0.  1.
         11    1    3    3    0    0  0.46773763548E+02  0.44280741763E+02  0.13658880990E+02  0.65841735073E+02  0.00000000000E+00 0. -1.
          2    1    1    2  501    0 -0.24709027827E+02 -0.40255635014E+02  0.15434688918E+03  0.16141255963E+03  0.00000000000E+00 0. -1.
<scales pt_clust_5="13000.00000" pt_clust_6="13000.00000" pt_clust_7="13000.00000" pt_clust_8="13000.00000" pt_clust_9="47.23402"></scales>
<clustering>
<clus scale="   47.234">  1  9  2 -1</clus>
<clus scale="   79.106">  5  6 -1 -1</clus>
<clus scale="   85.101">  7  8 -1 -1</clus>
<clus scale="   85.402">  1  5  2 -1</clus>
<clus scale="   47.234">  1  5  2 -1</clus>
</clustering>
</event>
<event>
 9    1  0.3197504E-005  0.9262196E+02  0.7546771E-02  0.1305478E+00
         21   -1    0    0  501  502  0.00000000000E+00  0.00000000000E+00  0.95043045722E+02  0.95043045722E+02  0.00000000000E+00 0. -1.
         -2   -1    0    0    0  501 -0.00000000000E+00 -0.00000000000E+00 -0.11116510563E+03  0.11116510563E+03  0.00000000000E+00 0.  1.
        -24    2    1    2    0    0  0.14218131465E+02 -0.12615868489E+02 -0.40933731144E+02  0.89843656718E+02  0.77685242530E+02 0.  0.
         23    2    1    2    0    0 -0.38214549275E+00 -0.42431234919E+01  0.19360665266E+02  0.93883978967E+02  0.91767183759E+02 0.  0.
         13    1    3    3    0    0 -0.28602852907E+02 -0.54765944898E+01 -0.35769342626E+02  0.46125504371E+02  0.00000000000E+00 0. -1.
        -14    1    3    3    0    0  0.42820984372E+02 -0.71392739991E+01 -0.51643885180E+01  0.43718152346E+02  0.00000000000E+00 0.  1.
        -13    1    4    4    0    0  0.14821757845E+01 -0.39741796298E+02  0.36894151155E+02  0.54247447935E+02  0.00000000000E+00 0. -1.
         13    1    4    4    0    0 -0.18643212772E+01  0.35498672806E+02 -0.17533485889E+02  0.39636531032E+02  0.00000000000E+00 0.  1.
         -1    1    1    2    0  502 -0.13835985972E+02  0.16858991981E+02  0.54510059723E+01  0.22480515664E+02  0.00000000000E+00 0.  1.
<scales pt_clust_5="13000.00000" pt_clust_6="13000.00000" pt_clust_7="13000.00000" pt_clust_8="13000.00000" pt_clust_9="21.80963"></scales>
<clustering>
<clus scale="   21.810">  1  9  2 -1</clus>
<clus scale="   77.685">  5  6 -1 -1</clus>
<clus scale="   78.693">  2  5  1 -1</clus>
<clus scale="   91.767">  7  8 -1 -1</clus>
<clus scale="   21.810">  1  5  2 -1</clus>
</clustering>
</event>
<event>
 9    1  0.3197504E-005  0.1217931E+03  0.7546771E-02  0.1248140E+00
         -2   -1    0    0    0  501 -0.00000000000E+00  0.00000000000E+00  0.43446630293E+03  0.43446630293E+03  0.00000000000E+00 0.  1.
         21   -1    0    0  501  502  0.00000000000E+00 -0.00000000000E+00 -0.97103911473E+02  0.97103911473E+02  0.00000000000E+00 0. -1.
        -24    2    1    2    0    0 -0.69697296281E+02 -0.79621241426E+01  0.32015113695E+03  0.33756459899E+03  0.80820786129E+02 0.  0.
         23    2    1    2    0    0  0.44807335176E+02  0.15102531068E+02  0.71392190634E+02  0.13395505826E+03  0.10301130531E+03 0.  0.
         11    1    3    3    0    0 -0.11401646513E+02 -0.29998534724E+02  0.43950673335E+02  0.54420320795E+02  0.00000000000E+00 0. -1.
        -12    1    3    3    0    0 -0.58295649768E+02  0.22036410581E+02  0.27620046361E+03  0.28314427819E+03  0.00000000000E+00 0.  1.
        -13    1    4    4    0    0 -0.32702656084E+02  0.96475173321E+01  0.32331270387E+02  0.46987757452E+02  0.00000000000E+00 0.  1.
         13    1    4    4    0    0  0.77509991259E+02  0.54550137357E+01  0.39060920247E+02  0.86967300811E+02  0.00000000000E+00 0. -1.
         -1    1    1    2    0  502  0.24889961105E+02 -0.71404069252E+01 -0.54180936125E+02  0.60050557152E+02  0.00000000000E+00 0.  1.
<scales pt_clust_5="13000.00000" pt_clust_6="13000.00000" pt_clust_7="13000.00000" pt_clust_8="13000.00000" pt_clust_9="25.89393"></scales>
<clustering>
<clus scale="   25.894">  2  9  1 -1</clus>
<clus scale="   80.821">  5  6 -1 -1</clus>
<clus scale="  103.011">  7  8 -1 -1</clus>
<clus scale="  103.703">  1  5  2 -1</clus>
<clus scale="   25.894">  2  5  1 -1</clus>
</clustering>
</event>
<event>
 9    1  0.3197504E-005  0.9561725E+02  0.7546771E-02  0.1296869E+00
         21   -1    0    0  501  502  0.00000000000E+00  0.00000000000E+00  0.23420924066E+03  0.23420924066E+03  0.00000000000E+00 0.  1.
         -2   -1    0    0    0  501 -0.00000000000E+00 -0.00000000000E+00 -0.17015872559E+03  0.17015872559E+03  0.00000000000E+00 0.  1.
        -24    2    1    2    0    0 -0.19826054320E+02 -0.17835111193E+02 -0.12889424399E+03  0.15330274796E+03  0.78592892673E+02 0.  0.
         23    2    1    2    0    0  0.21364487237E+02  0.49193674518E+02  0.76545352896E+02  0.13050590497E+03  0.91083155719E+02 0.  0.
         11    1    3    3    0    0  0.30216208353E+02 -0.61702182093E+01 -0.58737871794E+02  0.66341754747E+02  0.00000000000E+00 0. -1.
        -12    1    3    3    0    0 -0.50042262673E+02 -0.11664892984E+02 -0.70156372193E+02  0.86960993216E+02  0.00000000000E+00 0.  1.
        -11    1    4    4    0    0  0.44096931475E+02  0.52787076495E+01  0.66625346071E+02  0.80070848997E+02  0.00000000000E+00 0. -1.
         11    1    4    4    0    0 -0.22732444238E+02  0.43914966868E+02  0.99200068254E+01  0.50435055978E+02  0.00000000000E+00 0.  1.
         -1    1    1    2    0  502 -0.15384329168E+01 -0.31358563324E+02  0.11639940617E+03  0.12055931331E+03  0.00000000000E+00 0.  1.
<scales pt_clust_5="13000.00000" pt_clust_6="13000.00000" pt_clust_7="13000.00000" pt_clust_8="13000.00000" pt_clust_9="31.39628"></scales>
<clustering>
<clus scale="   31.396">  1  9  2 -1</clus>
<clus scale="   78.593">  5  6 -1 -1</clus>
<clus scale="   83.805">  2  5  1 -1</clus>
<clus scale="   91.083">  7  8 -1 -1</clus>
<clus scale="   31.396">  1  5  2 -1</clus>
</clustering>
</event>
<event>
 9    1  0.3197504E-005  0.9110848E+02  0.7546771E-02  0.1308072E+00
         21   -1    0    0  501  502  0.00000000000E+00  0.00000000000E+00  0.26715140866E+02  0.26715140866E+02  0.00000000000E+00 0.  1.
          1   -1    0    0  502    0 -0.00000000000E+00 -0.00000000000E+00 -0.69754845417E+03  0.69754845417E+03  0.00000000000E+00 0. -1.
        -24    2    1    2    0    0  0.16142067236E+02 -0.96347751039E+01 -0.23678034800E+03  0.25007401413E+03  0.78222018098E+02 0.  0.
         23    2    1    2    0    0  0.57279059646E+02  0.29247938863E+01 -0.17848331594E+03  0.20819798067E+03  0.90557495520E+02 0.  0.
         13    1    3    3    0    0 -0.20742000100E+02  0.22974185784E+02 -0.10145471800E+03  0.10607121940E+03  0.00000000000E+00 0. -1.
        -14    1    3    3    0    0  0.36884067335E+02 -0.32608960888E+02 -0.13532563000E+03  0.14400279473E+03  0.00000000000E+00 0.  1.
        -13    1    4    4    0    0  0.55812445575E+02  0.35331739038E+02 -0.75957164941E+02  0.10066206719E+03  0.00000000000E+00 0.  1.
         13    1    4    4    0    0  0.14666140704E+01 -0.32406945152E+02 -0.10252615099E+03  0.10753591348E+03  0.00000000000E+00 0. -1.
          2    1    1    2  501    0 -0.73421126881E+02  0.67099812176E+01 -0.25556964936E+03  0.26599160023E+03  0.00000000000E+00 0. -1.
<scales pt_clust_5="13000.00000" pt_clust_6="13000.00000" pt_clust_7="13000.00000" pt_clust_8="13000.00000" pt_clust_9="73.72714"></scales>
<clustering>
<clus scale="   73.727">  1  9  2 -1</clus>
<clus scale="   78.222">  5  6 -1 -1</clus>
<clus scale="   78.859">  2  5  1 -1</clus>
<clus scale="   90.557">  7  8 -1 -1</clus>
<clus scale="   73.727">  1  5  2 -1</clus>
</clustering>
</event>
<event>
 9    1  0.3197504E-005  0.9017142E+02  0.7546771E-02  0.1317230E+00
         21   -1    0    0  501  502  0.00000000000E+00  0.00000000000E+00  0.45952797325E+03  0.45952797325E+03  0.00000000000E+00 0. -1.
          1   -1    0    0  502    0 -0.00000000000E+00 -0.00000000000E+00 -0.38305152266E+02  0.38305152266E+02  0.00000000000E+00 0. -1.
        -24    2    1    2    0    0 -0.15420365662E+02  0.22494260526E+02  0.11352632774E+03  0.13486270837E+03  0.67497730225E+02 0.  0.
         23    2    1    2    0    0 -0.20064657416E+02  0.10468225318E+02  0.30020914074E+03  0.31396253223E+03  0.89077321717E+02 0.  0.
         11    1    3    3    0    0 -0.67675823807E+01  0.46585457380E+02  0.69679219911E+02  0.84090419775E+02  0.00000000000E+00 0. -1.
        -12    1    3    3    0    0 -0.86527832816E+01 -0.24091196854E+02  0.43847107832E+02  0.50772288599E+02  0.00000000000E+00 0.  1.
        -11    1    4    4    0    0  0.28458092657E+02  0.11793035208E+02  0.47365238181E+02  0.56501367285E+02  0.00000000000E+00 0.  1.
         11    1    4    4    0    0 -0.48522750073E+02 -0.13248098900E+01  0.25284390256E+03  0.25746116495E+03  0.00000000000E+00 0. -1.
          2    1    1    2  501    0  0.35485023078E+02 -0.32962485844E+02  0.74873525042E+01  0.49007884911E+02  0.00000000000E+00 0. -1.
<scales pt_clust_5="13000.00000" pt_clust_6="13000.00000" pt_clust_7="13000.00000" pt_clust_8="13000.00000" pt_clust_9="48.43258"></scales>
<clustering>
<clus scale="   48.433">  1  9  2 -1</clus>
<clus scale="   67.498">  5  6 -1 -1</clus>
<clus scale="   68.935">  2  5  1 -1</clus>
<clus scale="   89.077">  7  8 -1 -1</clus>
<clus scale="   48.433">  1  5  2 -1</clus>
</clustering>
</event>
<event>
 9    1  0.3197504E-005  0.2037877E+03  0.7546771E-02  0.1171021E+00
          1   -1    0    0  502    0 -0.00000000000E+00  0.00000000000E+00  0.16910279122E+03  0.16910279122E+03  0.00000000000E+00 0. -1.
         21   -1    0    0  501  502  0.00000000000E+00 -0.00000000000E+00 -0.41593004530E+03  0.41593004530E+03  0.00000000000E+00 0. -1.
        -24    2    1    2    0    0 -0.82695753497E+02  0.90151136065E+01 -0.64369313093E+02  0.13198745657E+03  0.79733432789E+02 0.  0.
         23    2    1    2    0    0  0.23612884275E+03 -0.34208611071E+02 -0.84642649154E+02  0.26934928171E+03  0.91965200212E+02 0.  0.
         11    1    3    3    0    0 -0.64206633996E+02  0.13861054024E+02 -0.88872145543E+00  0.65691784064E+02  0.00000000000E+00 0. -1.
        -12    1    3    3    0    0 -0.18489119501E+02 -0.48459404171E+01 -0.63480591638E+02  0.66295672507E+02  0.00000000000E+00 0.  1.
        -13    1    4    4    0    0  0.11928807668E+03  0.20825306510E+02 -0.68681333949E+02  0.13921373590E+03  0.00000000000E+00 0.  1.
         13    1    4    4    0    0  0.11684076607E+03 -0.55033917580E+02 -0.15961315205E+02  0.13013554581E+03  0.00000000000E+00 0. -1.
          2    1    1    2  501    0 -0.15343308925E+03  0.25193497464E+02 -0.97815291827E+02  0.18369609824E+03  0.00000000000E+00 0. -1.
<scales pt_clust_5="13000.00000" pt_clust_6="13000.00000" pt_clust_7="13000.00000" pt_clust_8="13000.00000" pt_clust_9="181.85662"></scales>
<clustering>
<clus scale="   79.733">  5  6 -1 -1</clus>
<clus scale="   91.965">  7  8 -1 -1</clus>
<clus scale="  115.227">  1  5  2 -1</clus>
<clus scale="  181.857">  2  9  1 -1</clus>
<clus scale="  181.857">  2  5  1 -1</clus>
</clustering>
</event>
<event>
 9    1  0.3197504E-005  0.1401053E+03  0.7546771E-02  0.1237746E+00
          3   -1    0    0  502    0 -0.00000000000E+00  0.00000000000E+00  0.23034565922E+03  0.23034565922E+03  0.00000000000E+00 0. -1.
         21   -1    0    0  501  502  0.00000000000E+00 -0.00000000000E+00 -0.16094794058E+03  0.16094794058E+03  0.00000000000E+00 0.  1.
        -24    2    1    2    0    0 -0.21034914813E+02  0.99417000335E+01  0.51904847616E+02  0.98783482298E+02  0.80763594077E+02 0.  0.
         23    2    1    2    0    0 -0.98782551795E+02 -0.17519660947E+02 -0.60990265299E+02  0.14907632273E+03  0.91864065226E+02 0.  0.
         11    1    3    3    0    0 -0.22475288928E+02  0.43119037702E+02  0.41659206539E+02  0.64030301531E+02  0.00000000000E+00 0. -1.
        -12    1    3    3    0    0  0.14403741142E+01 -0.33177337668E+02  0.10245641077E+02  0.34753180767E+02  0.00000000000E+00 0.  1.
        -11    1    4    4    0    0 -0.74189296096E+02 -0.37353870686E+02 -0.77347132615E+02  0.11349864420E+03  0.00000000000E+00 0.  1.
         11    1    4    4    0    0 -0.24593255699E+02  0.19834209739E+02  0.16356867316E+02  0.35577678539E+02  0.00000000000E+00 0. -1.
          4    1    1    2  501    0  0.11981746661E+03  0.75779609139E+01  0.78483136325E+02  0.14343379477E+03  0.00000000000E+00 0. -1.
<scales pt_clust_5="13000.00000" pt_clust_6="13000.00000" pt_clust_7="13000.00000" pt_clust_8="13000.00000" pt_clust_9="105.78520"></scales>
<clustering>
<clus scale="   80.764">  5  6 -1 -1</clus>
<clus scale="   84.048">  1  5  2 -1</clus>
<clus scale="   91.864">  7  8 -1 -1</clus>
<clus scale="  105.785">  2  9  1 -1</clus>
<clus scale="  105.785">  2  5  1 -1</clus>
</clustering>
</event>
<event>
 9    1  0.3197504E-005  0.2104329E+03  0.7546771E-02  0.1141224E+00
         -2   -1    0    0    0  501 -0.00000000000E+00  0.00000000000E+00  0.18059365445E+03  0.18059365445E+03  0.00000000000E+00 0.  1.
         21   -1    0    0  501  502  0.00000000000E+00 -0.00000000000E+00 -0.17586622356E+03  0.17586622356E+03  0.00000000000E+00 0.  1.
        -24    2    1    2    0    0 -0.18782357473E+02  0.43284694324E+02  0.57567126168E+02  0.12090112421E+03  0.95272063608E+02 0.  0.
         23    2    1    2    0    0 -0.37899119390E+02  0.45728223226E+02  0.24244524297E+02  0.10487567832E+03  0.82968049842E+02 0.  0.
         13    1    3    3    0    0 -0.99245897465E+00 -0.27775225713E+02  0.94443358180E-01  0.27793111696E+02  0.00000000000E+00 0. -1.
        -14    1    3    3    0    0 -0.17789898498E+02  0.71059920037E+02  0.57472682810E+02  0.93108012510E+02  0.00000000000E+00 0.  1.
        -13    1    4    4    0    0 -0.24156803873E+02  0.69458305367E+02  0.10775665801E+02  0.74324439664E+02  0.00000000000E+00 0.  1.
         13    1    4    4    0    0 -0.13742315518E+02 -0.23730082141E+02  0.13468858495E+02  0.30551238656E+02  0.00000000000E+00 0. -1.
         -1    1    1    2    0  502  0.56681476863E+02 -0.89012917550E+02 -0.77084219575E+02  0.13068307548E+03  0.00000000000E+00 0.  1.
<scales pt_clust_5="13000.00000" pt_clust_6="13000.00000" pt_clust_7="13000.00000" pt_clust_8="13000.00000" pt_clust_9="105.52767"></scales>
<clustering>
<clus scale="   82.968">  7  8 -1 -1</clus>
<clus scale="   95.272">  5  6 -1 -1</clus>
<clus scale="  100.848">  5  7 -1 -1</clus>
<clus scale="  105.528">  2  9  1 -1</clus>
<clus scale="  105.528">  2  5  1 -1</clus>
</clustering>
</event>
<event>
 9    1  0.3197504E-005  0.1013071E+03  0.7546771E-02  0.1281328E+00
         -2   -1    0    0    0  501 -0.00000000000E+00  0.00000000000E+00  0.39646222829E+03  0.39646222829E+03  0.00000000000E+00 0.  1.
         21   -1    0    0  501  502  0.00000000000E+00 -0.00000000000E+00 -0.40172395749E+02  0.40172395749E+02  0.00000000000E+00 0. -1.
        -24    2    1    2    0    0  0.38661943931E+02 -0.43228073256E+02  0.23803328717E+03  0.25793534400E+03  0.80668355987E+02 0.  0.
         23    2    1    2    0    0 -0.87653212289E+01  0.25795800966E+02  0.58754338910E+02  0.10986466128E+03  0.88746364731E+02 0.  0.
         11    1    3    3    0    0  0.34033125214E+01 -0.56256278025E+02  0.18147863692E+03  0.19002854262E+03  0.00000000000E+00 0. -1.
        -12    1    3    3    0    0  0.35258631409E+02  0.13028204769E+02  0.56554650254E+02  0.67906801380E+02  0.00000000000E+00 0.  1.
        -13    1    4    4    0    0 -0.70322594169E+01  0.54221218183E+02  0.60233821201E+02  0.81348057078E+02  0.00000000000E+00 0. -1.
         13    1    4    4    0    0 -0.17330618121E+01 -0.28425417217E+02 -0.14794822910E+01  0.28516604199E+02  0.00000000000E+00 0.  1.
         -1    1    1    2    0  502 -0.29896622702E+02  0.17432272290E+02  0.59502206455E+02  0.68834618755E+02  0.00000000000E+00 0.  1.
<scales pt_clust_5="13000.00000" pt_clust_6="13000.00000" pt_clust_7="13000.00000" pt_clust_8="13000.00000" pt_clust_9="34.60771"></scales>
<clustering>
<clus scale="   34.608">  2  9  1 -1</clus>
<clus scale="   80.668">  5  6 -1 -1</clus>
<clus scale="   88.746">  7  8 -1 -1</clus>
<clus scale="   94.311">  1  5  2 -1</clus>
<clus scale="   34.608">  2  5  1 -1</clus>
</clustering>
</event>
<event>
 9    1  0.3197504E-005  0.2321197E+03  0.7546771E-02  0.1127976E+00
          1   -1    0    0  502    0 -0.00000000000E+00  0.00000000000E+00  0.36611298613E+03  0.36611298613E+03  0.00000000000E+00 0. -1.
         21   -1    0    0  501  502  0.00000000000E+00 -0.00000000000E+00 -0.32418569249E+03  0.32418569249E+03  0.00000000000E+00 0. -1.
         23    2    1    2    0    0 -0.15493594718E+03  0.55382138080E+02 -0.47222266832E+02  0.20691353126E+03  0.11623656045E+03 0.  0.
        -24    2    1    2    0    0  0.26055547631E+03  0.38086104404E+02 -0.55965907616E+02  0.28102335164E+03  0.80636429543E+02 0.  0.
         11    1    4    4    0    0  0.15572436816E+03  0.36910351538E+02  0.43026743407E+01  0.16009673918E+03  0.00000000000E+00 0. -1.
        -12    1    4    4    0    0  0.10483110815E+03  0.11757528661E+01 -0.60268581956E+02  0.12092661246E+03  0.00000000000E+00 0.  1.
        -11    1    3    3    0    0 -0.54099643851E+01  0.40262624136E+02  0.16272952075E+02  0.43762490630E+02  0.00000000000E+00 0.  1.
         11    1    3    3    0    0 -0.14952598280E+03  0.15119513944E+02 -0.63495218906E+02  0.16315104063E+03  0.00000000000E+00 0. -1.
          2    1    1    2  501    0 -0.10561952913E+03 -0.93468242484E+02  0.14511546809E+03  0.20236179571E+03  0.00000000000E+00 0. -1.
<scales pt_clust_5="13000.00000" pt_clust_6="13000.00000" pt_clust_7="13000.00000" pt_clust_8="13000.00000" pt_clust_9="141.03835"></scales>
<clustering>
<clus scale="   80.636">  5  6 -1 -1</clus>
<clus scale="  116.237">  7  8 -1 -1</clus>
<clus scale="  141.038">  2  9  1 -1</clus>
<clus scale="  216.497">  2  5  1 -1</clus>
<clus scale="  141.038">  2  5  1 -1</clus>
</clustering>
</event>
<event>
 9    1  0.3197504E-005  0.9659769E+02  0.7546771E-02  0.1293930E+00
         21   -1    0    0  501  502  0.00000000000E+00  0.00000000000E+00  0.80713344973E+03  0.80713344973E+03  0.00000000000E+00 0. -1.
          3   -1    0    0  502    0 -0.00000000000E+00 -0.00000000000E+00 -0.20235578377E+02  0.20235578377E+02  0.00000000000E+00 0. -1.
        -24    2    1    2    0    0  0.17565627583E+02  0.35362028895E+02  0.12295638204E+03  0.15165352953E+03  0.79507840950E+02 0.  0.
         23    2    1    2    0    0 -0.11687049760E+02 -0.21474189873E+01  0.47540095072E+03  0.48418142151E+03  0.91018604957E+02 0.  0.
         11    1    3    3    0    0  0.32741845079E+02 -0.10232956959E+02  0.24685224045E+02  0.42262301327E+02  0.00000000000E+00 0. -1.
        -12    1    3    3    0    0 -0.15176217496E+02  0.45594985854E+02  0.98271157998E+02  0.10939122820E+03  0.00000000000E+00 0.  1.
        -13    1    4    4    0    0 -0.43578088108E+02  0.24681070656E+02  0.25290250042E+03  0.25781365311E+03  0.00000000000E+00 0. -1.
         13    1    4    4    0    0  0.31891038347E+02 -0.26828489643E+02  0.22249845030E+03  0.22636776840E+03  0.00000000000E+00 0.  1.
          4    1    1    2  501    0 -0.58785778227E+01 -0.33214609908E+02  0.18854053859E+03  0.19153407707E+03  0.00000000000E+00 0. -1.
<scales pt_clust_5="13000.00000" pt_clust_6="13000.00000" pt_clust_7="13000.00000" pt_clust_8="13000.00000" pt_clust_9="33.73082"></scales>
<clustering>
<clus scale="   33.731">  1  9  2 -1</clus>
<clus scale="   79.508">  5  6 -1 -1</clus>
<clus scale="   85.838">  2  5  1 -1</clus>
<clus scale="   91.019">  7  8 -1 -1</clus>
<clus scale="   33.731">  1  5  2 -1</clus>
</clustering>
</event>
<event>
 9    1  0.3197504E-005  0.2688076E+03  0.7546771E-02  0.1102377E+00
         21   -1    0    0  501  502  0.00000000000E+00  0.00000000000E+00  0.12636733835E+04  0.12636733835E+04  0.00000000000E+00 0.  1.
         -4   -1    0    0    0  501 -0.00000000000E+00 -0.00000000000E+00 -0.66803271818E+02  0.66803271818E+02  0.00000000000E+00 0.  1.
         23    2    1    2    0    0 -0.17737660410E+03 -0.20139880046E+03  0.52518498388E+03  0.59667527308E+03  0.90433277639E+02 0.  0.
        -24    2    1    2    0    0  0.13754748457E+03  0.19232959418E+03  0.61510769794E+03  0.66401875664E+03  0.81568656970E+02 0.  0.
         11    1    4    4    0    0  0.12346896921E+02  0.43986861938E+02  0.56594610311E+02  0.72734034694E+02  0.00000000000E+00 0. -1.
        -12    1    4    4    0    0  0.12520058765E+03  0.14834273224E+03  0.55851308763E+03  0.59128472195E+03  0.00000000000E+00 0.  1.
        -11    1    3    3    0    0 -0.18658184172E+03 -0.18339188763E+03  0.50059906134E+03  0.56484049813E+03  0.00000000000E+00 0.  1.
         11    1    3    3    0    0  0.92052376189E+01 -0.18006912832E+02  0.24585922535E+02  0.31834774952E+02  0.00000000000E+00 0. -1.
         -3    1    1    2    0  502  0.39829119524E+02  0.90692062798E+01  0.56577429843E+02  0.69782625576E+02  0.00000000000E+00 0.  1.
<scales pt_clust_5="13000.00000" pt_clust_6="13000.00000" pt_clust_7="13000.00000" pt_clust_8="13000.00000" pt_clust_9="40.84863"></scales>
<clustering>
<clus scale="   40.849">  1  9  2 -1</clus>
<clus scale="   81.569">  5  6 -1 -1</clus>
<clus scale="   90.433">  7  8 -1 -1</clus>
<clus scale="  265.956">  1  5  2 -1</clus>
<clus scale="   40.849">  1  5  2 -1</clus>
</clustering>
</event>
<event>
 9    1  0.3197504E-005  0.9694767E+02  0.7546771E-02  0.1295301E+00
         -4   -1    0    0    0  501 -0.00000000000E+00  0.00000000000E+00  0.48926265241E+03  0.48926265241E+03  0.00000000000E+00 0.  1.
         21   -1    0    0  501  502  0.00000000000E+00 -0.00000000000E+00 -0.41569903637E+02  0.41569903637E+02  0.00000000000E+00 0.  1.
         23    2    1    2    0    0 -0.19131312696E+01 -0.26772539687E+02  0.24971897189E+03  0.26800675397E+03  0.93528745821E+02 0.  0.
        -24    2    1    2    0    0 -0.49699016740E+02 -0.90942790452E+00  0.17810625040E+03  0.20098064253E+03  0.78743653173E+02 0.  0.
         13    1    4    4    0    0 -0.19003457637E+02 -0.21263676672E+02  0.12170200719E+02  0.31006275709E+02  0.00000000000E+00 0. -1.
        -14    1    4    4    0    0 -0.30695559103E+02  0.20354248768E+02  0.16593604968E+03  0.16997436682E+03  0.00000000000E+00 0.  1.
        -13    1    3    3    0    0 -0.30352902195E+02  0.21195181658E+02  0.62319815134E+02  0.72486507404E+02  0.00000000000E+00 0.  1.
         13    1    3    3    0    0  0.28439770926E+02 -0.47967721346E+02  0.18739915676E+03  0.19552024656E+03  0.00000000000E+00 0. -1.
         -3    1    1    2    0  502  0.51612148009E+02  0.27681967592E+02  0.19867526479E+02  0.61845159554E+02  0.00000000000E+00 0.  1.
<scales pt_clust_5="13000.00000" pt_clust_6="13000.00000" pt_clust_7="13000.00000" pt_clust_8="13000.00000" pt_clust_9="58.56710"></scales>
<clustering>
<clus scale="   58.567">  2  9  1 -1</clus>
<clus scale="   78.744">  5  6 -1 -1</clus>
<clus scale="   82.776">  2  5  1 -1</clus>
<clus scale="   93.529">  7  8 -1 -1</clus>
<clus scale="   58.567">  2  5  1 -1</clus>
</clustering>
</event>
<event>
 9    1  0.3197504E-005  0.1562440E+03  0.7546771E-02  0.1194669E+00
         21   -1    0    0  501  502  0.00000000000E+00  0.00000000000E+00  0.37980042335E+03  0.37980042335E+03  0.00000000000E+00 0.  1.
          1   -1    0    0  502    0 -0.00000000000E+00 -0.00000000000E+00 -0.10531778192E+03  0.10531778192E+03  0.00000000000E+00 0. -1.
        -24    2    1    2    0    0  0.18041744039E+02 -0.12690544441E+03  0.49002332845E+02  0.15922704533E+03  0.80755971870E+02 0.  0.
         23    2    1    2    0    0 -0.71886006279E+02  0.11213494964E+03  0.21558598934E+03  0.26918781220E+03  0.90790498433E+02 0.  0.
         13    1    3    3    0    0  0.16918468436E+02 -0.93555621589E+02 -0.55976815577E+01  0.95237718074E+02  0.00000000000E+00 0. -1.
        -14    1    3    3    0    0  0.11232756033E+01 -0.33349822817E+02  0.54600014403E+02  0.63989327257E+02  0.00000000000E+00 0.  1.
        -13    1    4    4    0    0 -0.93214721842E+02  0.83012190932E+02  0.17364132017E+03  0.21384881642E+03  0.00000000000E+00 0.  1.
         13    1    4    4    0    0  0.21328715563E+02  0.29122758708E+02  0.41944669168E+02  0.55338995780E+02  0.00000000000E+00 0. -1.
          2    1    1    2  501    0  0.53844262240E+02  0.14770494765E+02  0.98943192369E+01  0.56703347740E+02  0.00000000000E+00 0. -1.
<scales pt_clust_5="13000.00000" pt_clust_6="13000.00000" pt_clust_7="13000.00000" pt_clust_8="13000.00000" pt_clust_9="55.83346"></scales>
<clustering>
<clus scale="   55.833">  1  9  2 -1</clus>
<clus scale="   80.756">  5  6 -1 -1</clus>
<clus scale="   90.790">  7  8 -1 -1</clus>
<clus scale="  150.635">  2  5  1 -1</clus>
<clus scale="   55.833">  1  5  2 -1</clus>
</clustering>
</event>
<event>
 9    1  0.3197504E-005  0.8831482E+02  0.7546771E-02  0.1307686E+00
          1   -1    0    0  502    0 -0.00000000000E+00  0.00000000000E+00  0.23034674829E+03  0.23034674829E+03  0.00000000000E+00 0. -1.
         21   -1    0    0  501  502  0.00000000000E+00 -0.00000000000E+00 -0.21078399730E+03  0.21078399730E+03  0.00000000000E+00 0. -1.
        -24    2    1    2    0    0 -0.17218357073E+02  0.43552801096E+02  0.15529797617E+03  0.18199857066E+03  0.82539081738E+02 0.  0.
         23    2    1    2    0    0 -0.31663075763E+02  0.22565954095E+02  0.89190438398E+01  0.92741244266E+02  0.83723451875E+02 0.  0.
         13    1    3    3    0    0  0.14767218694E+02  0.40569615398E+02  0.13983150040E+03  0.14634484256E+03  0.00000000000E+00 0. -1.
        -14    1    3    3    0    0 -0.31985575767E+02  0.29831856974E+01  0.15466475776E+02  0.35653728094E+02  0.00000000000E+00 0.  1.
        -13    1    4    4    0    0 -0.38202690474E+02 -0.33069939542E+01 -0.27790145966E+02  0.47356878923E+02  0.00000000000E+00 0. -1.
         13    1    4    4    0    0  0.65396147111E+01  0.25872948049E+02  0.36709189806E+02  0.45384365343E+02  0.00000000000E+00 0.  1.
          2    1    1    2  501    0  0.48881432837E+02 -0.66118755191E+02 -0.14465426902E+03  0.16639093067E+03  0.00000000000E+00 0. -1.
<scales pt_clust_5="13000.00000" pt_clust_6="13000.00000" pt_clust_7="13000.00000" pt_clust_8="13000.00000" pt_clust_9="82.22581"></scales>
<clustering>
<clus scale="   82.226">  2  9  1 -1</clus>
<clus scale="   82.539">  5  6 -1 -1</clus>
<clus scale="   83.723">  7  8 -1 -1</clus>
<clus scale="   87.193">  1  5  2 -1</clus>
<clus scale="   82.226">  2  5  1 -1</clus>
</clustering>
</event>
<event>
 9    1  0.3197504E-005  0.5405538E+03  0.7546771E-02  0.1003704E+00
         21   -1    0    0  501  502  0.00000000000E+00  0.00000000000E+00  0.30057337932E+03  0.30057337932E+03  0.00000000000E+00 0. -1.
          1   -1    0    0  502    0 -0.00000000000E+00 -0.00000000000E+00 -0.95097157042E+03  0.95097157042E+03  0.00000000000E+00 0. -1.
        -24    2    1    2    0    0  0.59174519087E+02  0.89311383052E+02 -0.92358469346E+02  0.16261655462E+03  0.80224124341E+02 0.  0.
         23    2    1    2    0    0  0.84160805487E+02  0.38554031796E+03 -0.39942826980E+03  0.56817245812E+03  0.86905819696E+02 0.  0.
         11    1    3    3    0    0  0.62795704221E+02  0.95324541275E+02 -0.10034472998E+03  0.15198399084E+03  0.00000000000E+00 0. -1.
        -12    1    3    3    0    0 -0.36211851334E+01 -0.60131582225E+01  0.79862606369E+01  0.10632563780E+02  0.00000000000E+00 0.  1.
        -13    1    4    4    0    0  0.45168939828E+02  0.25140289110E+03 -0.19865746908E+03  0.32358683039E+03  0.00000000000E+00 0.  1.
         13    1    4    4    0    0  0.38991865659E+02  0.13413742687E+03 -0.20077080072E+03  0.24458562774E+03  0.00000000000E+00 0. -1.
          2    1    1    2  501    0 -0.14333532457E+03 -0.47485170102E+03 -0.15861145195E+03  0.52075593700E+03  0.00000000000E+00 0. -1.
<scales pt_clust_5="13000.00000" pt_clust_6="13000.00000" pt_clust_7="13000.00000" pt_clust_8="13000.00000" pt_clust_9="496.01326"></scales>
<clustering>
<clus scale="   80.224">  5  6 -1 -1</clus>
<clus scale="   86.906">  7  8 -1 -1</clus>
<clus scale="   98.278">  5  7 -1 -1</clus>
<clus scale="  496.013">  1  9  2 -1</clus>
<clus scale="  496.013">  1  5  2 -1</clus>
</clustering>
</event>
<event>
 9    1  0.3197504E-005  0.1056969E+03  0.7546771E-02  0.1272844E+00
         -2   -1    0    0    0  501 -0.00000000000E+00  0.00000000000E+00  0.18987436023E+03  0.18987436023E+03  0.00000000000E+00 0.  1.
         21   -1    0    0  501  502  0.00000000000E+00 -0.00000000000E+00 -0.11703270778E+03  0.11703270778E+03  0.00000000000E+00 0.  1.
        -24    2    1    2    0    0  0.61264899874E+01 -0.63242821516E+02  0.10077726747E+03  0.14447810332E+03  0.81735404490E+02 0.  0.
         23    2    1    2    0    0 -0.39330645624E+02  0.22917528467E+02  0.25592539735E+01  0.10194274935E+03  0.91179282563E+02 0.  0.
         11    1    3    3    0    0 -0.27035613420E+02 -0.28204657203E+01  0.69516442150E+01  0.28057169800E+02  0.00000000000E+00 0. -1.
        -12    1    3    3    0    0  0.33162103408E+02 -0.60422355796E+02  0.93825623255E+02  0.11642093352E+03  0.00000000000E+00 0.  1.
        -13    1    4    4    0    0 -0.63521744875E+02  0.14954330974E+01 -0.14831416201E+02  0.65247370052E+02  0.00000000000E+00 0.  1.
         13    1    4    4    0    0  0.24191099251E+02  0.21422095370E+02  0.17390670175E+02  0.36695379302E+02  0.00000000000E+00 0. -1.
         -1    1    1    2    0  502  0.33204155637E+02  0.40325293049E+02 -0.30494868987E+02  0.60486215335E+02  0.00000000000E+00 0.  1.
<scales pt_clust_5="13000.00000" pt_clust_6="13000.00000" pt_clust_7="13000.00000" pt_clust_8="13000.00000" pt_clust_9="52.23644"></scales>
<clustering>
<clus scale="   52.236">  2  9  1 -1</clus>
<clus scale="   81.735">  5  6 -1 -1</clus>
<clus scale="   91.179">  7  8 -1 -1</clus>
<clus scale="   97.667">  1  5  2 -1</clus>
<clus scale="   52.236">  2  5  1 -1</clus>
</clustering>
</event>
<event>
 9    1  0.3197504E-005  0.1011601E+03  0.7546771E-02  0.1281504E+00
         21   -1    0    0  501  502  0.00000000000E+00  0.00000000000E+00  0.21038576712E+03  0.21038576712E+03  0.00000000000E+00 0.  1.
         -2   -1    0    0    0  501 -0.00000000000E+00 -0.00000000000E+00 -0.75855159659E+02  0.75855159659E+02  0.00000000000E+00 0.  1.
        -24    2    1    2    0    0 -0.71351047441E+01 -0.65589078826E+02  0.36758968201E+02  0.11270668093E+03  0.83658455658E+02 0.  0.
         23    2    1    2    0    0  0.30335656271E+01  0.15594134524E+02  0.71006357029E+02  0.11667743084E+03  0.91210419240E+02 0.  0.
         11    1    3    3    0    0 -0.33966353320E+02 -0.46561705489E+02  0.50909278866E+02  0.76899026331E+02  0.00000000000E+00 0. -1.
        -12    1    3    3    0    0  0.26831248576E+02 -0.19027373337E+02 -0.14150310665E+02  0.35807654604E+02  0.00000000000E+00 0.  1.
        -13    1    4    4    0    0  0.16156633392E+02  0.40739143076E+02  0.76140856605E+02  0.87852971638E+02  0.00000000000E+00 0.  1.
         13    1    4    4    0    0 -0.13123067765E+02 -0.25145008552E+02 -0.51344995760E+01  0.28824459206E+02  0.00000000000E+00 0. -1.
         -1    1    1    2    0  502  0.41015391171E+01  0.49994944302E+02  0.26765282230E+02  0.56856814998E+02  0.00000000000E+00 0.  1.
<scales pt_clust_5="13000.00000" pt_clust_6="13000.00000" pt_clust_7="13000.00000" pt_clust_8="13000.00000" pt_clust_9="50.16291"></scales>
<clustering>
<clus scale="   50.163">  1  9  2 -1</clus>
<clus scale="   83.658">  5  6 -1 -1</clus>
<clus scale="   91.210">  7  8 -1 -1</clus>
<clus scale="   94.407">  2  5  1 -1</clus>
<clus scale="   50.163">  1  5  2 -1</clus>
</clustering>
</event>
<event>
 9    1  0.3197504E-005  0.1244183E+03  0.7546771E-02  0.1244657E+00
          1   -1    0    0  502    0 -0.00000000000E+00  0.00000000000E+00  0.19519025905E+03  0.19519025905E+03  0.00000000000E+00 0. -1.
         21   -1    0    0  501  502  0.00000000000E+00 -0.00000000000E+00 -0.21263997900E+03  0.21263997900E+03  0.00000000000E+00 0. -1.
         23    2    1    2    0    0  0.30709769535E+02 -0.56754162340E+02  0.13645282295E+03  0.18399453589E+03  0.10521640299E+03 0.  0.
        -24    2    1    2    0    0 -0.73976742722E+01  0.85047684788E+02 -0.14423808394E+03  0.18592292113E+03  0.80466598481E+02 0.  0.
         13    1    4    4    0    0  0.31278274769E+02  0.64711238035E+02 -0.73681991053E+02  0.10293158216E+03  0.00000000000E+00 0. -1.
        -14    1    4    4    0    0 -0.38675949041E+02  0.20336446753E+02 -0.70556092890E+02  0.82991338974E+02  0.00000000000E+00 0.  1.
        -11    1    3    3    0    0  0.13268301236E+01  0.30104256304E+02  0.21837020987E+02  0.37214005581E+02  0.00000000000E+00 0.  1.
         11    1    3    3    0    0  0.29382939411E+02 -0.86858418644E+02  0.11461580197E+03  0.14678053031E+03  0.00000000000E+00 0. -1.
          2    1    1    2  501    0 -0.23312095262E+02 -0.28293522448E+02 -0.96644589539E+01  0.37912781023E+02  0.00000000000E+00 0. -1.
<scales pt_clust_5="13000.00000" pt_clust_6="13000.00000" pt_clust_7="13000.00000" pt_clust_8="13000.00000" pt_clust_9="36.66029"></scales>
<clustering>
<clus scale="   36.660">  2  9  1 -1</clus>
<clus scale="   80.467">  5  6 -1 -1</clus>
<clus scale="  104.328">  2  5  1 -1</clus>
<clus scale="  105.216">  7  8 -1 -1</clus>
<clus scale="   36.660">  2  5  1 -1</clus>
</clustering>
</event>
<event>
 9    1  0.3197504E-005  0.1541543E+03  0.7546771E-02  0.1197983E+00
          3   -1    0    0  502    0 -0.00000000000E+00  0.00000000000E+00  0.32481863870E+03  0.32481863870E+03  0.00000000000E+00 0. -1.
         21   -1    0    0  501  502  0.00000000000E+00 -0.00000000000E+00 -0.10104276477E+03  0.10104276477E+03  0.00000000000E+00 0. -1.
        -24    2    1    2    0    0 -0.27963474817E+02  0.13471314382E+03  0.15322416625E+03  0.22093277781E+03  0.80025371876E+02 0.  0.
         23    2    1    2    0    0  0.36318876458E+02 -0.89158659814E+02  0.19733585179E+02  0.13617176910E+03  0.94260325214E+02 0.  0.
         13    1    3    3    0    0 -0.56108302141E+02  0.90159717644E+02  0.96213477777E+02  0.14329671860E+03  0.00000000000E+00 0. -1.
        -14    1    3    3    0    0  0.28144827324E+02  0.44553426178E+02  0.57010688475E+02  0.77636059211E+02  0.00000000000E+00 0.  1.
        -11    1    4    4    0    0  0.57685019727E+02 -0.95204805722E+02  0.94996648980E+01  0.11172179808E+03  0.00000000000E+00 0. -1.
         11    1    4    4    0    0 -0.21366143269E+02  0.60461459086E+01  0.10233920281E+02  0.24449971020E+02  0.00000000000E+00 0.  1.
          4    1    1    2  501    0 -0.83554016414E+01 -0.45554484009E+02  0.50818122497E+02  0.68756856560E+02  0.00000000000E+00 0. -1.
<scales pt_clust_5="13000.00000" pt_clust_6="13000.00000" pt_clust_7="13000.00000" pt_clust_8="13000.00000" pt_clust_9="46.31442"></scales>
<clustering>
<clus scale="   46.314">  2  9  1 -1</clus>
<clus scale="   80.025">  5  6 -1 -1</clus>
<clus scale="   94.260">  7  8 -1 -1</clus>
<clus scale="  145.886">  1  5  2 -1</clus>
<clus scale="   46.314">  2  5  1 -1</clus>
</clustering>
</event>
<event>
 9    1  0.3197504E-005  0.1394220E+03  0.7546771E-02  0.1233270E+00
         21   -1    0    0  501  502  0.00000000000E+00  0.00000000000E+00  0.29594378951E+03  0.29594378951E+03  0.00000000000E+00 0. -1.
          1   -1    0    0  502    0 -0.00000000000E+00 -0.00000000000E+00 -0.38261649798E+03  0.38261649798E+03  0.00000000000E+00 0. -1.
        -24    2    1    2    0    0  0.50601878330E+01  0.46455075053E+02 -0.19454308034E+03  0.21583199966E+03  0.80949135095E+02 0.  0.
         23    2    1    2    0    0  0.95623937461E+02 -0.13506203380E+02 -0.13989091174E+03  0.19326850439E+03  0.91961365026E+02 0.  0.
         13    1    3    3    0    0 -0.23516692672E+02  0.42505212044E+02 -0.17337130940E+03  0.18004815692E+03  0.00000000000E+00 0. -1.
        -14    1    3    3    0    0  0.28576880505E+02  0.39498630090E+01 -0.21171770932E+02  0.35783842745E+02  0.00000000000E+00 0.  1.
        -13    1    4    4    0    0  0.13620765812E+02 -0.19832764598E+02 -0.98111552377E+02  0.10101851574E+03  0.00000000000E+00 0.  1.
         13    1    4    4    0    0  0.82003171649E+02  0.63265612182E+01 -0.41779359365E+02  0.92249988652E+02  0.00000000000E+00 0. -1.
          2    1    1    2  501    0 -0.10068412529E+03 -0.32948871673E+02  0.24776128361E+03  0.26945978343E+03  0.00000000000E+00 0. -1.
<scales pt_clust_5="13000.00000" pt_clust_6="13000.00000" pt_clust_7="13000.00000" pt_clust_8="13000.00000" pt_clust_9="104.79309"></scales>
<clustering>
<clus scale="   80.949">  5  6 -1 -1</clus>
<clus scale="   91.961">  7  8 -1 -1</clus>
<clus scale="   93.469">  2  5  1 -1</clus>
<clus scale="  104.793">  1  9  2 -1</clus>
<clus scale="  104.793">  1  5  2 -1</clus>
</clustering>
</event>
<event>
 9    1  0.3197504E-005  0.1389854E+03  0.7546771E-02  0.1217450E+00
          1   -1    0    0  502    0 -0.00000000000E+00  0.00000000000E+00  0.25291837398E+03  0.25291837398E+03  0.00000000000E+00 0. -1.
         21   -1    0    0  501  502  0.00000000000E+00 -0.00000000000E+00 -0.12057567103E+03  0.12057567103E+03  0.00000000000E+00 0.  1.
        -24    2    1    2    0    0  0.23763226559E+02  0.75611138049E+02  0.22607452617E+02  0.11620967861E+03  0.81925926027E+02 0.  0.
         23    2    1    2    0    0  0.18362870742E+02 -0.13152005018E+03  0.78342672362E+02  0.18056469173E+03  0.93975076303E+02 0.  0.
         11    1    3    3    0    0  0.86961217105E+01  0.39741151300E+02 -0.30165713308E+02  0.50645354168E+02  0.00000000000E+00 0. -1.
        -12    1    3    3    0    0  0.15067104848E+02  0.35869986749E+02  0.52773165924E+02  0.65564324442E+02  0.00000000000E+00 0.  1.
        -11    1    4    4    0    0  0.19808824762E+02  0.80634058344E+01  0.20491406213E+01  0.21485041992E+02  0.00000000000E+00 0. -1.
         11    1    4    4    0    0 -0.14459540201E+01 -0.13958345601E+03  0.76293531741E+02  0.15907964974E+03  0.00000000000E+00 0.  1.
          2    1    1    2  501    0 -0.42126097301E+02  0.55908912130E+02  0.31392577972E+02  0.76719674668E+02  0.00000000000E+00 0. -1.
<scales pt_clust_5="13000.00000" pt_clust_6="13000.00000" pt_clust_7="13000.00000" pt_clust_8="13000.00000" pt_clust_9="70.00300"></scales>
<clustering>
<clus scale="   70.003">  2  9  1 -1</clus>
<clus scale="   81.926">  5  6 -1 -1</clus>
<clus scale="   93.975">  7  8 -1 -1</clus>
<clus scale="  131.139">  1  5  2 -1</clus>
<clus scale="   70.003">  2  5  1 -1</clus>
</clustering>
</event>
<event>
 9    1  0.3197504E-005  0.9470321E+02  0.7546771E-02  0.1292824E+00
         -2   -1    0    0    0  501 -0.00000000000E+00  0.00000000000E+00  0.19401084599E+03  0.19401084599E+03  0.00000000000E+00 0.  1.
         21   -1    0    0  501  502  0.00000000000E+00 -0.00000000000E+00 -0.13757955023E+03  0.13757955023E+03  0.00000000000E+00 0. -1.
         23    2    1    2    0    0 -0.59168005094E+01 -0.24526822122E+02  0.73438819578E+02  0.12145576720E+03  0.93389879723E+02 0.  0.
        -24    2    1    2    0    0  0.33045092605E+02 -0.64419389272E+02  0.14995051279E+02  0.11179065326E+03  0.83847854682E+02 0.  0.
         13    1    4    4    0    0  0.23300167467E+02 -0.22412519218E+02 -0.33731448289E+02  0.46722900438E+02  0.00000000000E+00 0. -1.
        -14    1    4    4    0    0  0.97449251376E+01 -0.42006870054E+02  0.48726499567E+02  0.65067752825E+02  0.00000000000E+00 0.  1.
        -11    1    3    3    0    0 -0.16789590796E+02 -0.54724237174E+02  0.68029249807E+02  0.88907881106E+02  0.00000000000E+00 0.  1.
         11    1    3    3    0    0  0.10872790287E+02  0.30197415052E+02  0.54095697704E+01  0.32547886099E+02  0.00000000000E+00 0. -1.
         -1    1    1    2    0  502 -0.27128292095E+02  0.88946211394E+02 -0.32002575105E+02  0.98343975753E+02  0.00000000000E+00 0.  1.
<scales pt_clust_5="13000.00000" pt_clust_6="13000.00000" pt_clust_7="13000.00000" pt_clust_8="13000.00000" pt_clust_9="92.99125"></scales>
<clustering>
<clus scale="   83.848">  5  6 -1 -1</clus>
<clus scale="   92.991">  2  9  1 -1</clus>
<clus scale="   92.991">  2  5  1 -1</clus>
<clus scale="   93.390">  7  8 -1 -1</clus>
<clus scale="   92.991">  2  5  1 -1</clus>
</clustering>
</event>
<event>
 9    1  0.3197504E-005  0.1213424E+03  0.7546771E-02  0.1253369E+00
         -2   -1    0    0    0  501 -0.00000000000E+00  0.00000000000E+00  0.12143875119E+04  0.12143875119E+04  0.00000000000E+00 0.  1.
         21   -1    0    0  501  502  0.00000000000E+00 -0.00000000000E+00 -0.34921462231E+02  0.34921462231E+02  0.00000000000E+00 0.  1.
        -24    2    1    2    0    0  0.51512826275E+02  0.25694964383E+02  0.90763664653E+03  0.91300241234E+03  0.80345008215E+02 0.  0.
         23    2    1    2    0    0 -0.15214604647E+02  0.42589874723E+02  0.18207182626E+03  0.21782954819E+03  0.11069860217E+03 0.  0.
         11    1    3    3    0    0  0.21029495729E+02 -0.22424928477E+02  0.14404785862E+03  0.14729189618E+03  0.00000000000E+00 0. -1.
        -12    1    3    3    0    0  0.30483330546E+02  0.48119892861E+02  0.76358878791E+03  0.76571051616E+03  0.00000000000E+00 0.  1.
        -13    1    4    4    0    0  0.51364914307E+01  0.58765463127E+02  0.18253380394E+03  0.19182896752E+03  0.00000000000E+00 0.  1.
         13    1    4    4    0    0 -0.20351096078E+02 -0.16175588403E+02 -0.46197767500E+00  0.26000580669E+02  0.00000000000E+00 0. -1.
         -1    1    1    2    0  502 -0.36298221627E+02 -0.68284839107E+02  0.89757576872E+02  0.11847701360E+03  0.00000000000E+00 0.  1.
<scales pt_clust_5="13000.00000" pt_clust_6="13000.00000" pt_clust_7="13000.00000" pt_clust_8="13000.00000" pt_clust_9="77.33292"></scales>
<clustering>
<clus scale="   77.333">  2  9  1 -1</clus>
<clus scale="   80.345">  5  6 -1 -1</clus>
<clus scale="   94.473">  1  5  2 -1</clus>
<clus scale="  110.699">  7  8 -1 -1</clus>
<clus scale="   77.333">  2  5  1 -1</clus>
</clustering>
</event>
<event>
 9    1  0.3197504E-005  0.2843825E+03  0.7546771E-02  0.1136114E+00
          3   -1    0    0  502    0 -0.00000000000E+00  0.00000000000E+00  0.16807223731E+03  0.16807223731E+03  0.00000000000E+00 0. -1.
         21   -1    0    0  501  502  0.00000000000E+00 -0.00000000000E+00 -0.67239423225E+03  0.67239423225E+03  0.00000000000E+00 0.  1.
        -24    2    1    2    0    0  0.54964962491E+02 -0.76257787417E+01 -0.27558559563E+02  0.10033147636E+03  0.78915342865E+02 0.  0.
         23    2    1    2    0    0  0.21934887042E+03 -0.11487651038E+03 -0.25597298716E+03  0.36730351413E+03  0.89884157380E+02 0.  0.
         13    1    3    3    0    0  0.67668369278E+02 -0.70588214091E+01 -0.42879700213E+02  0.80420792403E+02  0.00000000000E+00 0. -1.
        -14    1    3    3    0    0 -0.12703406787E+02 -0.56695733259E+00  0.15321140650E+02  0.19910683952E+02  0.00000000000E+00 0.  1.
        -13    1    4    4    0    0  0.10316649132E+03 -0.38513066189E+02 -0.17396057594E+03  0.20588555846E+03  0.00000000000E+00 0.  1.
         13    1    4    4    0    0  0.11618237909E+03 -0.76363444189E+02 -0.82012411219E+02  0.16141795567E+03  0.00000000000E+00 0. -1.
          4    1    1    2  501    0 -0.27431383291E+03  0.12250228912E+03 -0.22079044822E+03  0.37283147907E+03  0.00000000000E+00 0. -1.
<scales pt_clust_5="13000.00000" pt_clust_6="13000.00000" pt_clust_7="13000.00000" pt_clust_8="13000.00000" pt_clust_9="269.80424"></scales>
<clustering>
<clus scale="   78.915">  5  6 -1 -1</clus>
<clus scale="   89.884">  7  8 -1 -1</clus>
<clus scale="   96.472">  1  5  2 -1</clus>
<clus scale="  269.804">  2  9  1 -1</clus>
<clus scale="  269.804">  2  5  1 -1</clus>
</clustering>
</event>
<event>
 9    1  0.3197504E-005  0.9200815E+02  0.7546771E-02  0.1305217E+00
         -4   -1    0    0    0  501 -0.00000000000E+00  0.00000000000E+00  0.32682335764E+03  0.32682335764E+03  0.00000000000E+00 0.  1.
         21   -1    0    0  501  502  0.00000000000E+00 -0.00000000000E+00 -0.10000815326E+03  0.10000815326E+03  0.00000000000E+00 0.  1.
        -24    2    1    2    0    0  0.10167605169E+02 -0.14297930631E+02  0.25640273832E+03  0.26911668366E+03  0.79834918384E+02 0.  0.
         23    2    1    2    0    0  0.22449944350E+02 -0.25858506692E+02  0.12196343491E+01  0.97502489524E+02  0.91282997243E+02 0.  0.
         11    1    3    3    0    0  0.97911467515E+01  0.22648037319E+02  0.26284002693E+02  0.36050644192E+02  0.00000000000E+00 0. -1.
        -12    1    3    3    0    0  0.37645841720E+00 -0.36945967950E+02  0.23011873563E+03  0.23306603947E+03  0.00000000000E+00 0.  1.
        -13    1    4    4    0    0  0.30273237193E+02  0.12298017715E+02 -0.32424732915E+02  0.46033394774E+02  0.00000000000E+00 0.  1.
         13    1    4    4    0    0 -0.78232928428E+01 -0.38156524408E+02  0.33644367264E+02  0.51469094750E+02  0.00000000000E+00 0. -1.
         -3    1    1    2    0  502 -0.32617549519E+02  0.40156437323E+02 -0.30807168293E+02  0.60212337716E+02  0.00000000000E+00 0.  1.
<scales pt_clust_5="13000.00000" pt_clust_6="13000.00000" pt_clust_7="13000.00000" pt_clust_8="13000.00000" pt_clust_9="51.73436"></scales>
<clustering>
<clus scale="   51.734">  2  9  1 -1</clus>
<clus scale="   79.835">  5  6 -1 -1</clus>
<clus scale="   80.663">  1  5  2 -1</clus>
<clus scale="   91.283">  7  8 -1 -1</clus>
<clus scale="   51.734">  2  5  1 -1</clus>
</clustering>
</event>
<event>
 9    1  0.3197504E-005  0.1522280E+03  0.7546771E-02  0.1214554E+00
          1   -1    0    0  502    0 -0.00000000000E+00  0.00000000000E+00  0.26101503755E+03  0.26101503755E+03  0.00000000000E+00 0. -1.
         21   -1    0    0  501  502  0.00000000000E+00 -0.00000000000E+00 -0.18568535757E+03  0.18568535757E+03  0.00000000000E+00 0. -1.
        -24    2    1    2    0    0 -0.11121452819E+02 -0.68376981140E+02 -0.31466349282E+01  0.10615446107E+03  0.80372694566E+02 0.  0.
         23    2    1    2    0    0 -0.11873333447E+03  0.18697932406E+02 -0.41868416335E+02  0.15666247094E+03  0.91339740117E+02 0.  0.
         13    1    3    3    0    0 -0.16492229908E+02 -0.50796153421E+02  0.34969766542E+02  0.63836724710E+02  0.00000000000E+00 0. -1.
        -14    1    3    3    0    0  0.53707770892E+01 -0.17580827719E+02 -0.38116401470E+02  0.42317736363E+02  0.00000000000E+00 0.  1.
        -13    1    4    4    0    0 -0.37764656256E+02  0.51171588157E+02 -0.20846233034E+02  0.66927319745E+02  0.00000000000E+00 0.  1.
         13    1    4    4    0    0 -0.80968678216E+02 -0.32473655751E+02 -0.21022183301E+02  0.89735151198E+02  0.00000000000E+00 0. -1.
          2    1    1    2  501    0  0.12985478729E+03  0.49679048734E+02  0.12034473125E+03  0.18388346311E+03  0.00000000000E+00 0. -1.
<scales pt_clust_5="13000.00000" pt_clust_6="13000.00000" pt_clust_7="13000.00000" pt_clust_8="13000.00000" pt_clust_9="121.78020"></scales>
<clustering>
<clus scale="   80.373">  5  6 -1 -1</clus>
<clus scale="   91.340">  7  8 -1 -1</clus>
<clus scale="  106.108">  1  5  2 -1</clus>
<clus scale="  121.780">  2  9  1 -1</clus>
<clus scale="  121.780">  2  5  1 -1</clus>
</clustering>
</event>
<event>
 9    1  0.3197504E-005  0.9249901E+02  0.7546771E-02  0.1302667E+00
         21   -1    0    0  501  502  0.00000000000E+00  0.00000000000E+00  0.13748424400E+03  0.13748424400E+03  0.00000000000E+00 0.  1.
         -2   -1    0    0    0  501 -0.00000000000E+00 -0.00000000000E+00 -0.18648995269E+03  0.18648995269E+03  0.00000000000E+00 0.  1.
        -24    2    1    2    0    0  0.75154561020E+01 -0.33948470255E+02 -0.60119048788E+02  0.10492590619E+03  0.78652177650E+02 0.  0.
         23    2    1    2    0    0  0.33377420454E+02 -0.52508001452E+01  0.84113894308E+02  0.12664758125E+03  0.88446817486E+02 0.  0.
         13    1    3    3    0    0 -0.21043991348E+02 -0.39475302638E+02 -0.61212146048E+02  0.75816066332E+02  0.00000000000E+00 0. -1.
        -14    1    3    3    0    0  0.28559447450E+02  0.55268323829E+01  0.10930972595E+01  0.29109839856E+02  0.00000000000E+00 0.  1.
        -11    1    4    4    0    0  0.48972547129E+02 -0.31752109781E+02  0.33140961393E+02  0.67118031630E+02  0.00000000000E+00 0. -1.
         11    1    4    4    0    0 -0.15595126675E+02  0.26501309635E+02  0.50972932915E+02  0.59529549624E+02  0.00000000000E+00 0.  1.
         -1    1    1    2    0  502 -0.40892876556E+02  0.39199270401E+02 -0.73000554212E+02  0.92400709241E+02  0.00000000000E+00 0.  1.
<scales pt_clust_5="13000.00000" pt_clust_6="13000.00000" pt_clust_7="13000.00000" pt_clust_8="13000.00000" pt_clust_9="56.64639"></scales>
<clustering>
<clus scale="   56.646">  1  9  2 -1</clus>
<clus scale="   78.652">  5  6 -1 -1</clus>
<clus scale="   83.183">  2  5  1 -1</clus>
<clus scale="   88.447">  7  8 -1 -1</clus>
<clus scale="   56.646">  1  5  2 -1</clus>
</clustering>
</event>
<event>
 9    1  0.3197504E-005  0.2359976E+03  0.7546771E-02  0.1122811E+00
         21   -1    0    0  501  502  0.00000000000E+00  0.00000000000E+00  0.13361238909E+03  0.13361238909E+03  0.00000000000E+00 0. -1.
         -2   -1    0    0    0  501 -0.00000000000E+00 -0.00000000000E+00 -0.61829917713E+03  0.61829917713E+03  0.00000000000E+00 0.  1.
        -24    2    1    2    0    0  0.64887450523E+01  0.21928361592E+03 -0.24536064408E+03  0.33883004822E+03  0.80477002238E+02 0.  0.
         23    2    1    2    0    0 -0.50249804610E+02 -0.21771411347E+03 -0.87139784786E+02  0.25472059609E+03  0.85818191028E+02 0.  0.
         11    1    3    3    0    0  0.27503175710E+02  0.23622345070E+02 -0.29572556491E+02  0.46786493331E+02  0.00000000000E+00 0. -1.
        -12    1    3    3    0    0 -0.21014430658E+02  0.19566127085E+03 -0.21578808759E+03  0.29204355489E+03  0.00000000000E+00 0.  1.
        -11    1    4    4    0    0 -0.17555708721E+02 -0.14493916761E+03 -0.95566812036E+02  0.17449521707E+03  0.00000000000E+00 0. -1.
         11    1    4    4    0    0 -0.32694095888E+02 -0.72774945857E+02  0.84270272502E+01  0.80225379019E+02  0.00000000000E+00 0.  1.
         -1    1    1    2    0  502  0.43761059557E+02 -0.15695024509E+01 -0.15218635917E+03  0.15836092191E+03  0.00000000000E+00 0.  1.
<scales pt_clust_5="13000.00000" pt_clust_6="13000.00000" pt_clust_7="13000.00000" pt_clust_8="13000.00000" pt_clust_9="43.78922"></scales>
<clustering>
<clus scale="   43.789">  1  9  2 -1</clus>
<clus scale="   80.477">  5  6 -1 -1</clus>
<clus scale="   85.818">  7  8 -1 -1</clus>
<clus scale="  234.108">  2  5  1 -1</clus>
<clus scale="   43.789">  1  5  2 -1</clus>
</clustering>
</event>
<event>
 9    1  0.3197504E-005  0.1137041E+03  0.7546771E-02  0.1257691E+00
          1   -1    0    0  502    0 -0.00000000000E+00  0.00000000000E+00  0.35870417018E+03  0.35870417018E+03  0.00000000000E+00 0. -1.
         21   -1    0    0  501  502  0.00000000000E+00 -0.00000000000E+00 -0.86469976638E+02  0.86469976638E+02  0.00000000000E+00 0. -1.
         23    2    1    2    0    0  0.75159855764E+02 -0.25975711592E+02  0.17439216384E+03  0.21145247926E+03  0.89307237480E+02 0.  0.
        -24    2    1    2    0    0 -0.64606329540E+01  0.89136092511E+02  0.53800913279E+02  0.13053040403E+03  0.78464420855E+02 0.  0.
         11    1    4    4    0    0 -0.14019566544E+01  0.10058082180E+03  0.32292368557E+02  0.10564688478E+03  0.00000000000E+00 0. -1.
        -12    1    4    4    0    0 -0.50586762996E+01 -0.11444729286E+02  0.21508544722E+02  0.24883519253E+02  0.00000000000E+00 0.  1.
        -11    1    3    3    0    0  0.24413203669E+02  0.28629889545E+02  0.27094333616E+02  0.46365698559E+02  0.00000000000E+00 0.  1.
         11    1    3    3    0    0  0.50746652095E+02 -0.54605601137E+02  0.14729783022E+03  0.16508678070E+03  0.00000000000E+00 0. -1.
          2    1    1    2  501    0 -0.68699222810E+02 -0.63160380919E+02  0.44041116426E+02  0.10319126353E+03  0.00000000000E+00 0. -1.
<scales pt_clust_5="13000.00000" pt_clust_6="13000.00000" pt_clust_7="13000.00000" pt_clust_8="13000.00000" pt_clust_9="93.32104"></scales>
<clustering>
<clus scale="   78.464">  5  6 -1 -1</clus>
<clus scale="   89.307">  7  8 -1 -1</clus>
<clus scale="   93.321">  2  9  1 -1</clus>
<clus scale="  105.402">  2  5  1 -1</clus>
<clus scale="   93.321">  2  5  1 -1</clus>
</clustering>
</event>
<event>
 9    1  0.3197504E-005  0.9106026E+02  0.7546771E-02  0.1305185E+00
         21   -1    0    0  501  502  0.00000000000E+00  0.00000000000E+00  0.43991645827E+02  0.43991645827E+02  0.00000000000E+00 0. -1.
          1   -1    0    0  502    0 -0.00000000000E+00 -0.00000000000E+00 -0.21771688590E+03  0.21771688590E+03  0.00000000000E+00 0. -1.
         23    2    1    2    0    0  0.65537755655E+01 -0.61614115502E+01 -0.81312886060E+02  0.12181886693E+03  0.90261486436E+02 0.  0.
        -24    2    1    2    0    0  0.10395353533E+02  0.17079754656E+02 -0.76814836827E+02  0.11439916194E+03  0.82382447783E+02 0.  0.
         11    1    4    4    0    0  0.33952858581E+02  0.11733752628E+02 -0.82149562364E+02  0.89660627665E+02  0.00000000000E+00 0. -1.
        -12    1    4    4    0    0 -0.23557505048E+02  0.53460020277E+01  0.53347255370E+01  0.24738534280E+02  0.00000000000E+00 0.  1.
        -11    1    3    3    0    0  0.38996826000E+02 -0.17267204214E+02 -0.11709627733E+02  0.44226961925E+02  0.00000000000E+00 0. -1.
         11    1    3    3    0    0 -0.32443050435E+02  0.11105792664E+02 -0.69603258327E+02  0.77591905002E+02  0.00000000000E+00 0.  1.
          2    1    1    2  501    0 -0.16949129098E+02 -0.10918343106E+02 -0.15597517184E+02  0.25490502852E+02  0.00000000000E+00 0. -1.
<scales pt_clust_5="13000.00000" pt_clust_6="13000.00000" pt_clust_7="13000.00000" pt_clust_8="13000.00000" pt_clust_9="20.16143"></scales>
<clustering>
<clus scale="   20.161">  1  9  2 -1</clus>
<clus scale="   82.382">  5  6 -1 -1</clus>
<clus scale="   83.257">  1  5  2 -1</clus>
<clus scale="   90.261">  7  8 -1 -1</clus>
<clus scale="   20.161">  1  5  2 -1</clus>
</clustering>
</event>
<event>
 9    1  0.3197504E-005  0.1488445E+03  0.7546771E-02  0.1216118E+00
         21   -1    0    0  501  502  0.00000000000E+00  0.00000000000E+00  0.45350814786E+02  0.45350814786E+02  0.00000000000E+00 0.  1.
         -4   -1    0    0    0  501 -0.00000000000E+00 -0.00000000000E+00 -0.10164004870E+04  0.10164004870E+04  0.00000000000E+00 0.  1.
         23    2    1    2    0    0 -0.34825685835E+02 -0.22118689731E+02 -0.24735268018E+03  0.27063332922E+03  0.10176927661E+03 0.  0.
        -24    2    1    2    0    0 -0.10605661324E+03  0.55234545230E+02 -0.19008579429E+03  0.23822974477E+03  0.79510640192E+02 0.  0.
         11    1    4    4    0    0 -0.11462980294E+02 -0.16996940700E+02 -0.52202270223E+02  0.56083624409E+02  0.00000000000E+00 0. -1.
        -12    1    4    4    0    0 -0.94593632944E+02  0.72231485931E+02 -0.13788352406E+03  0.18214612036E+03  0.00000000000E+00 0.  1.
        -11    1    3    3    0    0  0.58415630325E+01 -0.53974215568E+02 -0.16211272833E+03  0.17096162286E+03  0.00000000000E+00 0.  1.
         11    1    3    3    0    0 -0.40667248867E+02  0.31855525838E+02 -0.85239951852E+02  0.99671706359E+02  0.00000000000E+00 0. -1.
         -3    1    1    2    0  502  0.14088229907E+03 -0.33115855500E+02 -0.53361119772E+03  0.55288822777E+03  0.00000000000E+00 0.  1.
<scales pt_clust_5="13000.00000" pt_clust_6="13000.00000" pt_clust_7="13000.00000" pt_clust_8="13000.00000" pt_clust_9="125.82825"></scales>
<clustering>
<clus scale="   79.511">  5  6 -1 -1</clus>
<clus scale="  101.769">  7  8 -1 -1</clus>
<clus scale="  109.814">  2  7  1 -1</clus>
<clus scale="  125.828">  1  9  2 -1</clus>
<clus scale="  125.828">  1  5  2 -1</clus>
</clustering>
</event>
<event>
 9    1  0.3197504E-005  0.8456890E+02  0.7546771E-02  0.1317248E+00
         21   -1    0    0  501  502  0.00000000000E+00  0.00000000000E+00  0.49620914265E+02  0.49620914265E+02  0.00000000000E+00 0. -1.
          1   -1    0    0  502    0 -0.00000000000E+00 -0.00000000000E+00 -0.23385409859E+03  0.23385409859E+03  0.00000000000E+00 0. -1.
         23    2    1    2    0    0  0.16353265243E+02  0.71468958550E+01 -0.97374194668E+02  0.12723713478E+03  0.79931516154E+02 0.  0.
        -24    2    1    2    0    0 -0.37867241801E+02 -0.82445933124E+01 -0.28794829860E+02  0.94306441957E+02  0.81010255198E+02 0.  0.
         13    1    4    4    0    0 -0.51618231819E+02  0.18977169506E+02 -0.42529538246E+01  0.55160333890E+02  0.00000000000E+00 0. -1.
        -14    1    4    4    0    0  0.13750990018E+02 -0.27221762818E+02 -0.24541876036E+02  0.39146108067E+02  0.00000000000E+00 0.  1.
        -11    1    3    3    0    0  0.39738909661E+02  0.21290214894E+02 -0.29003567398E+02  0.53606539835E+02  0.00000000000E+00 0.  1.
         11    1    3    3    0    0 -0.23385644418E+02 -0.14143319039E+02 -0.68370627270E+02  0.73630594942E+02  0.00000000000E+00 0. -1.
          2    1    1    2  501    0  0.21513976558E+02  0.10976974574E+01 -0.58064159800E+02  0.61931436123E+02  0.00000000000E+00 0. -1.
<scales pt_clust_5="13000.00000" pt_clust_6="13000.00000" pt_clust_7="13000.00000" pt_clust_8="13000.00000" pt_clust_9="21.54197"></scales>
<clustering>
<clus scale="   21.542">  1  9  2 -1</clus>
<clus scale="   79.932">  7  8 -1 -1</clus>
<clus scale="   81.010">  5  6 -1 -1</clus>
<clus scale="   83.536">  2  7  1 -1</clus>
<clus scale="   21.542">  1  5  2 -1</clus>
</clustering>
</event>
<event>
 9    1  0.3197504E-005  0.1362458E+03  0.7546771E-02  0.1235823E+00
         21   -1    0    0  501  502  0.00000000000E+00  0.00000000000E+00  0.23783551574E+03  0.23783551574E+03  0.00000000000E+00 0. -1.
          1   -1    0    0  502    0 -0.00000000000E+00 -0.00000000000E+00 -0.18899726757E+03  0.18899726757E+03  0.00000000000E+00 0. -1.
         23    2    1    2    0    0  0.11333994386E+02  0.15859205171E+02  0.53044642480E+02  0.10885413250E+03  0.93035016248E+02 0.  0.
        -24    2    1    2    0    0 -0.64659262693E+02  0.82938949642E+02 -0.10404668911E+03  0.16773636616E+03  0.79057481614E+02 0.  0.
         13    1    4    4    0    0 -0.60538026165E+02  0.79418780385E+02 -0.11692445128E+03  0.15376450370E+03  0.00000000000E+00 0. -1.
        -14    1    4    4    0    0 -0.41212365285E+01  0.35201692569E+01  0.12877762174E+02  0.13971862464E+02  0.00000000000E+00 0.  1.
        -13    1    3    3    0    0  0.30570135882E+01 -0.38596751254E+02  0.13329359756E+02  0.40947849406E+02  0.00000000000E+00 0.  1.
         13    1    3    3    0    0  0.82769807977E+01  0.54455956425E+02  0.39715282724E+02  0.67906283090E+02  0.00000000000E+00 0. -1.
          2    1    1    2  501    0  0.53325268308E+02 -0.98798154813E+02  0.99840294797E+02  0.15024228466E+03  0.00000000000E+00 0. -1.
<scales pt_clust_5="13000.00000" pt_clust_6="13000.00000" pt_clust_7="13000.00000" pt_clust_8="13000.00000" pt_clust_9="110.96317"></scales>
<clustering>
<clus scale="   79.057">  5  6 -1 -1</clus>
<clus scale="   93.035">  7  8 -1 -1</clus>
<clus scale="   95.055">  2  7  1 -1</clus>
<clus scale="  110.963">  1  9  2 -1</clus>
<clus scale="  110.963">  1  5  2 -1</clus>
</clustering>
</event>
<event>
 9    1  0.3197504E-005  0.9986338E+02  0.7546771E-02  0.1286914E+00
         -2   -1    0    0    0  501 -0.00000000000E+00  0.00000000000E+00  0.41626159684E+03  0.41626159684E+03  0.00000000000E+00 0.  1.
         21   -1    0    0  501  502  0.00000000000E+00 -0.00000000000E+00 -0.54584254271E+02  0.54584254271E+02  0.00000000000E+00 0.  1.
         23    2    1    2    0    0 -0.33164694747E+02  0.33400601182E+02  0.23259032043E+03  0.25467179012E+03  0.92433578249E+02 0.  0.
        -24    2    1    2    0    0 -0.14136525693E+00 -0.59704768500E+01  0.29544496787E+00  0.80347054458E+02  0.80124249103E+02 0.  0.
         11    1    4    4    0    0 -0.38824405912E+02  0.24486027349E+01 -0.84389497372E+01  0.39806356558E+02  0.00000000000E+00 0. -1.
        -12    1    4    4    0    0  0.38683040655E+02 -0.84190795849E+01  0.87343947051E+01  0.40540697900E+02  0.00000000000E+00 0.  1.
        -13    1    3    3    0    0 -0.50963551612E+02 -0.44958990264E+01  0.18173505152E+03  0.18879916751E+03  0.00000000000E+00 0.  1.
         13    1    3    3    0    0  0.17798856865E+02  0.37896500209E+02  0.50855268912E+02  0.65872622612E+02  0.00000000000E+00 0. -1.
         -1    1    1    2    0  502  0.33306060004E+02 -0.27430124332E+02  0.12879157716E+03  0.13582700653E+03  0.00000000000E+00 0.  1.
<scales pt_clust_5="13000.00000" pt_clust_6="13000.00000" pt_clust_7="13000.00000" pt_clust_8="13000.00000" pt_clust_9="43.14751"></scales>
<clustering>
<clus scale="   43.148">  2  9  1 -1</clus>
<clus scale="   80.124">  5  6 -1 -1</clus>
<clus scale="   88.592">  2  5  1 -1</clus>
<clus scale="   92.434">  7  8 -1 -1</clus>
<clus scale="   43.148">  2  5  1 -1</clus>
</clustering>
</event>
<event>
 9    1  0.3197504E-005  0.9813826E+02  0.7546771E-02  0.1292067E+00
         21   -1    0    0  501  502  0.00000000000E+00  0.00000000000E+00  0.15774302643E+03  0.15774302643E+03  0.00000000000E+00 0.  1.
          3   -1    0    0  502    0 -0.00000000000E+00 -0.00000000000E+00 -0.16638901347E+03  0.16638901347E+03  0.00000000000E+00 0. -1.
        -24    2    1    2    0    0 -0.22490738718E+02  0.13402237153E+02 -0.11618178976E+03  0.14335662338E+03  0.79796365250E+02 0.  0.
         23    2    1    2    0    0  0.27769028802E+02 -0.47370567999E+02  0.94244179418E+02  0.14391927597E+03  0.93891974994E+02 0.  0.
         13    1    3    3    0    0 -0.45733242089E+02  0.24983630899E+02 -0.49821892984E+02  0.72096686924E+02  0.00000000000E+00 0. -1.
        -14    1    3    3    0    0  0.23242503371E+02 -0.11581393745E+02 -0.66359896777E+02  0.71259936460E+02  0.00000000000E+00 0.  1.
        -13    1    4    4    0    0 -0.32984785791E+02 -0.34123025084E+01  0.36184131724E+02  0.49080864812E+02  0.00000000000E+00 0.  1.
         13    1    4    4    0    0  0.60753814594E+02 -0.43958265490E+02  0.58060047693E+02  0.94838411157E+02  0.00000000000E+00 0. -1.
          4    1    1    2  501    0 -0.52782900839E+01  0.33968330845E+02  0.13291623301E+02  0.36856140555E+02  0.00000000000E+00 0. -1.
<scales pt_clust_5="13000.00000" pt_clust_6="13000.00000" pt_clust_7="13000.00000" pt_clust_8="13000.00000" pt_clust_9="34.37598"></scales>
<clustering>
<clus scale="   34.376">  1  9  2 -1</clus>
<clus scale="   79.796">  5  6 -1 -1</clus>
<clus scale="   84.752">  2  5  1 -1</clus>
<clus scale="   93.892">  7  8 -1 -1</clus>
<clus scale="   34.376">  1  5  2 -1</clus>
</clustering>
</event>
<event>
 9    1  0.3197504E-005  0.1664926E+03  0.7546771E-02  0.1211830E+00
          1   -1    0    0  502    0 -0.00000000000E+00  0.00000000000E+00  0.27949700349E+03  0.27949700349E+03  0.00000000000E+00 0. -1.
         21   -1    0    0  501  502  0.00000000000E+00 -0.00000000000E+00 -0.16799208712E+03  0.16799208712E+03  0.00000000000E+00 0. -1.
        -24    2    1    2    0    0 -0.27926927138E+02 -0.17438816410E+02  0.20856708744E+02  0.88429208100E+02  0.79376929698E+02 0.  0.
         23    2    1    2    0    0  0.39148130936E+02  0.14180372536E+03 -0.41248063724E+02  0.17743066572E+03  0.90218433235E+02 0.  0.
         11    1    3    3    0    0  0.20799309434E+02 -0.17968643177E+02 -0.11649555269E+02  0.29852898494E+02  0.00000000000E+00 0. -1.
        -12    1    3    3    0    0 -0.48726236572E+02  0.52982676674E+00  0.32506264014E+02  0.58576309605E+02  0.00000000000E+00 0.  1.
        -13    1    4    4    0    0  0.83248977606E+01  0.93944877936E+02  0.17170277195E+02  0.95863248599E+02  0.00000000000E+00 0. -1.
         13    1    4    4    0    0  0.30823233176E+02  0.47858847425E+02 -0.58418340919E+02  0.81567417122E+02  0.00000000000E+00 0.  1.
          2    1    1    2  501    0 -0.11221203798E+02 -0.12436490895E+03  0.13189627135E+03  0.18162921678E+03  0.00000000000E+00 0. -1.
<scales pt_clust_5="13000.00000" pt_clust_6="13000.00000" pt_clust_7="13000.00000" pt_clust_8="13000.00000" pt_clust_9="139.93016"></scales>
<clustering>
<clus scale="   79.377">  5  6 -1 -1</clus>
<clus scale="   85.934">  1  5  2 -1</clus>
<clus scale="   90.218">  7  8 -1 -1</clus>
<clus scale="  139.930">  2  9  1 -1</clus>
<clus scale="  139.930">  2  5  1 -1</clus>
</clustering>
</event>
<event>
 9    1  0.3197504E-005  0.1116455E+03  0.7546771E-02  0.1270011E+00
          1   -1    0    0  502    0 -0.00000000000E+00  0.00000000000E+00  0.15943684194E+03  0.15943684194E+03  0.00000000000E+00 0. -1.
         21   -1    0    0  501  502  0.00000000000E+00 -0.00000000000E+00 -0.92148419421E+02  0.92148419421E+02  0.00000000000E+00 0. -1.
        -24    2    1    2    0    0 -0.23212329788E+02  0.16637538920E+02  0.45975111861E+02  0.95323387220E+02  0.78467937942E+02 0.  0.
         23    2    1    2    0    0  0.51727634186E+02 -0.33302888777E+02  0.12468604812E+02  0.12206998487E+03  0.10469376562E+03 0.  0.
         13    1    3    3    0    0 -0.50968470684E+02  0.21181495376E+02  0.33408945715E+02  0.64518202114E+02  0.00000000000E+00 0. -1.
        -14    1    3    3    0    0  0.27756140897E+02 -0.45439564563E+01  0.12566166146E+02  0.30805185105E+02  0.00000000000E+00 0.  1.
        -13    1    4    4    0    0 -0.11485883904E+02  0.22164898205E+02  0.26947452242E+02  0.36733818530E+02  0.00000000000E+00 0.  1.
         13    1    4    4    0    0  0.63213518090E+02 -0.55467786982E+02 -0.14478847430E+02  0.85336166336E+02  0.00000000000E+00 0. -1.
          2    1    1    2  501    0 -0.28515304399E+02  0.16665349857E+02  0.88447058469E+01  0.34191889277E+02  0.00000000000E+00 0. -1.
<scales pt_clust_5="13000.00000" pt_clust_6="13000.00000" pt_clust_7="13000.00000" pt_clust_8="13000.00000" pt_clust_9="33.02812"></scales>
<clustering>
<clus scale="   33.028">  2  9  1 -1</clus>
<clus scale="   78.468">  5  6 -1 -1</clus>
<clus scale="   87.528">  1  5  2 -1</clus>
<clus scale="  104.694">  7  8 -1 -1</clus>
<clus scale="   33.028">  2  5  1 -1</clus>
</clustering>
</event>
<event>
 9    1  0.3197504E-005  0.1677872E+03  0.7546771E-02  0.1208177E+00
         21   -1    0    0  501  502  0.00000000000E+00  0.00000000000E+00  0.88236119161E+02  0.88236119161E+02  0.00000000000E+00 0.  1.
          1   -1    0    0  502    0 -0.00000000000E+00 -0.00000000000E+00 -0.92191646663E+03  0.92191646663E+03  0.00000000000E+00 0. -1.
        -24    2    1    2    0    0 -0.29521589493E+01  0.42208955088E+02 -0.61237393700E+03  0.61906494738E+03  0.80307280057E+02 0.  0.
         23    2    1    2    0    0 -0.10558533960E+03 -0.10922236695E+03 -0.63542188687E+02  0.18820655098E+03  0.91138941785E+02 0.  0.
         11    1    3    3    0    0  0.28800160955E+02  0.47477891815E+01 -0.95440769034E+02  0.99804464665E+02  0.00000000000E+00 0. -1.
        -12    1    3    3    0    0 -0.31752319905E+02  0.37461165907E+02 -0.51693316797E+03  0.51926048272E+03  0.00000000000E+00 0.  1.
        -13    1    4    4    0    0 -0.99313167449E+02 -0.44137721945E+02 -0.22431642940E+02  0.11097036691E+03  0.00000000000E+00 0.  1.
         13    1    4    4    0    0 -0.62721721511E+01 -0.65084645000E+02 -0.41110545747E+02  0.77236184071E+02  0.00000000000E+00 0. -1.
          2    1    1    2  501    0  0.10853749855E+03  0.67013411857E+02 -0.15776422178E+03  0.20288108742E+03  0.00000000000E+00 0. -1.
<scales pt_clust_5="13000.00000" pt_clust_6="13000.00000" pt_clust_7="13000.00000" pt_clust_8="13000.00000" pt_clust_9="140.87676"></scales>
<clustering>
<clus scale="   80.307">  5  6 -1 -1</clus>
<clus scale="   90.772">  2  5  1 -1</clus>
<clus scale="   91.139">  7  8 -1 -1</clus>
<clus scale="  140.877">  1  9  2 -1</clus>
<clus scale="  140.877">  1  5  2 -1</clus>
</clustering>
</event>
<event>
 9    1  0.3197504E-005  0.9739797E+02  0.7546771E-02  0.1291138E+00
         -2   -1    0    0    0  501 -0.00000000000E+00  0.00000000000E+00  0.96564389560E+02  0.96564389560E+02  0.00000000000E+00 0.  1.
         21   -1    0    0  501  502  0.00000000000E+00 -0.00000000000E+00 -0.28344102995E+03  0.28344102995E+03  0.00000000000E+00 0. -1.
        -24    2    1    2    0    0 -0.18299008765E+02 -0.30641987616E+02  0.46468505360E+02  0.99085987825E+02  0.79905731121E+02 0.  0.
         23    2    1    2    0    0  0.61684845221E+02  0.15555437414E+02 -0.15631710161E+03  0.19123523917E+03  0.89938249280E+02 0.  0.
         11    1    3    3    0    0 -0.21382175318E+02 -0.25396237334E+02 -0.15627118093E+02  0.36692957252E+02  0.00000000000E+00 0. -1.
        -12    1    3    3    0    0  0.30831665531E+01 -0.52457502824E+01  0.62095623453E+02  0.62393030573E+02  0.00000000000E+00 0.  1.
        -13    1    4    4    0    0  0.32937464237E+02 -0.29640644560E+01 -0.19523732131E+01  0.33128144977E+02  0.00000000000E+00 0.  1.
         13    1    4    4    0    0  0.28747380984E+02  0.18519501870E+02 -0.15436472839E+03  0.15810709419E+03  0.00000000000E+00 0. -1.
         -1    1    1    2    0  502 -0.43385836457E+02  0.15086550202E+02 -0.77028044141E+02  0.89684192510E+02  0.00000000000E+00 0.  1.
<scales pt_clust_5="13000.00000" pt_clust_6="13000.00000" pt_clust_7="13000.00000" pt_clust_8="13000.00000" pt_clust_9="45.93403"></scales>
<clustering>
<clus scale="   45.934">  2  9  1 -1</clus>
<clus scale="   79.906">  5  6 -1 -1</clus>
<clus scale="   88.218">  1  5  2 -1</clus>
<clus scale="   89.938">  7  8 -1 -1</clus>
<clus scale="   45.934">  2  5  1 -1</clus>
</clustering>
</event>
<event>
 9    1  0.3197504E-005  0.9973449E+02  0.7546771E-02  0.1285360E+00
          1   -1    0    0  502    0 -0.00000000000E+00  0.00000000000E+00  0.22860700112E+03  0.22860700112E+03  0.00000000000E+00 0. -1.
         21   -1    0    0  501  502  0.00000000000E+00 -0.00000000000E+00 -0.11847362753E+03  0.11847362753E+03  0.00000000000E+00 0.  1.
         23    2    1    2    0    0 -0.47283685984E+02  0.15158952370E+02  0.14114541025E+03  0.17448408181E+03  0.89761501623E+02 0.  0.
        -24    2    1    2    0    0  0.21413960080E+02  0.36715765276E+02 -0.58661524097E+02  0.10837253883E+03  0.80602901047E+02 0.  0.
         11    1    4    4    0    0  0.36954611830E+01  0.40015866095E+02  0.65497962288E+01  0.40716407053E+02  0.00000000000E+00 0. -1.
        -12    1    4    4    0    0  0.17718498897E+02 -0.33001008187E+01 -0.65211320325E+02  0.67656131778E+02  0.00000000000E+00 0.  1.
        -11    1    3    3    0    0  0.14259489196E+02  0.23284331530E+02  0.90002455499E+02  0.94052831551E+02  0.00000000000E+00 0.  1.
         11    1    3    3    0    0 -0.61543175180E+02 -0.81253791599E+01  0.51142954750E+02  0.80431250259E+02  0.00000000000E+00 0. -1.
          2    1    1    2  501    0  0.25869725904E+02 -0.51874717646E+02  0.27649487444E+02  0.64224008012E+02  0.00000000000E+00 0. -1.
<scales pt_clust_5="13000.00000" pt_clust_6="13000.00000" pt_clust_7="13000.00000" pt_clust_8="13000.00000" pt_clust_9="57.96751"></scales>
<clustering>
<clus scale="   57.968">  2  9  1 -1</clus>
<clus scale="   80.603">  5  6 -1 -1</clus>
<clus scale="   89.762">  7  8 -1 -1</clus>
<clus scale="   91.579">  2  5  1 -1</clus>
<clus scale="   57.968">  2  5  1 -1</clus>
</clustering>
</event>
<event>
 9    1  0.3197504E-005  0.1196156E+03  0.7546771E-02  0.1246521E+00
          1   -1    0    0  502    0 -0.00000000000E+00  0.00000000000E+00  0.21636590793E+03  0.21636590793E+03  0.00000000000E+00 0. -1.
         21   -1    0    0  501  502  0.00000000000E+00 -0.00000000000E+00 -0.11734117766E+03  0.11734117766E+03  0.00000000000E+00 0.  1.
         23    2    1    2    0    0 -0.81390840260E+02  0.37556790850E+02  0.11985368197E+03  0.17435646966E+03  0.89444351484E+02 0.  0.
        -24    2    1    2    0    0  0.36637501397E+02 -0.39437319304E+02 -0.46818532128E+02  0.10756397657E+03  0.80501089694E+02 0.  0.
         13    1    4    4    0    0  0.16801962647E+02  0.24494290191E+02 -0.17608851229E+02  0.34530390128E+02  0.00000000000E+00 0. -1.
        -14    1    4    4    0    0  0.19835538749E+02 -0.63931609494E+02 -0.29209680899E+02  0.73033586440E+02  0.00000000000E+00 0.  1.
        -11    1    3    3    0    0 -0.86732897172E+02  0.57352049871E+02  0.11078190466E+03  0.15193578735E+03  0.00000000000E+00 0. -1.
         11    1    3    3    0    0  0.53420569121E+01 -0.19795259021E+02  0.90717773100E+01  0.22420682311E+02  0.00000000000E+00 0.  1.
          2    1    1    2  501    0  0.44753338863E+02  0.18805284532E+01  0.25989580424E+02  0.51786639370E+02  0.00000000000E+00 0. -1.
<scales pt_clust_5="13000.00000" pt_clust_6="13000.00000" pt_clust_7="13000.00000" pt_clust_8="13000.00000" pt_clust_9="44.79285"></scales>
<clustering>
<clus scale="   44.793">  2  9  1 -1</clus>
<clus scale="   80.501">  5  6 -1 -1</clus>
<clus scale="   89.444">  7  8 -1 -1</clus>
<clus scale="  113.084">  2  5  1 -1</clus>
<clus scale="   44.793">  2  5  1 -1</clus>
</clustering>
</event>
<event>
 9    1  0.3197504E-005  0.1018047E+03  0.7546771E-02  0.1279049E+00
          1   -1    0    0  502    0 -0.00000000000E+00  0.00000000000E+00  0.77200915076E+03  0.77200915076E+03  0.00000000000E+00 0. -1.
         21   -1    0    0  501  502  0.00000000000E+00 -0.00000000000E+00 -0.23506436239E+02  0.23506436239E+02  0.00000000000E+00 0. -1.
        -24    2    1    2    0    0  0.60417107890E+02 -0.17394387673E+02  0.38981025351E+03  0.40392714642E+03  0.85160520324E+02 0.  0.
         23    2    1    2    0    0 -0.16084275960E+02 -0.32367187864E+01  0.14024557620E+03  0.16773562281E+03  0.90538595278E+02 0.  0.
         13    1    3    3    0    0  0.51440332107E+02 -0.48754858754E+02  0.30331389729E+03  0.31148429223E+03  0.00000000000E+00 0. -1.
        -14    1    3    3    0    0  0.89767757830E+01  0.31360471082E+02  0.86496356227E+02  0.92442854188E+02  0.00000000000E+00 0.  1.
        -13    1    4    4    0    0  0.32274825655E+02  0.10433489551E+02  0.25397740330E+02  0.42374134672E+02  0.00000000000E+00 0. -1.
         13    1    4    4    0    0 -0.48359101615E+02 -0.13670208337E+02  0.11484783587E+03  0.12536148814E+03  0.00000000000E+00 0.  1.
          2    1    1    2  501    0 -0.44332831930E+02  0.20631106459E+02  0.21844688481E+03  0.22385281777E+03  0.00000000000E+00 0. -1.
<scales pt_clust_5="13000.00000" pt_clust_6="13000.00000" pt_clust_7="13000.00000" pt_clust_8="13000.00000" pt_clust_9="48.89831"></scales>
<clustering>
<clus scale="   48.898">  2  9  1 -1</clus>
<clus scale="   85.161">  5  6 -1 -1</clus>
<clus scale="   90.539">  7  8 -1 -1</clus>
<clus scale="   97.053">  1  5  2 -1</clus>
<clus scale="   48.898">  2  5  1 -1</clus>
</clustering>
</event>
<event>
 9    1  0.3197504E-005  0.3534492E+03  0.7546771E-02  0.1061208E+00
         -2   -1    0    0    0  501 -0.00000000000E+00  0.00000000000E+00  0.76986046243E+03  0.76986046243E+03  0.00000000000E+00 0.  1.
         21   -1    0    0  501  502  0.00000000000E+00 -0.00000000000E+00 -0.14125460081E+03  0.14125460081E+03  0.00000000000E+00 0.  1.
        -24    2    1    2    0    0  0.17138143458E+02 -0.16309611280E+03  0.17701365057E+03  0.25474641307E+03  0.81656870561E+02 0.  0.
         23    2    1    2    0    0 -0.43821734815E+02 -0.12548170348E+03  0.66756541002E+02  0.17461387538E+03  0.91474408217E+02 0.  0.
         13    1    3    3    0    0 -0.27937304986E+02 -0.43362186008E+02  0.29272344428E+02  0.59309715339E+02  0.00000000000E+00 0. -1.
        -14    1    3    3    0    0  0.45075448444E+02 -0.11973392679E+03  0.14774130615E+03  0.19543669773E+03  0.00000000000E+00 0.  1.
        -13    1    4    4    0    0 -0.17751312561E+02 -0.13302163639E+03  0.56234492708E+02  0.14550664251E+03  0.00000000000E+00 0.  1.
         13    1    4    4    0    0 -0.26070422254E+02  0.75399329124E+01  0.10522048294E+02  0.29107232866E+02  0.00000000000E+00 0. -1.
         -1    1    1    2    0  502  0.26683591357E+02  0.28857781628E+03  0.38483567004E+03  0.48175477479E+03  0.00000000000E+00 0.  1.
<scales pt_clust_5="13000.00000" pt_clust_6="13000.00000" pt_clust_7="13000.00000" pt_clust_8="13000.00000" pt_clust_9="289.80900"></scales>
<clustering>
<clus scale="   81.657">  5  6 -1 -1</clus>
<clus scale="   91.474">  7  8 -1 -1</clus>
<clus scale="  130.720">  5  7 -1 -1</clus>
<clus scale="  289.809">  2  9  1 -1</clus>
<clus scale="  289.809">  2  5  1 -1</clus>
</clustering>
</event>
<event>
 9    1  0.3197504E-005  0.9996139E+02  0.7546771E-02  0.1288001E+00
         21   -1    0    0  501  502  0.00000000000E+00  0.00000000000E+00  0.31795306992E+03  0.31795306992E+03  0.00000000000E+00 0. -1.
          1   -1    0    0  502    0 -0.00000000000E+00 -0.00000000000E+00 -0.26601277586E+03  0.26601277586E+03  0.00000000000E+00 0. -1.
        -24    2    1    2    0    0  0.47354576301E+02 -0.54817230895E+01 -0.23702900905E+03  0.25245171596E+03  0.72640295802E+02 0.  0.
         23    2    1    2    0    0 -0.39264314541E+02 -0.32521996875E+02  0.11666914780E+03  0.15488718230E+03  0.88198540330E+02 0.  0.
         13    1    3    3    0    0  0.34132333112E+02 -0.38210623874E+02 -0.15131300891E+03  0.15975197841E+03  0.00000000000E+00 0. -1.
        -14    1    3    3    0    0  0.13222243189E+02  0.32728900784E+02 -0.85716000140E+02  0.92699737548E+02  0.00000000000E+00 0.  1.
        -13    1    4    4    0    0  0.13017467716E+02 -0.35412888080E+02  0.86704491225E+02  0.94557897114E+02  0.00000000000E+00 0. -1.
         13    1    4    4    0    0 -0.52281782256E+02  0.28908912054E+01  0.29964656574E+02  0.60329285189E+02  0.00000000000E+00 0.  1.
          2    1    1    2  501    0 -0.80902617605E+01  0.38003719964E+02  0.17230015532E+03  0.17662694752E+03  0.00000000000E+00 0. -1.
<scales pt_clust_5="13000.00000" pt_clust_6="13000.00000" pt_clust_7="13000.00000" pt_clust_8="13000.00000" pt_clust_9="38.85531"></scales>
<clustering>
<clus scale="   38.855">  1  9  2 -1</clus>
<clus scale="   72.640">  5  6 -1 -1</clus>
<clus scale="   86.544">  2  5  1 -1</clus>
<clus scale="   88.199">  7  8 -1 -1</clus>
<clus scale="   38.855">  1  5  2 -1</clus>
</clustering>
</event>
<event>
 9    1  0.3197504E-005  0.2730056E+03  0.7546771E-02  0.1144060E+00
         -2   -1    0    0    0  501 -0.00000000000E+00  0.00000000000E+00  0.26749475985E+03  0.26749475985E+03  0.00000000000E+00 0.  1.
         21   -1    0    0  501  502  0.00000000000E+00 -0.00000000000E+00 -0.81959136702E+03  0.81959136702E+03  0.00000000000E+00 0.  1.
        -24    2    1    2    0    0  0.35241216527E+02 -0.64853907684E+01  0.16743557792E+03  0.19010300171E+03  0.82586166340E+02 0.  0.
         23    2    1    2    0    0  0.80393737610E+02  0.24150016992E+03 -0.41478866024E+03  0.49514733161E+03  0.91300395503E+02 0.  0.
         11    1    3    3    0    0 -0.17766994127E+02  0.10334632241E+02  0.94640726403E+01  0.22628287050E+02  0.00000000000E+00 0. -1.
        -12    1    3    3    0    0  0.53008210654E+02 -0.16820023010E+02  0.15797150528E+03  0.16747471466E+03  0.00000000000E+00 0.  1.
        -11    1    4    4    0    0  0.96491779951E+02  0.19856934809E+03 -0.30818743602E+03  0.37910413519E+03  0.00000000000E+00 0.  1.
         11    1    4    4    0    0 -0.16098042341E+02  0.42930821837E+02 -0.10660122422E+03  0.11604319642E+03  0.00000000000E+00 0. -1.
         -1    1    1    2    0  502 -0.11563495414E+03 -0.23501477915E+03 -0.30474352484E+03  0.40183579354E+03  0.00000000000E+00 0.  1.
<scales pt_clust_5="13000.00000" pt_clust_6="13000.00000" pt_clust_7="13000.00000" pt_clust_8="13000.00000" pt_clust_9="257.28650"></scales>
<clustering>
<clus scale="   82.586">  5  6 -1 -1</clus>
<clus scale="   90.025">  1  5  2 -1</clus>
<clus scale="   91.300">  7  8 -1 -1</clus>
<clus scale="  257.286">  2  9  1 -1</clus>
<clus scale="  257.286">  2  5  1 -1</clus>
</clustering>
</event>
<event>
 9    1  0.3197504E-005  0.1204169E+03  0.7546771E-02  0.1245728E+00
         21   -1    0    0  501  502  0.00000000000E+00  0.00000000000E+00  0.20731348887E+03  0.20731348887E+03  0.00000000000E+00 0.  1.
          1   -1    0    0  502    0 -0.00000000000E+00 -0.00000000000E+00 -0.70049902436E+03  0.70049902436E+03  0.00000000000E+00 0. -1.
        -24    2    1    2    0    0 -0.60563680648E+02  0.43984144565E+02 -0.17710750399E+03  0.20864174147E+03  0.81004592020E+02 0.  0.
         23    2    1    2    0    0  0.62256562081E+02 -0.11400618258E+03  0.15555126590E+03  0.22236877321E+03  0.91533522743E+02 0.  0.
         13    1    3    3    0    0  0.36683764692E+01  0.43318202714E+02 -0.50229742840E+02  0.66430043942E+02  0.00000000000E+00 0. -1.
        -14    1    3    3    0    0 -0.64232057118E+02  0.66594185018E+00 -0.12687776115E+03  0.14221169753E+03  0.00000000000E+00 0.  1.
        -13    1    4    4    0    0  0.47772885599E+02 -0.12873742691E+03  0.14270724611E+03  0.19804275240E+03  0.00000000000E+00 0.  1.
         13    1    4    4    0    0  0.14483676482E+02  0.14731244329E+02  0.12844019788E+02  0.24326020805E+02  0.00000000000E+00 0. -1.
          2    1    1    2  501    0 -0.16928814323E+01  0.70022038013E+02 -0.47162929740E+03  0.47680199855E+03  0.00000000000E+00 0. -1.
<scales pt_clust_5="13000.00000" pt_clust_6="13000.00000" pt_clust_7="13000.00000" pt_clust_8="13000.00000" pt_clust_9="70.04253"></scales>
<clustering>
<clus scale="   70.043">  1  9  2 -1</clus>
<clus scale="   81.005">  5  6 -1 -1</clus>
<clus scale="   91.534">  7  8 -1 -1</clus>
<clus scale="  112.621">  2  5  1 -1</clus>
<clus scale="   70.043">  1  5  2 -1</clus>
</clustering>
</event>
<event>
 9    1  0.3197504E-005  0.1103404E+03  0.7546771E-02  0.1264476E+00
          1   -1    0    0  502    0 -0.00000000000E+00  0.00000000000E+00  0.59089771628E+03  0.59089771628E+03  0.00000000000E+00 0. -1.
         21   -1    0    0  501  502  0.00000000000E+00 -0.00000000000E+00 -0.47869976649E+02  0.47869976649E+02  0.00000000000E+00 0.  1.
         23    2    1    2    0    0 -0.20582702527E+02  0.60192331946E+02  0.13762082734E+03  0.17627336249E+03  0.89922420656E+02 0.  0.
        -24    2    1    2    0    0 -0.70694911089E+02 -0.58450151461E+02  0.15745739909E+03  0.19827169886E+03  0.78132217313E+02 0.  0.
         13    1    4    4    0    0 -0.64226635331E+02 -0.49004706937E+01  0.10398937370E+03  0.12232279077E+03  0.00000000000E+00 0. -1.
        -14    1    4    4    0    0 -0.64682757578E+01 -0.53549680768E+02  0.53468025387E+02  0.75948908092E+02  0.00000000000E+00 0.  1.
        -13    1    3    3    0    0 -0.20357995496E+01 -0.23285961334E+02  0.41413717554E+02  0.47554983721E+02  0.00000000000E+00 0. -1.
         13    1    3    3    0    0 -0.18546902977E+02  0.83478293280E+02  0.96207109782E+02  0.12871837876E+03  0.00000000000E+00 0.  1.
          2    1    1    2  501    0  0.91277613616E+02 -0.17421804844E+01  0.24794951321E+03  0.26422263158E+03  0.00000000000E+00 0. -1.
<scales pt_clust_5="13000.00000" pt_clust_6="13000.00000" pt_clust_7="13000.00000" pt_clust_8="13000.00000" pt_clust_9="91.29428"></scales>
<clustering>
<clus scale="   78.132">  5  6 -1 -1</clus>
<clus scale="   89.922">  7  8 -1 -1</clus>
<clus scale="   91.294">  2  9  1 -1</clus>
<clus scale="  100.963">  2  5  1 -1</clus>
<clus scale="   91.294">  2  5  1 -1</clus>
</clustering>
</event>
<event>
 9    1  0.3197504E-005  0.9439077E+02  0.7546771E-02  0.1299801E+00
          3   -1    0    0  502    0 -0.00000000000E+00  0.00000000000E+00  0.30084682002E+03  0.30084682002E+03  0.00000000000E+00 0. -1.
         21   -1    0    0  501  502  0.00000000000E+00 -0.00000000000E+00 -0.39532298262E+02  0.39532298262E+02  0.00000000000E+00 0. -1.
         23    2    1    2    0    0  0.10486138164E+02 -0.78926973941E+01  0.14719240149E+03  0.17364113758E+03  0.91177781499E+02 0.  0.
        -24    2    1    2    0    0 -0.16778545105E+02  0.39203206145E+02  0.84994474767E+02  0.12351342661E+03  0.78823187358E+02 0.  0.
         11    1    4    4    0    0 -0.37222181822E+02  0.48270848130E+02  0.80038036450E+02  0.10060642563E+03  0.00000000000E+00 0. -1.
        -12    1    4    4    0    0  0.20443636717E+02 -0.90676419857E+01  0.49564383163E+01  0.22907000986E+02  0.00000000000E+00 0.  1.
        -13    1    3    3    0    0 -0.34474402498E+02  0.19361408686E+02  0.63792460294E+02  0.75052158958E+02  0.00000000000E+00 0.  1.
         13    1    3    3    0    0  0.44960540662E+02 -0.27254106080E+02  0.83399941194E+02  0.98588978624E+02  0.00000000000E+00 0. -1.
          4    1    1    2  501    0  0.62924069417E+01 -0.31310508751E+02  0.29127645499E+02  0.43224554083E+02  0.00000000000E+00 0. -1.
<scales pt_clust_5="13000.00000" pt_clust_6="13000.00000" pt_clust_7="13000.00000" pt_clust_8="13000.00000" pt_clust_9="31.93654"></scales>
<clustering>
<clus scale="   31.937">  2  9  1 -1</clus>
<clus scale="   78.823">  5  6 -1 -1</clus>
<clus scale="   82.519">  2  5  1 -1</clus>
<clus scale="   91.178">  7  8 -1 -1</clus>
<clus scale="   31.937">  2  5  1 -1</clus>
</clustering>
</event>
<event>
 9    1  0.4790991E-005  0.1762246E+03  0.7546771E-02  0.1203784E+00
          1   -1    0    0  502    0 -0.00000000000E+00  0.00000000000E+00  0.67638437649E+02  0.67638437649E+02  0.00000000000E+00 0. -1.
         21   -1    0    0  501  502  0.00000000000E+00 -0.00000000000E+00 -0.89334224982E+03  0.89334224982E+03  0.00000000000E+00 0. -1.
        -24    2    1    2    0    0  0.32630005379E+02  0.12661147914E+02 -0.23717277446E+03  0.25232054097E+03  0.78674700695E+02 0.  0.
         23    2    1    2    0    0  0.81118007662E+02  0.95108145947E+02 -0.76040935476E+02  0.17275069888E+03  0.91841654503E+02 0.  0.
         11    1    3    3    0    0  0.54542439437E+02 -0.82584509279E+01 -0.13776696854E+03  0.14840086702E+03  0.00000000000E+00 0. -1.
        -12    1    3    3    0    0 -0.21912434057E+02  0.20919598842E+02 -0.99405805918E+02  0.10391967394E+03  0.00000000000E+00 0.  1.
        -11    1    4    4    0    0  0.25072479678E+02  0.25781046372E+02 -0.75470733494E+02  0.83600976091E+02  0.00000000000E+00 0.  1.
         11    1    4    4    0    0  0.56045527983E+02  0.69327099575E+02 -0.57020198213E+00  0.89149722786E+02  0.00000000000E+00 0. -1.
          2    1    1    2  501    0 -0.11374801304E+03 -0.10776929386E+03 -0.51249010223E+03  0.53590944762E+03  0.00000000000E+00 0. -1.
<scales pt_clust_5="13000.00000" pt_clust_6="13000.00000" pt_clust_7="13000.00000" pt_clust_8="13000.00000" pt_clust_9="150.40017"></scales>
<clustering>
<clus scale="   78.675">  5  6 -1 -1</clus>
<clus scale="   86.109">  1  5  2 -1</clus>
<clus scale="   91.842">  7  8 -1 -1</clus>
<clus scale="  150.400">  2  9  1 -1</clus>
<clus scale="  150.400">  2  5  1 -1</clus>
</clustering>
</event>
<event>
 9    1  0.3197504E-005  0.1394350E+03  0.7546771E-02  0.1223358E+00
         -2   -1    0    0    0  501 -0.00000000000E+00  0.00000000000E+00  0.24584592371E+03  0.24584592371E+03  0.00000000000E+00 0.  1.
         21   -1    0    0  501  502  0.00000000000E+00 -0.00000000000E+00 -0.17518058821E+03  0.17518058821E+03  0.00000000000E+00 0.  1.
        -24    2    1    2    0    0 -0.83113844760E+02  0.48237828024E-01  0.14876545723E+03  0.18804142444E+03  0.79501588164E+02 0.  0.
         23    2    1    2    0    0  0.77708283061E+02  0.53619552440E+02 -0.11271068695E+02  0.14710392459E+03  0.11224479489E+03 0.  0.
         13    1    3    3    0    0  0.46777720251E+00  0.26492598917E+02  0.25438473685E+02  0.36731356581E+02  0.00000000000E+00 0. -1.
        -14    1    3    3    0    0 -0.83581621962E+02 -0.26444361089E+02  0.12332698355E+03  0.15131006786E+03  0.00000000000E+00 0.  1.
        -11    1    4    4    0    0  0.40537161578E+02 -0.26508933935E+02  0.21363673169E+02  0.52937619690E+02  0.00000000000E+00 0. -1.
         11    1    4    4    0    0  0.37171121483E+02  0.80128486376E+02 -0.32634741864E+02  0.94166304895E+02  0.00000000000E+00 0.  1.
         -1    1    1    2    0  502  0.54055616986E+01 -0.53667790268E+02 -0.66829053040E+02  0.85881162892E+02  0.00000000000E+00 0.  1.
<scales pt_clust_5="13000.00000" pt_clust_6="13000.00000" pt_clust_7="13000.00000" pt_clust_8="13000.00000" pt_clust_9="53.93933"></scales>
<clustering>
<clus scale="   53.939">  2  9  1 -1</clus>
<clus scale="   79.502">  5  6 -1 -1</clus>
<clus scale="  112.245">  7  8 -1 -1</clus>
<clus scale="  114.733">  1  5  2 -1</clus>
<clus scale="   53.939">  2  5  1 -1</clus>
</clustering>
</event>
<event>
 9    1  0.3197504E-005  0.9359209E+02  0.7546771E-02  0.1299270E+00
          1   -1    0    0  502    0 -0.00000000000E+00  0.00000000000E+00  0.50653822124E+03  0.50653822124E+03  0.00000000000E+00 0. -1.
         21   -1    0    0  501  502  0.00000000000E+00 -0.00000000000E+00 -0.40937593934E+02  0.40937593934E+02  0.00000000000E+00 0. -1.
        -24    2    1    2    0    0 -0.30288557576E+02  0.21281810705E+02  0.23990020401E+03  0.25624893085E+03  0.82104168540E+02 0.  0.
         23    2    1    2    0    0 -0.21443555755E+02  0.70763567815E+01  0.49912927619E+02  0.10580401397E+03  0.90516783638E+02 0.  0.
         11    1    3    3    0    0 -0.25459084549E+02  0.35217173128E+02  0.23733307668E+03  0.24127868442E+03  0.00000000000E+00 0. -1.
        -12    1    3    3    0    0 -0.48294730265E+01 -0.13935362424E+02  0.25671273345E+01  0.14970246436E+02  0.00000000000E+00 0.  1.
        -11    1    4    4    0    0 -0.11255607464E+02  0.32714232112E+02 -0.13118086756E+02  0.36999917327E+02  0.00000000000E+00 0. -1.
         11    1    4    4    0    0 -0.10187948291E+02 -0.25637875331E+02  0.63031014375E+02  0.68804096644E+02  0.00000000000E+00 0.  1.
          2    1    1    2  501    0  0.51732113330E+02 -0.28358167486E+02  0.17578749568E+03  0.18542287035E+03  0.00000000000E+00 0. -1.
<scales pt_clust_5="13000.00000" pt_clust_6="13000.00000" pt_clust_7="13000.00000" pt_clust_8="13000.00000" pt_clust_9="58.99492"></scales>
<clustering>
<clus scale="   58.995">  2  9  1 -1</clus>
<clus scale="   82.104">  5  6 -1 -1</clus>
<clus scale="   85.483">  1  5  2 -1</clus>
<clus scale="   90.517">  7  8 -1 -1</clus>
<clus scale="   58.995">  2  5  1 -1</clus>
</clustering>
</event>
<event>
 9    1  0.3197504E-005  0.9793497E+02  0.7546771E-02  0.1290292E+00
         21   -1    0    0  501  502  0.00000000000E+00  0.00000000000E+00  0.48182319646E+03  0.48182319646E+03  0.00000000000E+00 0. -1.
          1   -1    0    0  502    0 -0.00000000000E+00 -0.00000000000E+00 -0.31438203424E+02  0.31438203424E+02  0.00000000000E+00 0. -1.
         23    2    1    2    0    0  0.45534717001E+02 -0.26294325152E+02  0.11277570771E+03  0.15356883189E+03  0.90001243827E+02 0.  0.
        -24    2    1    2    0    0 -0.92527522803E+01  0.63468255547E+01  0.25534761530E+03  0.26759877852E+03  0.79251536308E+02 0.  0.
         11    1    4    4    0    0  0.33379539363E+02  0.10229573543E+02  0.14727595111E+03  0.15135733744E+03  0.00000000000E+00 0. -1.
        -12    1    4    4    0    0 -0.42632291643E+02 -0.38827479879E+01  0.10807166419E+03  0.11624144107E+03  0.00000000000E+00 0.  1.
        -13    1    3    3    0    0 -0.38928770462E+01  0.25103539617E+02  0.59063483688E+02  0.64294924359E+02  0.00000000000E+00 0.  1.
         13    1    3    3    0    0  0.49427594047E+02 -0.51397864768E+02  0.53712224019E+02  0.89273907527E+02  0.00000000000E+00 0. -1.
          2    1    1    2  501    0 -0.36281964721E+02  0.19947499597E+02  0.82261670036E+02  0.92093789483E+02  0.00000000000E+00 0. -1.
<scales pt_clust_5="13000.00000" pt_clust_6="13000.00000" pt_clust_7="13000.00000" pt_clust_8="13000.00000" pt_clust_9="41.40391"></scales>
<clustering>
<clus scale="   41.404">  1  9  2 -1</clus>
<clus scale="   79.252">  5  6 -1 -1</clus>
<clus scale="   88.158">  1  5  2 -1</clus>
<clus scale="   90.001">  7  8 -1 -1</clus>
<clus scale="   41.404">  1  5  2 -1</clus>
</clustering>
</event>
<event>
 9    1  0.3197504E-005  0.1070931E+03  0.7546771E-02  0.1270791E+00
         21   -1    0    0  501  502  0.00000000000E+00  0.00000000000E+00  0.65208554251E+03  0.65208554251E+03  0.00000000000E+00 0.  1.
         -4   -1    0    0    0  501 -0.00000000000E+00 -0.00000000000E+00 -0.63346230858E+02  0.63346230858E+02  0.00000000000E+00 0.  1.
         23    2    1    2    0    0 -0.71684869307E+01  0.52299450880E+02  0.10684221455E+02  0.10655284126E+03  0.91938760191E+02 0.  0.
        -24    2    1    2    0    0  0.66249346174E+02 -0.60637379192E+02  0.47178124545E+03  0.48700112832E+03  0.80787918696E+02 0.  0.
         13    1    4    4    0    0  0.12499539202E+02  0.18645085591E+02  0.13540553297E+03  0.13725354661E+03  0.00000000000E+00 0. -1.
        -14    1    4    4    0    0  0.53749806972E+02 -0.79282464783E+02  0.33637571248E+03  0.34974758172E+03  0.00000000000E+00 0.  1.
        -13    1    3    3    0    0  0.36274160874E+02  0.49391298912E+02 -0.16392561246E+01  0.61302547385E+02  0.00000000000E+00 0.  1.
         13    1    3    3    0    0 -0.43442647805E+02  0.29081519680E+01  0.12323477580E+02  0.45250293875E+02  0.00000000000E+00 0. -1.
         -3    1    1    2    0  502 -0.59080859243E+02  0.83379283121E+01  0.10627384474E+03  0.12187780378E+03  0.00000000000E+00 0.  1.
<scales pt_clust_5="13000.00000" pt_clust_6="13000.00000" pt_clust_7="13000.00000" pt_clust_8="13000.00000" pt_clust_9="59.66631"></scales>
<clustering>
<clus scale="   59.666">  1  9  2 -1</clus>
<clus scale="   80.788">  5  6 -1 -1</clus>
<clus scale="   91.939">  7  8 -1 -1</clus>
<clus scale="   97.688">  1  5  2 -1</clus>
<clus scale="   59.666">  1  5  2 -1</clus>
</clustering>
</event>
<event>
 9    1  0.3197504E-005  0.1055305E+03  0.7546771E-02  0.1273803E+00
         -2   -1    0    0    0  501 -0.00000000000E+00  0.00000000000E+00  0.20264308322E+03  0.20264308322E+03  0.00000000000E+00 0.  1.
         21   -1    0    0  501  502  0.00000000000E+00 -0.00000000000E+00 -0.73210366116E+02  0.73210366116E+02  0.00000000000E+00 0.  1.
        -24    2    1    2    0    0 -0.19221070251E+02  0.54831968052E+02  0.75050429610E+02  0.12418586706E+03  0.80084757164E+02 0.  0.
         23    2    1    2    0    0  0.43343623946E+02 -0.30060340460E+02  0.29892509763E+02  0.10929683360E+03  0.90939220853E+02 0.  0.
         11    1    3    3    0    0 -0.68299844983E+01  0.19476962341E+02  0.83304947363E+02  0.85823743833E+02  0.00000000000E+00 0. -1.
        -12    1    3    3    0    0 -0.12391085752E+02  0.35355005710E+02 -0.82545177534E+01  0.38362123224E+02  0.00000000000E+00 0.  1.
        -11    1    4    4    0    0 -0.15446310220E+02 -0.26385130343E+02  0.39145038352E+02  0.49669886553E+02  0.00000000000E+00 0. -1.
         11    1    4    4    0    0  0.58789934165E+02 -0.36752101170E+01 -0.92525285897E+01  0.59626947045E+02  0.00000000000E+00 0.  1.
         -1    1    1    2    0  502 -0.24122553695E+02 -0.24771627592E+02  0.24489777729E+02  0.42370748678E+02  0.00000000000E+00 0.  1.
<scales pt_clust_5="13000.00000" pt_clust_6="13000.00000" pt_clust_7="13000.00000" pt_clust_8="13000.00000" pt_clust_9="34.57647"></scales>
<clustering>
<clus scale="   34.576">  2  9  1 -1</clus>
<clus scale="   80.085">  5  6 -1 -1</clus>
<clus scale="   90.939">  7  8 -1 -1</clus>
<clus scale="   96.334">  1  5  2 -1</clus>
<clus scale="   34.576">  2  5  1 -1</clus>
</clustering>
</event>
<event>
 9    1  0.3197504E-005  0.9377695E+02  0.7546771E-02  0.1294836E+00
         21   -1    0    0  501  502  0.00000000000E+00  0.00000000000E+00  0.26451412958E+02  0.26451412958E+02  0.00000000000E+00 0.  1.
          1   -1    0    0  502    0 -0.00000000000E+00 -0.00000000000E+00 -0.87372629880E+03  0.87372629880E+03  0.00000000000E+00 0. -1.
        -24    2    1    2    0    0  0.34385313361E+02 -0.55580607476E+02 -0.53643215105E+03  0.54616374725E+03  0.79144377106E+02 0.  0.
         23    2    1    2    0    0 -0.95313353260E+01 -0.16009227089E+02 -0.10007791294E+03  0.13003933477E+03  0.80916612777E+02 0.  0.
         13    1    3    3    0    0 -0.19379113594E+02 -0.19644307357E+02 -0.69549048869E+02  0.74823252093E+02  0.00000000000E+00 0. -1.
        -14    1    3    3    0    0  0.53764426956E+02 -0.35936300119E+02 -0.46688310218E+03  0.47134049516E+03  0.00000000000E+00 0.  1.
        -13    1    4    4    0    0 -0.38267006191E+02  0.59945859608E+01 -0.23411162979E+02  0.45259047446E+02  0.00000000000E+00 0. -1.
         13    1    4    4    0    0  0.28735670865E+02 -0.22003813050E+02 -0.76666749965E+02  0.84780287326E+02  0.00000000000E+00 0.  1.
          2    1    1    2  501    0 -0.24853978035E+02  0.71589834565E+02 -0.21076482185E+03  0.22397462974E+03  0.00000000000E+00 0. -1.
<scales pt_clust_5="13000.00000" pt_clust_6="13000.00000" pt_clust_7="13000.00000" pt_clust_8="13000.00000" pt_clust_9="75.78143"></scales>
<clustering>
<clus scale="   75.781">  1  9  2 -1</clus>
<clus scale="   79.144">  5  6 -1 -1</clus>
<clus scale="   80.917">  7  8 -1 -1</clus>
<clus scale="   92.252">  2  5  1 -1</clus>
<clus scale="   75.781">  1  5  2 -1</clus>
</clustering>
</event>
<event>
 9    1  0.3197504E-005  0.1034742E+03  0.7546771E-02  0.1278401E+00
          1   -1    0    0  502    0 -0.00000000000E+00  0.00000000000E+00  0.91528527970E+02  0.91528527970E+02  0.00000000000E+00 0. -1.
         21   -1    0    0  501  502  0.00000000000E+00 -0.00000000000E+00 -0.37943168188E+03  0.37943168188E+03  0.00000000000E+00 0. -1.
         23    2    1    2    0    0  0.38762363389E+02  0.13835419585E+02  0.42447406409E+02  0.11061636537E+03  0.93489348736E+02 0.  0.
        -24    2    1    2    0    0 -0.64727947058E+02 -0.31855750247E+02 -0.28260311730E+03  0.30308336799E+03  0.82404551397E+02 0.  0.
         13    1    4    4    0    0 -0.31282507078E+02 -0.57757034572E+02 -0.14634697621E+03  0.16041168205E+03  0.00000000000E+00 0. -1.
        -14    1    4    4    0    0 -0.33445439980E+02  0.25901284325E+02 -0.13625614108E+03  0.14267168594E+03  0.00000000000E+00 0.  1.
        -11    1    3    3    0    0  0.65984085357E+02 -0.88921969946E+01  0.25292690643E+02  0.71222825609E+02  0.00000000000E+00 0. -1.
         11    1    3    3    0    0 -0.27221721967E+02  0.22727616579E+02  0.17154715766E+02  0.39393539765E+02  0.00000000000E+00 0.  1.
          2    1    1    2  501    0  0.25965583669E+02  0.18020330662E+02 -0.47747443024E+02  0.57260476489E+02  0.00000000000E+00 0. -1.
<scales pt_clust_5="13000.00000" pt_clust_6="13000.00000" pt_clust_7="13000.00000" pt_clust_8="13000.00000" pt_clust_9="31.60607"></scales>
<clustering>
<clus scale="   31.606">  2  9  1 -1</clus>
<clus scale="   82.405">  5  6 -1 -1</clus>
<clus scale="   93.489">  7  8 -1 -1</clus>
<clus scale="   93.580">  2  5  1 -1</clus>
<clus scale="   31.606">  2  5  1 -1</clus>
</clustering>
</event>
<event>
 9    1  0.3197504E-005  0.1059444E+03  0.7546771E-02  0.1273007E+00
          1   -1    0    0  502    0 -0.00000000000E+00  0.00000000000E+00  0.37859224763E+03  0.37859224763E+03  0.00000000000E+00 0. -1.
         21   -1    0    0  501  502  0.00000000000E+00 -0.00000000000E+00 -0.40062034278E+02  0.40062034278E+02  0.00000000000E+00 0.  1.
         23    2    1    2    0    0 -0.44933363778E+02 -0.42825273520E+02  0.14498687498E+03  0.18271607191E+03  0.92254852382E+02 0.  0.
        -24    2    1    2    0    0  0.41864452037E+02  0.14476493276E+02  0.92567759148E+02  0.13101376498E+03  0.81447009639E+02 0.  0.
         13    1    4    4    0    0 -0.65400996947E+01  0.35477842329E+02  0.56732489419E+02  0.67231135317E+02  0.00000000000E+00 0. -1.
        -14    1    4    4    0    0  0.48404551732E+02 -0.21001349053E+02  0.35835269729E+02  0.63782629665E+02  0.00000000000E+00 0.  1.
        -11    1    3    3    0    0 -0.70918019756E+02 -0.33406299983E+02  0.12852577477E+03  0.15054640874E+03  0.00000000000E+00 0.  1.
         11    1    3    3    0    0  0.25984655978E+02 -0.94189735370E+01  0.16461100210E+02  0.32169663177E+02  0.00000000000E+00 0. -1.
          2    1    1    2  501    0  0.30689117410E+01  0.28348780244E+02  0.10097557923E+03  0.10492444502E+03  0.00000000000E+00 0. -1.
<scales pt_clust_5="13000.00000" pt_clust_6="13000.00000" pt_clust_7="13000.00000" pt_clust_8="13000.00000" pt_clust_9="28.51442"></scales>
<clustering>
<clus scale="   28.514">  2  9  1 -1</clus>
<clus scale="   81.447">  5  6 -1 -1</clus>
<clus scale="   92.255">  7  8 -1 -1</clus>
<clus scale="   96.679">  2  5  1 -1</clus>
<clus scale="   28.514">  2  5  1 -1</clus>
</clustering>
</event>
<event>
 9    1  0.3197504E-005  0.1991556E+03  0.7546771E-02  0.1151693E+00
          1   -1    0    0  502    0 -0.00000000000E+00  0.00000000000E+00  0.83321189957E+03  0.83321189957E+03  0.00000000000E+00 0. -1.
         21   -1    0    0  501  502  0.00000000000E+00 -0.00000000000E+00 -0.56724830375E+02  0.56724830375E+02  0.00000000000E+00 0. -1.
         23    2    1    2    0    0  0.81412740881E+02  0.16075570469E+03  0.52112097022E+03  0.55875251092E+03  0.90370746918E+02 0.  0.
        -24    2    1    2    0    0 -0.94605274562E+02 -0.14525212744E+03  0.23886364123E+03  0.30497859054E+03  0.76861974249E+02 0.  0.
         11    1    4    4    0    0 -0.53098378327E+02 -0.26676092030E+02  0.10990904495E+03  0.12494418685E+03  0.00000000000E+00 0. -1.
        -12    1    4    4    0    0 -0.41506896235E+02 -0.11857603541E+03  0.12895459628E+03  0.18003440369E+03  0.00000000000E+00 0.  1.
        -13    1    3    3    0    0  0.80580470026E+02  0.11641503423E+03  0.28192019860E+03  0.31547530921E+03  0.00000000000E+00 0. -1.
         13    1    3    3    0    0  0.83227085569E+00  0.44340670460E+02  0.23920077161E+03  0.24327720171E+03  0.00000000000E+00 0.  1.
          2    1    1    2  501    0  0.13192533681E+02 -0.15503577243E+02  0.16502457752E+02  0.26205628481E+02  0.00000000000E+00 0. -1.
<scales pt_clust_5="13000.00000" pt_clust_6="13000.00000" pt_clust_7="13000.00000" pt_clust_8="13000.00000" pt_clust_9="20.35691"></scales>
<clustering>
<clus scale="   20.357">  2  9  1 -1</clus>
<clus scale="   76.862">  5  6 -1 -1</clus>
<clus scale="   90.371">  7  8 -1 -1</clus>
<clus scale="  193.401">  2  5  1 -1</clus>
<clus scale="   20.357">  2  5  1 -1</clus>
</clustering>
</event>
<event>
 9    1  0.3197504E-005  0.9463535E+02  0.7546771E-02  0.1299772E+00
         21   -1    0    0  501  502  0.00000000000E+00  0.00000000000E+00  0.14962207815E+03  0.14962207815E+03  0.00000000000E+00 0.  1.
          1   -1    0    0  502    0 -0.00000000000E+00 -0.00000000000E+00 -0.11786969325E+03  0.11786969325E+03  0.00000000000E+00 0. -1.
        -24    2    1    2    0    0 -0.76043336885E+01  0.12739924020E+02 -0.15923079434E+02  0.83204612357E+02  0.80307730038E+02 0.  0.
         23    2    1    2    0    0 -0.37177339912E+02 -0.25329912707E+02  0.77244913518E+02  0.12916675965E+03  0.93239026444E+02 0.  0.
         13    1    3    3    0    0 -0.20147227761E+02 -0.13436191757E+02  0.23834841059E+02  0.33978547404E+02  0.00000000000E+00 0. -1.
        -14    1    3    3    0    0  0.12542894072E+02  0.26176115776E+02 -0.39757920493E+02  0.49226064953E+02  0.00000000000E+00 0.  1.
        -11    1    4    4    0    0 -0.18989424833E+01  0.33126458147E+02  0.13710486245E+02  0.35901889156E+02  0.00000000000E+00 0. -1.
         11    1    4    4    0    0 -0.35278397429E+02 -0.58456370853E+02  0.63534427273E+02  0.93264870489E+02  0.00000000000E+00 0.  1.
          2    1    1    2  501    0  0.44781673601E+02  0.12589988687E+02 -0.29569449184E+02  0.55120399406E+02  0.00000000000E+00 0. -1.
<scales pt_clust_5="13000.00000" pt_clust_6="13000.00000" pt_clust_7="13000.00000" pt_clust_8="13000.00000" pt_clust_9="46.51783"></scales>
<clustering>
<clus scale="   46.518">  1  9  2 -1</clus>
<clus scale="   80.308">  5  6 -1 -1</clus>
<clus scale="   81.925">  2  5  1 -1</clus>
<clus scale="   93.239">  7  8 -1 -1</clus>
<clus scale="   46.518">  1  5  2 -1</clus>
</clustering>
</event>
<event>
 9    1  0.3197504E-005  0.1142669E+03  0.7546771E-02  0.1260804E+00
         21   -1    0    0  501  502  0.00000000000E+00  0.00000000000E+00  0.41217413241E+03  0.41217413241E+03  0.00000000000E+00 0.  1.
         -2   -1    0    0    0  501 -0.00000000000E+00 -0.00000000000E+00 -0.10469034936E+03  0.10469034936E+03  0.00000000000E+00 0.  1.
         23    2    1    2    0    0 -0.38930073989E+02  0.32741379532E+02 -0.38326277135E+02  0.10493151746E+03  0.83391673703E+02 0.  0.
        -24    2    1    2    0    0 -0.67716685274E+02 -0.42128150613E+01  0.22536592737E+03  0.24854936848E+03  0.79897997974E+02 0.  0.
         13    1    4    4    0    0  0.74151036773E+01  0.19449797660E+02  0.85802644104E+02  0.88291404603E+02  0.00000000000E+00 0. -1.
        -14    1    4    4    0    0 -0.75131788951E+02 -0.23662612722E+02  0.13956328326E+03  0.16025796388E+03  0.00000000000E+00 0.  1.
        -11    1    3    3    0    0 -0.25328645994E+02  0.11075475663E+02 -0.63366795313E+02  0.69134341809E+02  0.00000000000E+00 0. -1.
         11    1    3    3    0    0 -0.13601427995E+02  0.21665903868E+02  0.25040518178E+02  0.35797175651E+02  0.00000000000E+00 0.  1.
         -1    1    1    2    0  502  0.10664675926E+03 -0.28528564470E+02  0.12044413282E+03  0.16338359582E+03  0.00000000000E+00 0.  1.
<scales pt_clust_5="13000.00000" pt_clust_6="13000.00000" pt_clust_7="13000.00000" pt_clust_8="13000.00000" pt_clust_9="81.68990"></scales>
<clustering>
<clus scale="   79.898">  5  6 -1 -1</clus>
<clus scale="   83.392">  7  8 -1 -1</clus>
<clus scale="   97.682">  2  7  1 -1</clus>
<clus scale="   81.690">  1  9  2 -1</clus>
<clus scale="   81.690">  1  5  2 -1</clus>
</clustering>
</event>
<event>
 9    1  0.3197504E-005  0.1023767E+03  0.7546771E-02  0.1280963E+00
         21   -1    0    0  501  502  0.00000000000E+00  0.00000000000E+00  0.61434282217E+02  0.61434282217E+02  0.00000000000E+00 0. -1.
          1   -1    0    0  502    0 -0.00000000000E+00 -0.00000000000E+00 -0.87280109654E+03  0.87280109654E+03  0.00000000000E+00 0. -1.
        -24    2    1    2    0    0  0.60691761475E+02 -0.21983597278E+02 -0.15535670775E+03  0.18624640734E+03  0.79907753970E+02 0.  0.
         23    2    1    2    0    0  0.35011514793E+02  0.49234896682E+02 -0.29545054949E+02  0.11367027288E+03  0.91641363177E+02 0.  0.
         11    1    3    3    0    0  0.57108564639E+02 -0.21212052584E+02 -0.16502281750E+03  0.17590869684E+03  0.00000000000E+00 0. -1.
        -12    1    3    3    0    0  0.35831968360E+01 -0.77154469446E+00  0.96661097457E+01  0.10337710501E+02  0.00000000000E+00 0.  1.
        -11    1    4    4    0    0  0.54293807541E+02  0.14624034944E+02  0.10653072025E+02  0.57229082458E+02  0.00000000000E+00 0. -1.
         11    1    4    4    0    0 -0.19282292749E+02  0.34610861738E+02 -0.40198126974E+02  0.56441190421E+02  0.00000000000E+00 0.  1.
          2    1    1    2  501    0 -0.95703276268E+02 -0.27251299403E+02 -0.62646505162E+03  0.63431869854E+03  0.00000000000E+00 0. -1.
<scales pt_clust_5="13000.00000" pt_clust_6="13000.00000" pt_clust_7="13000.00000" pt_clust_8="13000.00000" pt_clust_9="99.50759"></scales>
<clustering>
<clus scale="   79.908">  5  6 -1 -1</clus>
<clus scale="   91.641">  7  8 -1 -1</clus>
<clus scale="   99.508">  1  9  2 -1</clus>
<clus scale="   92.022">  2  5  1 -1</clus>
<clus scale="   99.508">  1  5  2 -1</clus>
</clustering>
</event>
<event>
 9    1  0.3197504E-005  0.1040235E+03  0.7546771E-02  0.1278006E+00
         21   -1    0    0  501  502  0.00000000000E+00  0.00000000000E+00  0.26450699272E+03  0.26450699272E+03  0.00000000000E+00 0.  1.
          3   -1    0    0  502    0 -0.00000000000E+00 -0.00000000000E+00 -0.82639276185E+02  0.82639276185E+02  0.00000000000E+00 0. -1.
        -24    2    1    2    0    0 -0.29426163005E+02  0.37988610004E+02 -0.21712383617E+02  0.96149531137E+02  0.80400691392E+02 0.  0.
         23    2    1    2    0    0  0.51327372073E+02 -0.65483718733E+01  0.13035640044E+03  0.16835376025E+03  0.93127961206E+02 0.  0.
         11    1    3    3    0    0 -0.34906672574E+02  0.60647046356E+02 -0.19987957313E+02  0.72774023247E+02  0.00000000000E+00 0. -1.
        -12    1    3    3    0    0  0.54805095690E+01 -0.22658436352E+02 -0.17244263041E+01  0.23375507891E+02  0.00000000000E+00 0.  1.
        -13    1    4    4    0    0  0.61593071465E+02  0.16356783060E+02  0.12819374292E+03  0.14316035250E+03  0.00000000000E+00 0.  1.
         13    1    4    4    0    0 -0.10265699392E+02 -0.22905154934E+02  0.21626575154E+01  0.25193407750E+02  0.00000000000E+00 0. -1.
          4    1    1    2  501    0 -0.21901209068E+02 -0.31440238131E+02  0.73223699712E+02  0.82642977511E+02  0.00000000000E+00 0. -1.
<scales pt_clust_5="13000.00000" pt_clust_6="13000.00000" pt_clust_7="13000.00000" pt_clust_8="13000.00000" pt_clust_9="38.31647"></scales>
<clustering>
<clus scale="   38.316">  1  9  2 -1</clus>
<clus scale="   80.401">  5  6 -1 -1</clus>
<clus scale="   92.803">  2  5  1 -1</clus>
<clus scale="   93.128">  7  8 -1 -1</clus>
<clus scale="   38.316">  1  5  2 -1</clus>
</clustering>
</event>
<event>
 9    1  0.3197504E-005  0.9678412E+02  0.7546771E-02  0.1292494E+00
          3   -1    0    0  502    0 -0.00000000000E+00  0.00000000000E+00  0.40288339339E+03  0.40288339339E+03  0.00000000000E+00 0. -1.
         21   -1    0    0  501  502  0.00000000000E+00 -0.00000000000E+00 -0.47944914089E+02  0.47944914089E+02  0.00000000000E+00 0.  1.
        -24    2    1    2    0    0  0.13485097883E+02 -0.23473907214E+02  0.93222496085E+02  0.12709850312E+03  0.82040986918E+02 0.  0.
         23    2    1    2    0    0  0.29643802673E+02  0.42841339712E+02  0.70797709301E+02  0.12704481047E+03  0.91727492068E+02 0.  0.
         11    1    3    3    0    0  0.30448996459E+02  0.19381431022E+02  0.60939005337E+02  0.70826150716E+02  0.00000000000E+00 0. -1.
        -12    1    3    3    0    0 -0.16963898576E+02 -0.42855338236E+02  0.32283490748E+02  0.56272352404E+02  0.00000000000E+00 0.  1.
        -11    1    4    4    0    0  0.33871783687E+02  0.22373673483E+02 -0.11454240834E+02  0.42179125505E+02  0.00000000000E+00 0.  1.
         11    1    4    4    0    0 -0.42279810143E+01  0.20467666229E+02  0.82251950135E+02  0.84865684970E+02  0.00000000000E+00 0. -1.
          4    1    1    2  501    0 -0.43128900556E+02 -0.19367432498E+02  0.19091827391E+03  0.19668499388E+03  0.00000000000E+00 0. -1.
<scales pt_clust_5="13000.00000" pt_clust_6="13000.00000" pt_clust_7="13000.00000" pt_clust_8="13000.00000" pt_clust_9="47.27792"></scales>
<clustering>
<clus scale="   47.278">  2  9  1 -1</clus>
<clus scale="   82.041">  5  6 -1 -1</clus>
<clus scale="   87.658">  1  5  2 -1</clus>
<clus scale="   91.727">  7  8 -1 -1</clus>
<clus scale="   47.278">  2  5  1 -1</clus>
</clustering>
</event>
<event>
 9    1  0.3197504E-005  0.9679125E+02  0.7546771E-02  0.1289680E+00
         21   -1    0    0  501  502  0.00000000000E+00  0.00000000000E+00  0.57562188131E+03  0.57562188131E+03  0.00000000000E+00 0. -1.
          1   -1    0    0  502    0 -0.00000000000E+00 -0.00000000000E+00 -0.21603541084E+03  0.21603541084E+03  0.00000000000E+00 0. -1.
        -24    2    1    2    0    0  0.10960118091E+02 -0.18155885000E+02 -0.18267766648E+03  0.20667729631E+03  0.94311264592E+02 0.  0.
         23    2    1    2    0    0  0.59714714805E+02  0.72774487506E+02  0.32645510455E+03  0.35141702315E+03  0.89772020568E+02 0.  0.
         11    1    3    3    0    0  0.29621763519E+02 -0.46328735039E+02 -0.14961544233E+03  0.15940069369E+03  0.00000000000E+00 0. -1.
        -12    1    3    3    0    0 -0.18661645428E+02  0.28172850039E+02 -0.33062224149E+02  0.47276602618E+02  0.00000000000E+00 0.  1.
        -13    1    4    4    0    0  0.48237967689E+02  0.14335112097E+02  0.59631137137E+02  0.78027363674E+02  0.00000000000E+00 0. -1.
         13    1    4    4    0    0  0.11476747115E+02  0.58439375409E+02  0.26682396741E+03  0.27338965947E+03  0.00000000000E+00 0.  1.
          2    1    1    2  501    0 -0.70674832895E+02 -0.54618602506E+02  0.21580903241E+03  0.23356297269E+03  0.00000000000E+00 0. -1.
<scales pt_clust_5="13000.00000" pt_clust_6="13000.00000" pt_clust_7="13000.00000" pt_clust_8="13000.00000" pt_clust_9="89.32034"></scales>
<clustering>
<clus scale="   89.320">  1  9  2 -1</clus>
<clus scale="   89.772">  7  8 -1 -1</clus>
<clus scale="   92.374">  1  7  2 -1</clus>
<clus scale="   94.311">  5  6 -1 -1</clus>
<clus scale="   89.320">  1  5  2 -1</clus>
</clustering>
</event>
<event>
 9    1  0.3197504E-005  0.2095659E+03  0.7546771E-02  0.1170525E+00
         21   -1    0    0  501  502  0.00000000000E+00  0.00000000000E+00  0.12335925280E+03  0.12335925280E+03  0.00000000000E+00 0. -1.
          1   -1    0    0  502    0 -0.00000000000E+00 -0.00000000000E+00 -0.52450377360E+03  0.52450377360E+03  0.00000000000E+00 0. -1.
        -24    2    1    2    0    0 -0.22530154808E+02  0.44230484112E+02 -0.78795178707E+02  0.13301435055E+03  0.94974700125E+02 0.  0.
         23    2    1    2    0    0  0.18533454906E+03  0.49857716991E+02 -0.15672921359E+03  0.26427356269E+03  0.91879173502E+02 0.  0.
         11    1    3    3    0    0 -0.56659719728E+02  0.25578062247E+02 -0.25867432594E+02  0.67332645700E+02  0.00000000000E+00 0. -1.
        -12    1    3    3    0    0  0.34129564920E+02  0.18652421865E+02 -0.52927746113E+02  0.65681704848E+02  0.00000000000E+00 0.  1.
        -11    1    4    4    0    0  0.15404636833E+03  0.27971252187E+02 -0.16250503969E+03  0.22565584962E+03  0.00000000000E+00 0. -1.
         11    1    4    4    0    0  0.31288180728E+02  0.21886464805E+02  0.57758261012E+01  0.38617713061E+02  0.00000000000E+00 0.  1.
          2    1    1    2  501    0 -0.16280439425E+03 -0.94088201104E+02 -0.16562012850E+03  0.25057511317E+03  0.00000000000E+00 0. -1.
<scales pt_clust_5="13000.00000" pt_clust_6="13000.00000" pt_clust_7="13000.00000" pt_clust_8="13000.00000" pt_clust_9="188.35101"></scales>
<clustering>
<clus scale="   91.879">  7  8 -1 -1</clus>
<clus scale="   94.975">  5  6 -1 -1</clus>
<clus scale="  107.164">  2  5  1 -1</clus>
<clus scale="  188.351">  1  9  2 -1</clus>
<clus scale="  188.351">  1  5  2 -1</clus>
</clustering>
</event>
<event>
 9    1  0.3197504E-005  0.1069643E+03  0.7546771E-02  0.1272094E+00
         -4   -1    0    0    0  501 -0.00000000000E+00  0.00000000000E+00  0.49655007610E+03  0.49655007610E+03  0.00000000000E+00 0.  1.
         21   -1    0    0  501  502  0.00000000000E+00 -0.00000000000E+00 -0.26056789475E+02  0.26056789475E+02  0.00000000000E+00 0.  1.
         23    2    1    2    0    0  0.20922978041E+02 -0.36550847883E+02  0.20975334764E+03  0.23318834872E+03  0.92771782579E+02 0.  0.
        -24    2    1    2    0    0 -0.38149755199E+02  0.52127150278E+02  0.21043845395E+03  0.23401434333E+03  0.79408603836E+02 0.  0.
         11    1    4    4    0    0 -0.29656813163E+02  0.64880847564E+02  0.10183867643E+03  0.12433891975E+03  0.00000000000E+00 0. -1.
        -12    1    4    4    0    0 -0.84929420354E+01 -0.12753697286E+02  0.10859977752E+03  0.10967542358E+03  0.00000000000E+00 0.  1.
        -13    1    3    3    0    0  0.13565428942E+02 -0.63935272087E+02  0.97289345294E+02  0.11720476350E+03  0.00000000000E+00 0.  1.
         13    1    3    3    0    0  0.73575490991E+01  0.27384424204E+02  0.11246400234E+03  0.11598358522E+03  0.00000000000E+00 0. -1.
         -3    1    1    2    0  502  0.17226777158E+02 -0.15576302395E+02  0.50301485036E+02  0.55404173529E+02  0.00000000000E+00 0.  1.
<scales pt_clust_5="13000.00000" pt_clust_6="13000.00000" pt_clust_7="13000.00000" pt_clust_8="13000.00000" pt_clust_9="23.22463"></scales>
<clustering>
<clus scale="   23.225">  2  9  1 -1</clus>
<clus scale="   79.409">  5  6 -1 -1</clus>
<clus scale="   92.772">  7  8 -1 -1</clus>
<clus scale="   95.606">  2  5  1 -1</clus>
<clus scale="   23.225">  2  5  1 -1</clus>
</clustering>
</event>
<event>
 9    1  0.3197504E-005  0.9621281E+02  0.7546771E-02  0.1294198E+00
          1   -1    0    0  502    0 -0.00000000000E+00  0.00000000000E+00  0.13897939130E+03  0.13897939130E+03  0.00000000000E+00 0. -1.
         21   -1    0    0  501  502  0.00000000000E+00 -0.00000000000E+00 -0.37724831857E+03  0.37724831857E+03  0.00000000000E+00 0. -1.
        -24    2    1    2    0    0 -0.26319560441E+02  0.77846613879E+01  0.10354275850E+03  0.13470862499E+03  0.81682253844E+02 0.  0.
         23    2    1    2    0    0  0.30794229871E+02 -0.50823127532E+02 -0.30713636445E+03  0.32606901596E+03  0.91961850329E+02 0.  0.
         11    1    3    3    0    0 -0.32404141585E+02  0.40687307621E+02  0.54488943990E+02  0.75329479027E+02  0.00000000000E+00 0. -1.
        -12    1    3    3    0    0  0.60845811434E+01 -0.32902646233E+02  0.49053814510E+02  0.59379145959E+02  0.00000000000E+00 0.  1.
        -11    1    4    4    0    0 -0.29338906350E+02 -0.35833852535E+01 -0.53088631761E+02  0.60761952717E+02  0.00000000000E+00 0.  1.
         11    1    4    4    0    0  0.60133136221E+02 -0.47239742279E+02 -0.25404773269E+03  0.26530706325E+03  0.00000000000E+00 0. -1.
          2    1    1    2  501    0 -0.44746694301E+01  0.43038466144E+02 -0.34675321317E+02  0.55450068918E+02  0.00000000000E+00 0. -1.
<scales pt_clust_5="13000.00000" pt_clust_6="13000.00000" pt_clust_7="13000.00000" pt_clust_8="13000.00000" pt_clust_9="43.27045"></scales>
<clustering>
<clus scale="   43.270">  2  9  1 -1</clus>
<clus scale="   81.682">  5  6 -1 -1</clus>
<clus scale="   86.440">  1  5  2 -1</clus>
<clus scale="   91.962">  7  8 -1 -1</clus>
<clus scale="   43.270">  2  5  1 -1</clus>
</clustering>
</event>
<event>
 9    1  0.3197504E-005  0.1971124E+03  0.7546771E-02  0.1152878E+00
          1   -1    0    0  502    0 -0.00000000000E+00  0.00000000000E+00  0.31159400181E+03  0.31159400181E+03  0.00000000000E+00 0. -1.
         21   -1    0    0  501  502  0.00000000000E+00 -0.00000000000E+00 -0.80899786310E+03  0.80899786310E+03  0.00000000000E+00 0.  1.
         23    2    1    2    0    0 -0.55867917283E+02  0.16044684894E+03  0.22219764595E+03  0.29294472482E+03  0.87065506484E+02 0.  0.
        -24    2    1    2    0    0  0.27285222220E+02 -0.25642535918E+03 -0.33492445362E+03  0.43014835963E+03  0.79716833078E+02 0.  0.
         11    1    4    4    0    0  0.29539629072E+02 -0.67739187526E+02 -0.14317317510E+03  0.16112028203E+03  0.00000000000E+00 0. -1.
        -12    1    4    4    0    0 -0.22544068514E+01 -0.18868617165E+03 -0.19175127852E+03  0.26902807760E+03  0.00000000000E+00 0.  1.
        -11    1    3    3    0    0 -0.31398853578E+02  0.10969193274E+03  0.20398945402E+03  0.23373041194E+03  0.00000000000E+00 0. -1.
         11    1    3    3    0    0 -0.24469063705E+02  0.50754916193E+02  0.18208191930E+02  0.59214312879E+02  0.00000000000E+00 0.  1.
          2    1    1    2  501    0  0.28582695063E+02  0.95978510241E+02 -0.38467705363E+03  0.39749878046E+03  0.00000000000E+00 0. -1.
<scales pt_clust_5="13000.00000" pt_clust_6="13000.00000" pt_clust_7="13000.00000" pt_clust_8="13000.00000" pt_clust_9="100.14412"></scales>
<clustering>
<clus scale="   79.717">  5  6 -1 -1</clus>
<clus scale="   87.066">  7  8 -1 -1</clus>
<clus scale="  100.144">  2  9  1 -1</clus>
<clus scale="  193.978">  2  5  1 -1</clus>
<clus scale="  100.144">  2  5  1 -1</clus>
</clustering>
</event>
<event>
 9    1  0.3197504E-005  0.1015987E+03  0.7546771E-02  0.1296933E+00
         21   -1    0    0  501  502  0.00000000000E+00  0.00000000000E+00  0.81456389139E+03  0.81456389139E+03  0.00000000000E+00 0. -1.
          1   -1    0    0  502    0 -0.00000000000E+00 -0.00000000000E+00 -0.20335961256E+02  0.20335961256E+02  0.00000000000E+00 0. -1.
         23    2    1    2    0    0 -0.49909572104E+01 -0.14637796738E+01  0.33971724607E+03  0.35315977891E+03  0.96368925776E+02 0.  0.
        -24    2    1    2    0    0 -0.63921547380E+02  0.12399323360E+02  0.30454727237E+03  0.31633891216E+03  0.55511789735E+02 0.  0.
         11    1    4    4    0    0 -0.73762614830E+02  0.68893367324E+01  0.27115964405E+03  0.28109773899E+03  0.00000000000E+00 0. -1.
        -12    1    4    4    0    0  0.98410674501E+01  0.55099866274E+01  0.33387628324E+02  0.35241173169E+02  0.00000000000E+00 0.  1.
        -11    1    3    3    0    0 -0.24066902829E+02 -0.37971008475E+02  0.96231381359E+02  0.10621436840E+03  0.00000000000E+00 0.  1.
         11    1    3    3    0    0  0.19075945619E+02  0.36507228802E+02  0.24348586471E+03  0.24694541051E+03  0.00000000000E+00 0. -1.
          2    1    1    2  501    0  0.68912504590E+02 -0.10935543686E+02  0.14996341169E+03  0.16540116157E+03  0.00000000000E+00 0. -1.
<scales pt_clust_5="13000.00000" pt_clust_6="13000.00000" pt_clust_7="13000.00000" pt_clust_8="13000.00000" pt_clust_9="69.77481"></scales>
<clustering>
<clus scale="   55.512">  5  6 -1 -1</clus>
<clus scale="   69.775">  1  9  2 -1</clus>
<clus scale="   69.775">  1  5  2 -1</clus>
<clus scale="   96.369">  7  8 -1 -1</clus>
<clus scale="   69.775">  1  5  2 -1</clus>
</clustering>
</event>
<event>
 9    1  0.3197504E-005  0.3870088E+03  0.7546771E-02  0.1048515E+00
          3   -1    0    0  502    0 -0.00000000000E+00  0.00000000000E+00  0.23762619373E+03  0.23762619373E+03  0.00000000000E+00 0. -1.
         21   -1    0    0  501  502  0.00000000000E+00 -0.00000000000E+00 -0.12703785131E+04  0.12703785131E+04  0.00000000000E+00 0. -1.
        -24    2    1    2    0    0 -0.22811782194E+03 -0.26620642010E+03 -0.22427019984E+03  0.42470458500E+03  0.84695119058E+02 0.  0.
         23    2    1    2    0    0  0.17668218543E+03  0.42242023727E+03 -0.79016035119E+03  0.91781879788E+03  0.91556068290E+02 0.  0.
         13    1    3    3    0    0 -0.50947574449E+02 -0.14752571102E+02 -0.31397876515E+02  0.61637004681E+02  0.00000000000E+00 0. -1.
        -14    1    3    3    0    0 -0.17717024749E+03 -0.25145384900E+03 -0.19287232333E+03  0.36306758032E+03  0.00000000000E+00 0.  1.
        -11    1    4    4    0    0  0.54145674192E+01  0.11298134348E+03 -0.18129242397E+03  0.21368445078E+03  0.00000000000E+00 0.  1.
         11    1    4    4    0    0  0.17126761801E+03  0.30943889379E+03 -0.60886792722E+03  0.70413434710E+03  0.00000000000E+00 0. -1.
          4    1    1    2  501    0  0.51435636506E+02 -0.15621381717E+03 -0.18321768318E+02  0.16548132393E+03  0.00000000000E+00 0. -1.
<scales pt_clust_5="13000.00000" pt_clust_6="13000.00000" pt_clust_7="13000.00000" pt_clust_8="13000.00000" pt_clust_9="164.46400"></scales>
<clustering>
<clus scale="   84.695">  5  6 -1 -1</clus>
<clus scale="   91.556">  7  8 -1 -1</clus>
<clus scale="  164.464">  2  9  1 -1</clus>
<clus scale="  385.443">  1  5  2 -1</clus>
<clus scale="  164.464">  2  5  1 -1</clus>
</clustering>
</event>
<event>
 9    1  0.3197504E-005  0.9872964E+02  0.7546771E-02  0.1289812E+00
         21   -1    0    0  501  502  0.00000000000E+00  0.00000000000E+00  0.11079280155E+03  0.11079280155E+03  0.00000000000E+00 0. -1.
          1   -1    0    0  502    0 -0.00000000000E+00 -0.00000000000E+00 -0.23969655039E+03  0.23969655039E+03  0.00000000000E+00 0. -1.
         23    2    1    2    0    0 -0.22805105488E+02  0.21877029055E+02 -0.11686328572E+03  0.15231987199E+03  0.92442623372E+02 0.  0.
        -24    2    1    2    0    0 -0.23864300180E+02 -0.73314508854E+02  0.32710486487E+02  0.11554687261E+03  0.79602649529E+02 0.  0.
         13    1    4    4    0    0 -0.41089740521E+02 -0.81633388791E+02  0.30210725250E+02  0.96255206933E+02  0.00000000000E+00 0. -1.
        -14    1    4    4    0    0  0.17225440341E+02  0.83188799370E+01  0.24997612367E+01  0.19291665677E+02  0.00000000000E+00 0.  1.
        -11    1    3    3    0    0  0.21927713449E+02 -0.24527535161E+02 -0.33615555485E+02  0.47036477001E+02  0.00000000000E+00 0.  1.
         11    1    3    3    0    0 -0.44732818937E+02  0.46404564215E+02 -0.83247730239E+02  0.10528339499E+03  0.00000000000E+00 0. -1.
          2    1    1    2  501    0  0.46669405667E+02  0.51437479799E+02 -0.44750949610E+02  0.82622607344E+02  0.00000000000E+00 0. -1.
<scales pt_clust_5="13000.00000" pt_clust_6="13000.00000" pt_clust_7="13000.00000" pt_clust_8="13000.00000" pt_clust_9="69.45396"></scales>
<clustering>
<clus scale="   69.454">  1  9  2 -1</clus>
<clus scale="   79.603">  5  6 -1 -1</clus>
<clus scale="   86.824">  1  5  2 -1</clus>
<clus scale="   92.443">  7  8 -1 -1</clus>
<clus scale="   69.454">  1  5  2 -1</clus>
</clustering>
</event>
<event>
 9    1  0.3197504E-005  0.1078767E+03  0.7546771E-02  0.1267312E+00
         21   -1    0    0  501  502  0.00000000000E+00  0.00000000000E+00  0.31195057389E+03  0.31195057389E+03  0.00000000000E+00 0.  1.
         -4   -1    0    0    0  501 -0.00000000000E+00 -0.00000000000E+00 -0.46361491261E+02  0.46361491261E+02  0.00000000000E+00 0.  1.
        -24    2    1    2    0    0 -0.41968681463E+02 -0.23604774940E+02  0.91301159406E+02  0.13395004796E+03  0.85370709359E+02 0.  0.
         23    2    1    2    0    0  0.48509634966E+02  0.48359305477E+02  0.13171348329E+03  0.17468149997E+03  0.92050951339E+02 0.  0.
         11    1    3    3    0    0  0.63303377304E+01  0.25437924325E+02  0.11673854151E+02  0.28695644974E+02  0.00000000000E+00 0. -1.
        -12    1    3    3    0    0 -0.48299019193E+02 -0.49042699265E+02  0.79627305255E+02  0.10525440299E+03  0.00000000000E+00 0.  1.
        -13    1    4    4    0    0 -0.41485295883E+01  0.32686634718E+02  0.10819529848E+01  0.32966604454E+02  0.00000000000E+00 0.  1.
         13    1    4    4    0    0  0.52658164554E+02  0.15672670758E+02  0.13063153030E+03  0.14171489552E+03  0.00000000000E+00 0. -1.
         -3    1    1    2    0  502 -0.65409535034E+01 -0.24754530537E+02  0.42574439936E+02  0.49680517214E+02  0.00000000000E+00 0.  1.
<scales pt_clust_5="13000.00000" pt_clust_6="13000.00000" pt_clust_7="13000.00000" pt_clust_8="13000.00000" pt_clust_9="25.60412"></scales>
<clustering>
<clus scale="   25.604">  1  9  2 -1</clus>
<clus scale="   85.371">  5  6 -1 -1</clus>
<clus scale="   92.051">  7  8 -1 -1</clus>
<clus scale="  102.236">  2  5  1 -1</clus>
<clus scale="   25.604">  1  5  2 -1</clus>
</clustering>
</event>
<event>
 9    1  0.3197504E-005  0.1132602E+03  0.7546771E-02  0.1257320E+00
         21   -1    0    0  501  502  0.00000000000E+00  0.00000000000E+00  0.33497142532E+03  0.33497142532E+03  0.00000000000E+00 0. -1.
          1   -1    0    0  502    0 -0.00000000000E+00 -0.00000000000E+00 -0.13389361263E+03  0.13389361263E+03  0.00000000000E+00 0. -1.
        -24    2    1    2    0    0 -0.77650838410E+00  0.71662124168E+02 -0.70251622547E+02  0.13268761728E+03  0.86802363467E+02 0.  0.
         23    2    1    2    0    0 -0.52417590289E+02 -0.27461735997E+02  0.92691344695E+02  0.14461841189E+03  0.93920439527E+02 0.  0.
         11    1    3    3    0    0 -0.28046486306E+02  0.79115476087E+02 -0.57015018734E+02  0.10147204695E+03  0.00000000000E+00 0. -1.
        -12    1    3    3    0    0  0.27269977922E+02 -0.74533519185E+01 -0.13236603813E+02  0.31215570332E+02  0.00000000000E+00 0.  1.
        -13    1    4    4    0    0 -0.63102997073E+00 -0.34578903746E+02 -0.38855129583E+01  0.34802241222E+02  0.00000000000E+00 0.  1.
         13    1    4    4    0    0 -0.51786560319E+02  0.71171677494E+01  0.96576857653E+02  0.10981617067E+03  0.00000000000E+00 0. -1.
          2    1    1    2  501    0  0.53194098673E+02 -0.44200388171E+02  0.17863809055E+03  0.19155900878E+03  0.00000000000E+00 0. -1.
<scales pt_clust_5="13000.00000" pt_clust_6="13000.00000" pt_clust_7="13000.00000" pt_clust_8="13000.00000" pt_clust_9="69.16131"></scales>
<clustering>
<clus scale="   69.161">  1  9  2 -1</clus>
<clus scale="   86.802">  5  6 -1 -1</clus>
<clus scale="   93.920">  7  8 -1 -1</clus>
<clus scale="  107.431">  2  5  1 -1</clus>
<clus scale="   69.161">  1  5  2 -1</clus>
</clustering>
</event>
<event>
 9    1  0.3197504E-005  0.9011694E+02  0.7546771E-02  0.1309867E+00
         -2   -1    0    0    0  501 -0.00000000000E+00  0.00000000000E+00  0.15246440373E+03  0.15246440373E+03  0.00000000000E+00 0.  1.
         21   -1    0    0  501  502  0.00000000000E+00 -0.00000000000E+00 -0.67252551321E+02  0.67252551321E+02  0.00000000000E+00 0. -1.
        -24    2    1    2    0    0  0.10113927239E+02 -0.12399783340E+02  0.41702271400E+02  0.89879772190E+02  0.77995178428E+02 0.  0.
         23    2    1    2    0    0  0.10356172747E+02  0.99892884447E+01  0.10752484369E+02  0.91134949598E+02  0.89347226709E+02 0.  0.
         11    1    3    3    0    0  0.41159518779E+02 -0.19265971879E+02  0.35059881527E+02  0.57397551788E+02  0.00000000000E+00 0. -1.
        -12    1    3    3    0    0 -0.31045591539E+02  0.68661885387E+01  0.66423898729E+01  0.32482220403E+02  0.00000000000E+00 0.  1.
        -13    1    4    4    0    0  0.21377217036E+02  0.46735419258E+02  0.37881281257E+00  0.51393854891E+02  0.00000000000E+00 0. -1.
         13    1    4    4    0    0 -0.11021044289E+02 -0.36746130813E+02  0.10373671556E+02  0.39741094707E+02  0.00000000000E+00 0.  1.
         -1    1    1    2    0  502 -0.20470099986E+02  0.24104948954E+01  0.32757096639E+02  0.38702233260E+02  0.00000000000E+00 0.  1.
<scales pt_clust_5="13000.00000" pt_clust_6="13000.00000" pt_clust_7="13000.00000" pt_clust_8="13000.00000" pt_clust_9="20.61155"></scales>
<clustering>
<clus scale="   20.612">  2  9  1 -1</clus>
<clus scale="   77.995">  5  6 -1 -1</clus>
<clus scale="   78.876">  1  5  2 -1</clus>
<clus scale="   89.347">  7  8 -1 -1</clus>
<clus scale="   20.612">  2  5  1 -1</clus>
</clustering>
</event>
<event>
 9    1  0.3197504E-005  0.1586829E+03  0.7546771E-02  0.1208853E+00
          3   -1    0    0  502    0 -0.00000000000E+00  0.00000000000E+00  0.19060040155E+03  0.19060040155E+03  0.00000000000E+00 0. -1.
         21   -1    0    0  501  502  0.00000000000E+00 -0.00000000000E+00 -0.28151179489E+03  0.28151179489E+03  0.00000000000E+00 0. -1.
         23    2    1    2    0    0  0.52015996946E+02 -0.34704904812E+01 -0.13847777520E+03  0.17424943642E+03  0.92027515582E+02 0.  0.
        -24    2    1    2    0    0 -0.13808116997E+03 -0.70564967067E+02  0.26002457003E+02  0.18230556277E+03  0.92267905408E+02 0.  0.
         13    1    4    4    0    0 -0.90615714567E+02 -0.90533856752E+02  0.26517278003E+02  0.13080807688E+03  0.00000000000E+00 0. -1.
        -14    1    4    4    0    0 -0.47465455403E+02  0.19968889685E+02 -0.51482099937E+00  0.51497485885E+02  0.00000000000E+00 0.  1.
        -11    1    3    3    0    0  0.16760594429E+02 -0.36678834082E+02 -0.11202739896E+03  0.11906465686E+03  0.00000000000E+00 0. -1.
         11    1    3    3    0    0  0.35255402518E+02  0.33208343600E+02 -0.26450376239E+02  0.55184779555E+02  0.00000000000E+00 0.  1.
          4    1    1    2  501    0  0.86065173023E+02  0.74035457548E+02  0.21563924862E+02  0.11555719725E+03  0.00000000000E+00 0. -1.
<scales pt_clust_5="13000.00000" pt_clust_6="13000.00000" pt_clust_7="13000.00000" pt_clust_8="13000.00000" pt_clust_9="129.10036"></scales>
<clustering>
<clus scale="   92.028">  7  8 -1 -1</clus>
<clus scale="   92.268">  5  6 -1 -1</clus>
<clus scale="  105.768">  1  7  2 -1</clus>
<clus scale="  129.100">  2  9  1 -1</clus>
<clus scale="  129.100">  2  5  1 -1</clus>
</clustering>
</event>
<event>
 9    1  0.3197504E-005  0.8566144E+02  0.7546771E-02  0.1314462E+00
          1   -1    0    0  502    0 -0.00000000000E+00  0.00000000000E+00  0.53912806735E+03  0.53912806735E+03  0.00000000000E+00 0. -1.
         21   -1    0    0  501  502  0.00000000000E+00 -0.00000000000E+00 -0.35636773829E+02  0.35636773829E+02  0.00000000000E+00 0. -1.
        -24    2    1    2    0    0 -0.45927407412E+02 -0.35078183161E+01  0.20716529839E+03  0.22698869256E+03  0.80528095408E+02 0.  0.
         23    2    1    2    0    0 -0.10701167713E+02 -0.39147092710E+02  0.78611944181E+02  0.11880967742E+03  0.79302533518E+02 0.  0.
         13    1    3    3    0    0 -0.57394646745E+02 -0.28871223818E+02  0.15662929398E+03  0.16929391239E+03  0.00000000000E+00 0. -1.
        -14    1    3    3    0    0  0.11467239333E+02  0.25363405502E+02  0.50536004410E+02  0.57694780165E+02  0.00000000000E+00 0.  1.
        -11    1    4    4    0    0 -0.99190297444E+01  0.22629655052E+02  0.36364400859E+02  0.43964281965E+02  0.00000000000E+00 0.  1.
         11    1    4    4    0    0 -0.78213796864E+00 -0.61776747763E+02  0.42247543321E+02  0.74845395454E+02  0.00000000000E+00 0. -1.
          2    1    1    2  501    0  0.56628575125E+02  0.42654911027E+02  0.21771405095E+03  0.22896647121E+03  0.00000000000E+00 0. -1.
<scales pt_clust_5="13000.00000" pt_clust_6="13000.00000" pt_clust_7="13000.00000" pt_clust_8="13000.00000" pt_clust_9="70.89599"></scales>
<clustering>
<clus scale="   70.896">  2  9  1 -1</clus>
<clus scale="   79.303">  7  8 -1 -1</clus>
<clus scale="   80.528">  5  6 -1 -1</clus>
<clus scale="   84.510">  2  7  1 -1</clus>
<clus scale="   70.896">  2  5  1 -1</clus>
</clustering>
</event>
<event>
 9    1  0.3197504E-005  0.1235640E+03  0.7546771E-02  0.1241080E+00
          3   -1    0    0  502    0 -0.00000000000E+00  0.00000000000E+00  0.50228609358E+03  0.50228609358E+03  0.00000000000E+00 0. -1.
         21   -1    0    0  501  502  0.00000000000E+00 -0.00000000000E+00 -0.44068075583E+02  0.44068075583E+02  0.00000000000E+00 0. -1.
        -24    2    1    2    0    0  0.77979205668E+02 -0.52070404481E+02  0.27603079380E+03  0.30259334918E+03  0.81102726862E+02 0.  0.
         23    2    1    2    0    0 -0.51040555792E+02  0.40217392174E+02  0.18159002562E+03  0.21432374465E+03  0.93472740133E+02 0.  0.
         13    1    3    3    0    0  0.13528385583E+02 -0.57407170539E+02  0.12078129724E+03  0.13441250764E+03  0.00000000000E+00 0. -1.
        -14    1    3    3    0    0  0.64450820085E+02  0.53367660585E+01  0.15524949656E+03  0.16818084154E+03  0.00000000000E+00 0.  1.
        -11    1    4    4    0    0 -0.10487394378E+02  0.31710162429E+02  0.60290639829E+01  0.33939202328E+02  0.00000000000E+00 0.  1.
         11    1    4    4    0    0 -0.40553161414E+02  0.85072297447E+01  0.17556096164E+03  0.18038454232E+03  0.00000000000E+00 0. -1.
          4    1    1    2  501    0 -0.26938649877E+02  0.11853012307E+02  0.59719858052E+00  0.29437075331E+02  0.00000000000E+00 0. -1.
<scales pt_clust_5="13000.00000" pt_clust_6="13000.00000" pt_clust_7="13000.00000" pt_clust_8="13000.00000" pt_clust_9="29.43102"></scales>
<clustering>
<clus scale="   29.431">  2  9  1 -1</clus>
<clus scale="   81.103">  5  6 -1 -1</clus>
<clus scale="   93.473">  7  8 -1 -1</clus>
<clus scale="  114.493">  1  5  2 -1</clus>
<clus scale="   29.431">  2  5  1 -1</clus>
</clustering>
</event>
<event>
 9    1  0.3197504E-005  0.1497211E+03  0.7546771E-02  0.1201804E+00
         21   -1    0    0  501  502  0.00000000000E+00  0.00000000000E+00  0.84357476634E+02  0.84357476634E+02  0.00000000000E+00 0. -1.
          1   -1    0    0  502    0 -0.00000000000E+00 -0.00000000000E+00 -0.52810409907E+03  0.52810409907E+03  0.00000000000E+00 0. -1.
        -24    2    1    2    0    0 -0.12529791010E+03 -0.41707860543E+02 -0.31810028450E+03  0.35389659492E+03  0.81338164418E+02 0.  0.
         23    2    1    2    0    0  0.63809283898E+02  0.89104463606E+02 -0.45779130508E+02  0.14718248684E+03  0.86923676276E+02 0.  0.
         13    1    3    3    0    0 -0.12662947296E+03 -0.46371665696E+02 -0.32104864099E+03  0.34822059773E+03  0.00000000000E+00 0. -1.
        -14    1    3    3    0    0  0.13315628662E+01  0.46638051533E+01  0.29483564852E+01  0.56759971933E+01  0.00000000000E+00 0.  1.
        -11    1    4    4    0    0  0.36590208930E+02  0.47198785854E+02 -0.69697011051E+02  0.91783670253E+02  0.00000000000E+00 0.  1.
         11    1    4    4    0    0  0.27219074968E+02  0.41905677752E+02  0.23917880543E+02  0.55398816591E+02  0.00000000000E+00 0. -1.
          2    1    1    2  501    0  0.61488626200E+02 -0.47396603063E+02 -0.79867207430E+02  0.11138249394E+03  0.00000000000E+00 0. -1.
<scales pt_clust_5="13000.00000" pt_clust_6="13000.00000" pt_clust_7="13000.00000" pt_clust_8="13000.00000" pt_clust_9="77.63562"></scales>
<clustering>
<clus scale="   77.636">  1  9  2 -1</clus>
<clus scale="   81.338">  5  6 -1 -1</clus>
<clus scale="   86.924">  7  8 -1 -1</clus>
<clus scale="  146.549">  2  5  1 -1</clus>
<clus scale="   77.636">  1  5  2 -1</clus>
</clustering>
</event>
<event>
 9    1  0.3197504E-005  0.1939889E+03  0.7546771E-02  0.1169918E+00
          1   -1    0    0  502    0 -0.00000000000E+00  0.00000000000E+00  0.48322854734E+03  0.48322854734E+03  0.00000000000E+00 0. -1.
         21   -1    0    0  501  502  0.00000000000E+00 -0.00000000000E+00 -0.25984581811E+03  0.25984581811E+03  0.00000000000E+00 0. -1.
         23    2    1    2    0    0 -0.26390217205E+02  0.10334697710E+03  0.31586612972E+03  0.34429554651E+03  0.85970752040E+02 0.  0.
        -24    2    1    2    0    0  0.28104359293E+02  0.11776100353E+03  0.27658733096E+02  0.14713261959E+03  0.78901795077E+02 0.  0.
         11    1    4    4    0    0  0.35947361803E+02  0.11548447296E+02  0.34502138212E+01  0.37914158713E+02  0.00000000000E+00 0. -1.
        -12    1    4    4    0    0 -0.78430025101E+01  0.10621255623E+03  0.24208519275E+02  0.10921846087E+03  0.00000000000E+00 0.  1.
        -13    1    3    3    0    0 -0.27870899636E+02  0.31783598765E+02  0.22338688594E+03  0.22735145701E+03  0.00000000000E+00 0.  1.
         13    1    3    3    0    0  0.14806824308E+01  0.71563378334E+02  0.92479243783E+02  0.11694408950E+03  0.00000000000E+00 0. -1.
          2    1    1    2  501    0 -0.17141420874E+01 -0.22110798063E+03 -0.12014213359E+03  0.25164619935E+03  0.00000000000E+00 0. -1.
<scales pt_clust_5="13000.00000" pt_clust_6="13000.00000" pt_clust_7="13000.00000" pt_clust_8="13000.00000" pt_clust_9="177.21799"></scales>
<clustering>
<clus scale="   78.902">  5  6 -1 -1</clus>
<clus scale="   85.971">  7  8 -1 -1</clus>
<clus scale="  136.996">  1  7  2 -1</clus>
<clus scale="  177.218">  2  9  1 -1</clus>
<clus scale="  177.218">  2  5  1 -1</clus>
</clustering>
</event>
<event>
 9    1  0.3197504E-005  0.1131454E+03  0.7546771E-02  0.1261922E+00
         21   -1    0    0  501  502  0.00000000000E+00  0.00000000000E+00  0.32822775631E+03  0.32822775631E+03  0.00000000000E+00 0.  1.
         -4   -1    0    0    0  501 -0.00000000000E+00 -0.00000000000E+00 -0.16144120191E+03  0.16144120191E+03  0.00000000000E+00 0.  1.
        -24    2    1    2    0    0 -0.46227497107E+02 -0.38122484593E+02 -0.10081749930E+03  0.13978593326E+03  0.76063352889E+02 0.  0.
         23    2    1    2    0    0  0.19677656465E+02  0.94457054928E+02  0.91349968092E+02  0.16294993386E+03  0.94331961101E+02 0.  0.
         11    1    3    3    0    0 -0.36393590980E+02 -0.93003855353E+01 -0.33969569897E+01  0.37716441406E+02  0.00000000000E+00 0. -1.
        -12    1    3    3    0    0 -0.98339061267E+01 -0.28822099058E+02 -0.97420542311E+02  0.10206949186E+03  0.00000000000E+00 0.  1.
        -11    1    4    4    0    0  0.33066162683E+02  0.37725093487E+02 -0.49222054681E+01  0.50406169263E+02  0.00000000000E+00 0. -1.
         11    1    4    4    0    0 -0.13388506218E+02  0.56731961441E+02  0.96272173560E+02  0.11254376460E+03  0.00000000000E+00 0.  1.
         -3    1    1    2    0  502  0.26549840642E+02 -0.56334570334E+02  0.17625408561E+03  0.18693309110E+03  0.00000000000E+00 0.  1.
<scales pt_clust_5="13000.00000" pt_clust_6="13000.00000" pt_clust_7="13000.00000" pt_clust_8="13000.00000" pt_clust_9="62.27743"></scales>
<clustering>
<clus scale="   62.277">  1  9  2 -1</clus>
<clus scale="   76.063">  5  6 -1 -1</clus>
<clus scale="   94.332">  7  8 -1 -1</clus>
<clus scale="   98.433">  2  5  1 -1</clus>
<clus scale="   62.277">  1  5  2 -1</clus>
</clustering>
</event>
<event>
 9    1  0.3197504E-005  0.1023825E+03  0.7546771E-02  0.1278055E+00
          1   -1    0    0  502    0 -0.00000000000E+00  0.00000000000E+00  0.47568169295E+02  0.47568169295E+02  0.00000000000E+00 0. -1.
         21   -1    0    0  501  502  0.00000000000E+00 -0.00000000000E+00 -0.26510686460E+03  0.26510686460E+03  0.00000000000E+00 0.  1.
        -24    2    1    2    0    0 -0.39091534184E+02 -0.39934737051E+02 -0.89465161226E+02  0.13553916128E+03  0.85111209008E+02 0.  0.
         23    2    1    2    0    0  0.16172637176E+02  0.34930888922E+02 -0.10697326813E+03  0.14558376398E+03  0.90937511766E+02 0.  0.
         13    1    3    3    0    0  0.26463611406E+02 -0.19934371823E+02 -0.32623057730E+02  0.46496944031E+02  0.00000000000E+00 0. -1.
        -14    1    3    3    0    0 -0.65555145590E+02 -0.20000365228E+02 -0.56842103496E+02  0.89042217248E+02  0.00000000000E+00 0.  1.
        -13    1    4    4    0    0 -0.31210690401E+02  0.70051390574E+01 -0.90017660280E+01  0.33229669877E+02  0.00000000000E+00 0. -1.
         13    1    4    4    0    0  0.47383327577E+02  0.27925749864E+02 -0.97971502099E+02  0.11235409410E+03  0.00000000000E+00 0.  1.
          2    1    1    2  501    0  0.22918897008E+02  0.50038481290E+01 -0.21100265950E+02  0.31552108635E+02  0.00000000000E+00 0. -1.
<scales pt_clust_5="13000.00000" pt_clust_6="13000.00000" pt_clust_7="13000.00000" pt_clust_8="13000.00000" pt_clust_9="23.45879"></scales>
<clustering>
<clus scale="   23.459">  2  9  1 -1</clus>
<clus scale="   85.111">  5  6 -1 -1</clus>
<clus scale="   90.938">  7  8 -1 -1</clus>
<clus scale="   97.244">  1  5  2 -1</clus>
<clus scale="   23.459">  2  5  1 -1</clus>
</clustering>
</event>
<event>
 9    1  0.3197504E-005  0.3114197E+03  0.7546771E-02  0.1080096E+00
          1   -1    0    0  502    0 -0.00000000000E+00  0.00000000000E+00  0.17890447682E+04  0.17890447682E+04  0.00000000000E+00 0. -1.
         21   -1    0    0  501  502  0.00000000000E+00 -0.00000000000E+00 -0.57716208909E+02  0.57716208909E+02  0.00000000000E+00 0.  1.
        -24    2    1    2    0    0  0.30588992655E+03  0.26221684133E+02  0.95638383958E+03  0.10076419364E+04  0.80099933837E+02 0.  0.
         23    2    1    2    0    0 -0.28457948283E+03 -0.26427673993E+02  0.72216615989E+03  0.78220020538E+03  0.92893997717E+02 0.  0.
         13    1    3    3    0    0  0.11084211734E+03  0.42163409360E+02  0.29603303563E+03  0.31890325531E+03  0.00000000000E+00 0. -1.
        -14    1    3    3    0    0  0.19504780922E+03 -0.15941725227E+02  0.66035080395E+03  0.68873868104E+03  0.00000000000E+00 0.  1.
        -13    1    4    4    0    0 -0.80007551799E+02 -0.36125191205E+02  0.14196540225E+03  0.16691438890E+03  0.00000000000E+00 0. -1.
         13    1    4    4    0    0 -0.20457193103E+03  0.96975172120E+01  0.58020075763E+03  0.61528581648E+03  0.00000000000E+00 0.  1.
          2    1    1    2  501    0 -0.21310443721E+02  0.20598986038E+00  0.52778559847E+02  0.56918835397E+02  0.00000000000E+00 0. -1.
<scales pt_clust_5="13000.00000" pt_clust_6="13000.00000" pt_clust_7="13000.00000" pt_clust_8="13000.00000" pt_clust_9="21.31144"></scales>
<clustering>
<clus scale="   21.311">  2  9  1 -1</clus>
<clus scale="   80.100">  5  6 -1 -1</clus>
<clus scale="   92.894">  7  8 -1 -1</clus>
<clus scale="  307.846">  1  5  2 -1</clus>
<clus scale="   21.311">  2  5  1 -1</clus>
</clustering>
</event>
<event>
 9    1  0.3197504E-005  0.1134918E+03  0.7546771E-02  0.1258264E+00
          1   -1    0    0  502    0 -0.00000000000E+00  0.00000000000E+00  0.82638800815E+03  0.82638800815E+03  0.00000000000E+00 0. -1.
         21   -1    0    0  501  502  0.00000000000E+00 -0.00000000000E+00 -0.46351021598E+02  0.46351021598E+02  0.00000000000E+00 0.  1.
         23    2    1    2    0    0 -0.64310540377E+02  0.35843348339E+01  0.56828825022E+03  0.57942210796E+03  0.92896452052E+02 0.  0.
        -24    2    1    2    0    0  0.63625383752E+02  0.55702578117E+02  0.20109860889E+03  0.23307712845E+03  0.82056874421E+02 0.  0.
         11    1    4    4    0    0  0.69719996984E+02  0.23783839167E+02  0.17958248108E+03  0.19410413828E+03  0.00000000000E+00 0. -1.
        -12    1    4    4    0    0 -0.60946132326E+01  0.31918738950E+02  0.21516127808E+02  0.38972990166E+02  0.00000000000E+00 0.  1.
        -13    1    3    3    0    0 -0.22394345331E+02 -0.43618822613E+02  0.21314312858E+03  0.21871008585E+03  0.00000000000E+00 0. -1.
         13    1    3    3    0    0 -0.41916195046E+02  0.47203157447E+02  0.35514512163E+03  0.36071202212E+03  0.00000000000E+00 0.  1.
          2    1    1    2  501    0  0.68515662477E+00 -0.59286912951E+02  0.10650127445E+02  0.60239793338E+02  0.00000000000E+00 0. -1.
<scales pt_clust_5="13000.00000" pt_clust_6="13000.00000" pt_clust_7="13000.00000" pt_clust_8="13000.00000" pt_clust_9="59.29087"></scales>
<clustering>
<clus scale="   59.291">  2  9  1 -1</clus>
<clus scale="   82.057">  5  6 -1 -1</clus>
<clus scale="   92.896">  7  8 -1 -1</clus>
<clus scale="  104.804">  2  5  1 -1</clus>
<clus scale="   59.291">  2  5  1 -1</clus>
</clustering>
</event>
<event>
 9    1  0.3197504E-005  0.9439927E+02  0.7546771E-02  0.1300628E+00
         -2   -1    0    0    0  501 -0.00000000000E+00  0.00000000000E+00  0.29805194729E+03  0.29805194729E+03  0.00000000000E+00 0.  1.
         21   -1    0    0  501  502  0.00000000000E+00 -0.00000000000E+00 -0.67564551399E+02  0.67564551399E+02  0.00000000000E+00 0. -1.
        -24    2    1    2    0    0  0.14012453681E+02  0.76549472409E+01  0.20374050369E+03  0.21928361686E+03  0.79499463532E+02 0.  0.
         23    2    1    2    0    0 -0.26751196421E+02  0.18231848319E+02  0.48992990791E+02  0.10990088143E+03  0.92897060176E+02 0.  0.
         11    1    3    3    0    0 -0.22913705984E+02 -0.16070132525E+02  0.34396584269E+02  0.44344245294E+02  0.00000000000E+00 0. -1.
        -12    1    3    3    0    0  0.36926159665E+02  0.23725079766E+02  0.16934391942E+03  0.17493937156E+03  0.00000000000E+00 0.  1.
        -11    1    4    4    0    0 -0.39149099764E+02  0.38672608971E+02 -0.39529825236E+00  0.55030709224E+02  0.00000000000E+00 0. -1.
         11    1    4    4    0    0  0.12397903343E+02 -0.20440760652E+02  0.49388289044E+02  0.54870172207E+02  0.00000000000E+00 0.  1.
         -1    1    1    2    0  502  0.12738742739E+02 -0.25886795560E+02 -0.22246098590E+02  0.36432000404E+02  0.00000000000E+00 0.  1.
<scales pt_clust_5="13000.00000" pt_clust_6="13000.00000" pt_clust_7="13000.00000" pt_clust_8="13000.00000" pt_clust_9="28.85137"></scales>
<clustering>
<clus scale="   28.851">  2  9  1 -1</clus>
<clus scale="   79.499">  5  6 -1 -1</clus>
<clus scale="   81.250">  1  5  2 -1</clus>
<clus scale="   92.897">  7  8 -1 -1</clus>
<clus scale="   28.851">  2  5  1 -1</clus>
</clustering>
</event>
<event>
 9    1  0.3197504E-005  0.1050778E+03  0.7546771E-02  0.1274334E+00
         -2   -1    0    0    0  501 -0.00000000000E+00  0.00000000000E+00  0.18309121932E+03  0.18309121932E+03  0.00000000000E+00 0.  1.
         21   -1    0    0  501  502  0.00000000000E+00 -0.00000000000E+00 -0.47416238089E+03  0.47416238089E+03  0.00000000000E+00 0. -1.
        -24    2    1    2    0    0  0.16379479539E+02 -0.51287363413E+02  0.15950450725E+03  0.18683989911E+03  0.81048004732E+02 0.  0.
         23    2    1    2    0    0 -0.28335674656E+02  0.16160859850E+02 -0.29320607516E+03  0.30872878882E+03  0.90992190244E+02 0.  0.
         13    1    3    3    0    0 -0.74275320885E+00  0.21694279598E+02  0.45270877317E+02  0.50206033330E+02  0.00000000000E+00 0. -1.
        -14    1    3    3    0    0  0.17122232748E+02 -0.72981643011E+02  0.11423362993E+03  0.13663386578E+03  0.00000000000E+00 0.  1.
        -11    1    4    4    0    0 -0.54224271445E+01  0.49511307176E+02 -0.21478093923E+03  0.22048043930E+03  0.00000000000E+00 0. -1.
         11    1    4    4    0    0 -0.22913247511E+02 -0.33350447326E+02 -0.78425135931E+02  0.88248349527E+02  0.00000000000E+00 0.  1.
         -1    1    1    2    0  502  0.11956195117E+02  0.35126503563E+02 -0.15736959365E+03  0.16168491229E+03  0.00000000000E+00 0.  1.
<scales pt_clust_5="13000.00000" pt_clust_6="13000.00000" pt_clust_7="13000.00000" pt_clust_8="13000.00000" pt_clust_9="37.10555"></scales>
<clustering>
<clus scale="   37.106">  2  9  1 -1</clus>
<clus scale="   81.048">  5  6 -1 -1</clus>
<clus scale="   90.992">  7  8 -1 -1</clus>
<clus scale="   96.595">  1  5  2 -1</clus>
<clus scale="   37.106">  2  5  1 -1</clus>
</clustering>
</event>
<event>
 9    1  0.3197504E-005  0.9700924E+02  0.7546771E-02  0.1290907E+00
         -2   -1    0    0    0  501 -0.00000000000E+00  0.00000000000E+00  0.36911221846E+03  0.36911221846E+03  0.00000000000E+00 0.  1.
         21   -1    0    0  501  502  0.00000000000E+00 -0.00000000000E+00 -0.43932160725E+02  0.43932160725E+02  0.00000000000E+00 0. -1.
        -24    2    1    2    0    0 -0.25609558285E+02 -0.39225997025E+02  0.23698720422E+03  0.25509981266E+03  0.81966158485E+02 0.  0.
         23    2    1    2    0    0  0.14626809111E+02  0.42633046734E+01  0.77698550921E+02  0.11982447966E+03  0.89937321503E+02 0.  0.
         11    1    3    3    0    0  0.20780560422E+02 -0.30654079465E+02  0.49807964833E+02  0.62067202612E+02  0.00000000000E+00 0. -1.
        -12    1    3    3    0    0 -0.46390118707E+02 -0.85719175606E+01  0.18717923939E+03  0.19303261005E+03  0.00000000000E+00 0.  1.
        -11    1    4    4    0    0 -0.12124448365E+02  0.40147924154E+02  0.56327065297E+02  0.70225325539E+02  0.00000000000E+00 0.  1.
         11    1    4    4    0    0  0.26751257476E+02 -0.35884619481E+02  0.21371485624E+02  0.49599154122E+02  0.00000000000E+00 0. -1.
         -1    1    1    2    0  502  0.10982749175E+02  0.34962692352E+02  0.10494302599E+02  0.38120086870E+02  0.00000000000E+00 0.  1.
<scales pt_clust_5="13000.00000" pt_clust_6="13000.00000" pt_clust_7="13000.00000" pt_clust_8="13000.00000" pt_clust_9="36.64711"></scales>
<clustering>
<clus scale="   36.647">  2  9  1 -1</clus>
<clus scale="   81.966">  5  6 -1 -1</clus>
<clus scale="   89.669">  1  5  2 -1</clus>
<clus scale="   89.937">  7  8 -1 -1</clus>
<clus scale="   36.647">  2  5  1 -1</clus>
</clustering>
</event>
<event>
 9    1  0.3197504E-005  0.1075040E+03  0.7546771E-02  0.1267788E+00
         21   -1    0    0  501  502  0.00000000000E+00  0.00000000000E+00  0.21909774322E+03  0.21909774322E+03  0.00000000000E+00 0. -1.
          1   -1    0    0  502    0 -0.00000000000E+00 -0.00000000000E+00 -0.11458195607E+03  0.11458195607E+03  0.00000000000E+00 0. -1.
        -24    2    1    2    0    0  0.10498425147E+02  0.76311573187E+02  0.72969799237E+01  0.11654405608E+03  0.87152727779E+02 0.  0.
         23    2    1    2    0    0  0.45856976122E+02 -0.12973662015E+02  0.77187848533E+02  0.13002157115E+03  0.93147554114E+02 0.  0.
         11    1    3    3    0    0  0.59426063037E+00  0.62194902532E+02 -0.34644735646E+02  0.71195623143E+02  0.00000000000E+00 0. -1.
        -12    1    3    3    0    0  0.99041645170E+01  0.14116670655E+02  0.41941715570E+02  0.45348432940E+02  0.00000000000E+00 0.  1.
        -13    1    4    4    0    0 -0.22871381511E+02 -0.25742218242E+02  0.30111137131E+02  0.45743223231E+02  0.00000000000E+00 0.  1.
         13    1    4    4    0    0  0.68728357634E+02  0.12768556227E+02  0.47076711402E+02  0.84278347917E+02  0.00000000000E+00 0. -1.
          2    1    1    2  501    0 -0.56355401270E+02 -0.63337911172E+02  0.20030958697E+02  0.87114072056E+02  0.00000000000E+00 0. -1.
<scales pt_clust_5="13000.00000" pt_clust_6="13000.00000" pt_clust_7="13000.00000" pt_clust_8="13000.00000" pt_clust_9="84.77989"></scales>
<clustering>
<clus scale="   84.780">  1  9  2 -1</clus>
<clus scale="   87.153">  5  6 -1 -1</clus>
<clus scale="   93.148">  7  8 -1 -1</clus>
<clus scale="  102.353">  2  5  1 -1</clus>
<clus scale="   84.780">  1  5  2 -1</clus>
</clustering>
</event>
<event>
 9    1  0.3197504E-005  0.1140581E+03  0.7546771E-02  0.1269597E+00
          3   -1    0    0  502    0 -0.00000000000E+00  0.00000000000E+00  0.12488760504E+03  0.12488760504E+03  0.00000000000E+00 0. -1.
         21   -1    0    0  501  502  0.00000000000E+00 -0.00000000000E+00 -0.18653021384E+03  0.18653021384E+03  0.00000000000E+00 0.  1.
        -24    2    1    2    0    0 -0.12492675456E+02 -0.17500493421E+02  0.42686585810E+02  0.93111425846E+02  0.79907814418E+02 0.  0.
         23    2    1    2    0    0 -0.66808277123E+02 -0.71057557486E+01 -0.62114673105E+02  0.12516040866E+03  0.85399400605E+02 0.  0.
         13    1    3    3    0    0  0.56738227815E+01  0.29537306551E+02  0.26687059733E+02  0.40209997518E+02  0.00000000000E+00 0. -1.
        -14    1    3    3    0    0 -0.18166498237E+02 -0.47037799973E+02  0.15999526077E+02  0.52901428328E+02  0.00000000000E+00 0.  1.
        -13    1    4    4    0    0 -0.38187264280E+02 -0.33060365336E+02  0.17249062552E+01  0.50539392665E+02  0.00000000000E+00 0. -1.
         13    1    4    4    0    0 -0.28621012843E+02  0.25954609588E+02 -0.63839579360E+02  0.74621015993E+02  0.00000000000E+00 0.  1.
          4    1    1    2  501    0  0.79300952579E+02  0.24606249170E+02 -0.42214521505E+02  0.93145984368E+02  0.00000000000E+00 0. -1.
<scales pt_clust_5="13000.00000" pt_clust_6="13000.00000" pt_clust_7="13000.00000" pt_clust_8="13000.00000" pt_clust_9="75.60553"></scales>
<clustering>
<clus scale="   79.908">  5  6 -1 -1</clus>
<clus scale="   82.750">  1  5  2 -1</clus>
<clus scale="   75.606">  2  9  1 -1</clus>
<clus scale="   85.399">  7  8 -1 -1</clus>
<clus scale="   75.606">  2  5  1 -1</clus>
</clustering>
</event>
<event>
 9    1  0.3197504E-005  0.9822511E+02  0.7546771E-02  0.1288263E+00
         21   -1    0    0  501  502  0.00000000000E+00  0.00000000000E+00  0.45453129907E+02  0.45453129907E+02  0.00000000000E+00 0. -1.
          1   -1    0    0  502    0 -0.00000000000E+00 -0.00000000000E+00 -0.49043865516E+03  0.49043865516E+03  0.00000000000E+00 0. -1.
         23    2    1    2    0    0 -0.29642206041E+02  0.14444648868E+02 -0.35902071958E+03  0.37184215014E+03  0.91013181874E+02 0.  0.
        -24    2    1    2    0    0  0.35417959848E+02 -0.37945613437E+02 -0.96724907532E+02  0.13756502694E+03  0.82910357864E+02 0.  0.
         13    1    4    4    0    0  0.55809045498E+02 -0.40741767069E+02 -0.94204960365E+02  0.11682942994E+03  0.00000000000E+00 0. -1.
        -14    1    4    4    0    0 -0.20391085650E+02  0.27961536323E+01 -0.25199471663E+01  0.20735596997E+02  0.00000000000E+00 0.  1.
        -13    1    3    3    0    0  0.46815531695E+00  0.49129419572E+02 -0.15026890542E+03  0.15809700495E+03  0.00000000000E+00 0.  1.
         13    1    3    3    0    0 -0.30110361357E+02 -0.34684770704E+02 -0.20875181416E+03  0.21374514520E+03  0.00000000000E+00 0. -1.
          2    1    1    2  501    0 -0.57757538077E+01  0.23500964569E+02  0.10760101863E+02  0.26484607979E+02  0.00000000000E+00 0. -1.
<scales pt_clust_5="13000.00000" pt_clust_6="13000.00000" pt_clust_7="13000.00000" pt_clust_8="13000.00000" pt_clust_9="24.20030"></scales>
<clustering>
<clus scale="   24.200">  1  9  2 -1</clus>
<clus scale="   82.910">  5  6 -1 -1</clus>
<clus scale="   90.768">  1  5  2 -1</clus>
<clus scale="   91.013">  7  8 -1 -1</clus>
<clus scale="   24.200">  1  5  2 -1</clus>
</clustering>
</event>
<event>
 9    1  0.3197504E-005  0.1209014E+03  0.7546771E-02  0.1243608E+00
         21   -1    0    0  501  502  0.00000000000E+00  0.00000000000E+00  0.51973189541E+02  0.51973189541E+02  0.00000000000E+00 0.  1.
          1   -1    0    0  502    0 -0.00000000000E+00 -0.00000000000E+00 -0.61770445090E+03  0.61770445090E+03  0.00000000000E+00 0. -1.
         23    2    1    2    0    0 -0.20234488639E+02  0.87998181306E+02 -0.36261250702E+03  0.38401792424E+03  0.88480627544E+02 0.  0.
        -24    2    1    2    0    0  0.42747335770E+02 -0.44647239945E+02 -0.31599317021E+02  0.10732001287E+03  0.81843494409E+02 0.  0.
         13    1    4    4    0    0  0.55520329576E+02 -0.27758457939E+02 -0.49656725865E+02  0.79491064951E+02  0.00000000000E+00 0. -1.
        -14    1    4    4    0    0 -0.12772993806E+02 -0.16888782006E+02  0.18057408843E+02  0.27828947924E+02  0.00000000000E+00 0.  1.
        -13    1    3    3    0    0  0.27058789062E+02  0.68083466117E+01 -0.46422288498E+02  0.54162353332E+02  0.00000000000E+00 0. -1.
         13    1    3    3    0    0 -0.47293277701E+02  0.81189834695E+02 -0.31619021852E+03  0.32985557091E+03  0.00000000000E+00 0.  1.
          2    1    1    2  501    0 -0.22512847130E+02 -0.43350941362E+02 -0.17151943732E+03  0.17833970333E+03  0.00000000000E+00 0. -1.
<scales pt_clust_5="13000.00000" pt_clust_6="13000.00000" pt_clust_7="13000.00000" pt_clust_8="13000.00000" pt_clust_9="48.84808"></scales>
<clustering>
<clus scale="   48.848">  1  9  2 -1</clus>
<clus scale="   81.843">  5  6 -1 -1</clus>
<clus scale="   88.481">  7  8 -1 -1</clus>
<clus scale="  116.132">  1  5  2 -1</clus>
<clus scale="   48.848">  1  5  2 -1</clus>
</clustering>
</event>
<event>
 9    1  0.3197504E-005  0.1129067E+03  0.7546771E-02  0.1257290E+00
         21   -1    0    0  501  502  0.00000000000E+00  0.00000000000E+00  0.77334275349E+02  0.77334275349E+02  0.00000000000E+00 0. -1.
          1   -1    0    0  502    0 -0.00000000000E+00 -0.00000000000E+00 -0.23570883115E+03  0.23570883115E+03  0.00000000000E+00 0. -1.
         23    2    1    2    0    0  0.67729790358E+02 -0.24390744632E+02 -0.13093746569E+03  0.17632219629E+03  0.93609102423E+02 0.  0.
        -24    2    1    2    0    0 -0.36517357424E+02  0.33824429941E+02 -0.20027284336E+02  0.10328267447E+03  0.88253097810E+02 0.  0.
         13    1    4    4    0    0  0.23834540588E+02  0.24198417136E+02  0.96973885158E+01  0.35322628172E+02  0.00000000000E+00 0. -1.
        -14    1    4    4    0    0 -0.60351898012E+02  0.96260128051E+01 -0.29724672852E+02  0.67960046295E+02  0.00000000000E+00 0.  1.
        -11    1    3    3    0    0  0.38532841889E+02 -0.58694299646E+02 -0.60344208544E+02  0.92580906346E+02  0.00000000000E+00 0. -1.
         11    1    3    3    0    0  0.29196948470E+02  0.34303555014E+02 -0.70593257149E+02  0.83741289944E+02  0.00000000000E+00 0.  1.
          2    1    1    2  501    0 -0.31212432935E+02 -0.94336853088E+01 -0.74098057740E+01  0.33438235746E+02  0.00000000000E+00 0. -1.
<scales pt_clust_5="13000.00000" pt_clust_6="13000.00000" pt_clust_7="13000.00000" pt_clust_8="13000.00000" pt_clust_9="32.60691"></scales>
<clustering>
<clus scale="   32.607">  1  9  2 -1</clus>
<clus scale="   88.253">  5  6 -1 -1</clus>
<clus scale="   93.609">  7  8 -1 -1</clus>
<clus scale="  108.507">  1  5  2 -1</clus>
<clus scale="   32.607">  1  5  2 -1</clus>
</clustering>
</event>
<event>
 9    1  0.3197504E-005  0.9610350E+02  0.7546771E-02  0.1295451E+00
          1   -1    0    0  502    0 -0.00000000000E+00  0.00000000000E+00  0.75915623732E+03  0.75915623732E+03  0.00000000000E+00 0. -1.
         21   -1    0    0  501  502  0.00000000000E+00 -0.00000000000E+00 -0.22339369282E+02  0.22339369282E+02  0.00000000000E+00 0. -1.
         23    2    1    2    0    0 -0.85372834467E+00 -0.95992975676E+01  0.29120180353E+03  0.30507689956E+03  0.90446386878E+02 0.  0.
        -24    2    1    2    0    0  0.22854231637E+02  0.65807641782E+02  0.23449128670E+03  0.25683580776E+03  0.78265618163E+02 0.  0.
         13    1    4    4    0    0  0.48281423246E+02  0.62206738150E+02  0.16735140985E+03  0.18495207076E+03  0.00000000000E+00 0. -1.
        -14    1    4    4    0    0 -0.25427191608E+02  0.36009036316E+01  0.67139876854E+02  0.71883736993E+02  0.00000000000E+00 0.  1.
        -11    1    3    3    0    0  0.38123942360E+02 -0.18994090903E+02  0.85707959721E+02  0.95708227598E+02  0.00000000000E+00 0.  1.
         11    1    3    3    0    0 -0.38977670705E+02  0.93947933353E+01  0.20549384381E+03  0.20936867196E+03  0.00000000000E+00 0. -1.
          2    1    1    2  501    0 -0.22000503293E+02 -0.56208344214E+02  0.21112377780E+03  0.21958289928E+03  0.00000000000E+00 0. -1.
<scales pt_clust_5="13000.00000" pt_clust_6="13000.00000" pt_clust_7="13000.00000" pt_clust_8="13000.00000" pt_clust_9="60.36061"></scales>
<clustering>
<clus scale="   60.361">  2  9  1 -1</clus>
<clus scale="   78.266">  5  6 -1 -1</clus>
<clus scale="   84.740">  2  5  1 -1</clus>
<clus scale="   90.446">  7  8 -1 -1</clus>
<clus scale="   60.361">  2  5  1 -1</clus>
</clustering>
</event>
<event>
 9    1  0.3197504E-005  0.9259755E+02  0.7546771E-02  0.1298418E+00
         -4   -1    0    0    0  501 -0.00000000000E+00  0.00000000000E+00  0.62726494533E+02  0.62726494533E+02  0.00000000000E+00 0.  1.
         21   -1    0    0  501  502  0.00000000000E+00 -0.00000000000E+00 -0.52161597346E+03  0.52161597346E+03  0.00000000000E+00 0. -1.
         23    2    1    2    0    0 -0.14464330148E+01 -0.32350725200E+02  0.13390837229E+02  0.93115150145E+02  0.86269664862E+02 0.  0.
        -24    2    1    2    0    0  0.18376240782E+02  0.46855225136E+02 -0.44735826776E+03  0.45778920478E+03  0.83117013488E+02 0.  0.
         11    1    4    4    0    0  0.51126220077E+02  0.22890278839E+02 -0.28342769596E+03  0.28891021803E+03  0.00000000000E+00 0. -1.
        -12    1    4    4    0    0 -0.32749979295E+02  0.23964946297E+02 -0.16393057180E+03  0.16887898675E+03  0.00000000000E+00 0.  1.
        -11    1    3    3    0    0  0.34978742396E+02 -0.31045169465E+02 -0.12495766422E+02  0.48409287799E+02  0.00000000000E+00 0. -1.
         11    1    3    3    0    0 -0.36425175411E+02 -0.13055557345E+01  0.25886603651E+02  0.44705862346E+02  0.00000000000E+00 0.  1.
         -3    1    1    2    0  502 -0.16929807767E+02 -0.14504499937E+02 -0.24922048397E+02  0.33438113071E+02  0.00000000000E+00 0.  1.
<scales pt_clust_5="13000.00000" pt_clust_6="13000.00000" pt_clust_7="13000.00000" pt_clust_8="13000.00000" pt_clust_9="22.29348"></scales>
<clustering>
<clus scale="   22.293">  2  9  1 -1</clus>
<clus scale="   83.117">  5  6 -1 -1</clus>
<clus scale="   86.270">  7  8 -1 -1</clus>
<clus scale="   89.668">  2  5  1 -1</clus>
<clus scale="   22.293">  2  5  1 -1</clus>
</clustering>
</event>
<event>
 9    1  0.3197504E-005  0.9903280E+02  0.7546771E-02  0.1284394E+00
         21   -1    0    0  501  502  0.00000000000E+00  0.00000000000E+00  0.26530886510E+02  0.26530886510E+02  0.00000000000E+00 0. -1.
          1   -1    0    0  502    0 -0.00000000000E+00 -0.00000000000E+00 -0.87923026253E+03  0.87923026253E+03  0.00000000000E+00 0. -1.
        -24    2    1    2    0    0 -0.31261882374E+02  0.52562733971E+00 -0.37747154689E+03  0.38816060851E+03  0.84889974145E+02 0.  0.
         23    2    1    2    0    0  0.44699989343E+02 -0.50129873553E+02 -0.44323508261E+03  0.45706377657E+03  0.89100303741E+02 0.  0.
         13    1    3    3    0    0 -0.59313424661E+02 -0.10253110504E+02 -0.23869489254E+03  0.24616754527E+03  0.00000000000E+00 0. -1.
        -14    1    3    3    0    0  0.28051542287E+02  0.10778737844E+02 -0.13877665436E+03  0.14199306324E+03  0.00000000000E+00 0.  1.
        -13    1    4    4    0    0  0.31531869958E+02  0.21684931658E+02 -0.16867172498E+03  0.17295850916E+03  0.00000000000E+00 0.  1.
         13    1    4    4    0    0  0.13168119385E+02 -0.71814805211E+02 -0.27456335762E+03  0.28410526740E+03  0.00000000000E+00 0. -1.
          2    1    1    2  501    0 -0.13438106969E+02  0.49604246214E+02 -0.31992746518E+02  0.60536763963E+02  0.00000000000E+00 0. -1.
<scales pt_clust_5="13000.00000" pt_clust_6="13000.00000" pt_clust_7="13000.00000" pt_clust_8="13000.00000" pt_clust_9="51.39226"></scales>
<clustering>
<clus scale="   51.392">  1  9  2 -1</clus>
<clus scale="   84.890">  5  6 -1 -1</clus>
<clus scale="   89.100">  7  8 -1 -1</clus>
<clus scale="   95.262">  2  5  1 -1</clus>
<clus scale="   51.392">  1  5  2 -1</clus>
</clustering>
</event>
<event>
 9    1  0.3197504E-005  0.9128389E+02  0.7546771E-02  0.1304782E+00
         21   -1    0    0  501  502  0.00000000000E+00  0.00000000000E+00  0.90084440326E+02  0.90084440326E+02  0.00000000000E+00 0.  1.
          1   -1    0    0  502    0 -0.00000000000E+00 -0.00000000000E+00 -0.28347578432E+03  0.28347578432E+03  0.00000000000E+00 0. -1.
        -24    2    1    2    0    0 -0.56742185816E+01 -0.23821554512E+02 -0.22646095477E+03  0.24156432391E+03  0.80430686532E+02 0.  0.
         23    2    1    2    0    0 -0.48237934945E+01 -0.56203462965E+01  0.43450947985E+02  0.99059508354E+02  0.88712705056E+02 0.  0.
         13    1    3    3    0    0  0.29981350609E+01 -0.41192338808E+02 -0.21518378068E+03  0.21911151740E+03  0.00000000000E+00 0. -1.
        -14    1    3    3    0    0 -0.86723536425E+01  0.17370784295E+02 -0.11277174089E+02  0.22452806510E+02  0.00000000000E+00 0.  1.
        -13    1    4    4    0    0  0.11036860381E+02  0.19746760503E+02  0.60523893800E+02  0.64613377547E+02  0.00000000000E+00 0.  1.
         13    1    4    4    0    0 -0.15860653875E+02 -0.25367106799E+02 -0.17072945815E+02  0.34446130806E+02  0.00000000000E+00 0. -1.
          2    1    1    2  501    0  0.10498012076E+02  0.29441900809E+02 -0.10381337208E+02  0.32936392380E+02  0.00000000000E+00 0. -1.
<scales pt_clust_5="13000.00000" pt_clust_6="13000.00000" pt_clust_7="13000.00000" pt_clust_8="13000.00000" pt_clust_9="31.25754"></scales>
<clustering>
<clus scale="   31.258">  1  9  2 -1</clus>
<clus scale="   80.431">  5  6 -1 -1</clus>
<clus scale="   83.258">  2  5  1 -1</clus>
<clus scale="   88.713">  7  8 -1 -1</clus>
<clus scale="   31.258">  1  5  2 -1</clus>
</clustering>
</event>
<event>
 9    1  0.3197504E-005  0.1509517E+03  0.7546771E-02  0.1228587E+00
         21   -1    0    0  501  502  0.00000000000E+00  0.00000000000E+00  0.21773173235E+03  0.21773173235E+03  0.00000000000E+00 0.  1.
         -2   -1    0    0    0  501 -0.00000000000E+00 -0.00000000000E+00 -0.13130423777E+03  0.13130423777E+03  0.00000000000E+00 0.  1.
        -24    2    1    2    0    0  0.17102754829E+02 -0.63452630238E+01 -0.14064987897E+02  0.82321458066E+02  0.79033106910E+02 0.  0.
         23    2    1    2    0    0  0.36539416595E+02  0.86810393388E+02  0.56759468021E+02  0.16057923840E+03  0.11701658528E+03 0.  0.
         11    1    3    3    0    0 -0.21226449548E+02  0.18891481950E+02  0.10469944426E+02  0.30283163424E+02  0.00000000000E+00 0. -1.
        -12    1    3    3    0    0  0.38329204378E+02 -0.25236744974E+02 -0.24534932323E+02  0.52038294641E+02  0.00000000000E+00 0.  1.
        -11    1    4    4    0    0 -0.16550188593E+02  0.57232001696E+02  0.76242715349E+02  0.96759301385E+02  0.00000000000E+00 0.  1.
         11    1    4    4    0    0  0.53089605188E+02  0.29578391692E+02 -0.19483247328E+02  0.63819937015E+02  0.00000000000E+00 0. -1.
         -1    1    1    2    0  502 -0.53642171424E+02 -0.80465130364E+02  0.43733014457E+02  0.10613527365E+03  0.00000000000E+00 0.  1.
<scales pt_clust_5="13000.00000" pt_clust_6="13000.00000" pt_clust_7="13000.00000" pt_clust_8="13000.00000" pt_clust_9="95.36005"></scales>
<clustering>
<clus scale="   79.033">  5  6 -1 -1</clus>
<clus scale="   81.111">  2  5  1 -1</clus>
<clus scale="   95.360">  1  9  2 -1</clus>
<clus scale="  117.017">  7  8 -1 -1</clus>
<clus scale="   95.360">  1  5  2 -1</clus>
</clustering>
</event>
<event>
 9    1  0.3197504E-005  0.1630308E+03  0.7546771E-02  0.1195464E+00
         21   -1    0    0  501  502  0.00000000000E+00  0.00000000000E+00  0.74944334284E+03  0.74944334284E+03  0.00000000000E+00 0.  1.
         -4   -1    0    0    0  501 -0.00000000000E+00 -0.00000000000E+00 -0.84918336064E+02  0.84918336064E+02  0.00000000000E+00 0.  1.
        -24    2    1    2    0    0 -0.50912552120E+02  0.90593258509E+02  0.59114307784E+02  0.14378982083E+03  0.79886073500E+02 0.  0.
         23    2    1    2    0    0 -0.32972135648E+02 -0.12000428303E+03  0.16834476000E+03  0.24455808673E+03  0.12641404150E+03 0.  0.
         13    1    3    3    0    0  0.20930417718E+02  0.25614030424E+02  0.70718931453E+01  0.33825620661E+02  0.00000000000E+00 0. -1.
        -14    1    3    3    0    0 -0.71842969838E+02  0.64979228085E+02  0.52042414639E+02  0.10996420017E+03  0.00000000000E+00 0.  1.
        -13    1    4    4    0    0 -0.54563149350E+02 -0.12738305006E+03  0.17260102283E+03  0.22134744587E+03  0.00000000000E+00 0.  1.
         13    1    4    4    0    0  0.21591013703E+02  0.73787670293E+01 -0.42562628319E+01  0.23210640855E+02  0.00000000000E+00 0. -1.
         -3    1    1    2    0  502  0.83884687767E+02  0.29411024524E+02  0.43706593899E+03  0.44601377135E+03  0.00000000000E+00 0.  1.
<scales pt_clust_5="13000.00000" pt_clust_6="13000.00000" pt_clust_7="13000.00000" pt_clust_8="13000.00000" pt_clust_9="88.89122"></scales>
<clustering>
<clus scale="   79.886">  5  6 -1 -1</clus>
<clus scale="   88.891">  1  9  2 -1</clus>
<clus scale="  126.414">  7  8 -1 -1</clus>
<clus scale="  130.308">  2  5  1 -1</clus>
<clus scale="   88.891">  1  5  2 -1</clus>
</clustering>
</event>
<event>
 9    1  0.3197504E-005  0.1007697E+03  0.7546771E-02  0.1285158E+00
         21   -1    0    0  501  502  0.00000000000E+00  0.00000000000E+00  0.78339818667E+02  0.78339818667E+02  0.00000000000E+00 0.  1.
         -4   -1    0    0    0  501 -0.00000000000E+00 -0.00000000000E+00 -0.74080508684E+03  0.74080508684E+03  0.00000000000E+00 0.  1.
        -24    2    1    2    0    0 -0.44368824127E+02 -0.13112675577E+02 -0.55765899157E+03  0.56501703953E+03  0.78231510704E+02 0.  0.
         23    2    1    2    0    0  0.33419480405E+02 -0.13752589830E+02 -0.16232814548E+03  0.18970429877E+03  0.91275948405E+02 0.  0.
         11    1    3    3    0    0 -0.63592851864E+01 -0.20074168656E+02 -0.34400678539E+02  0.40333849794E+02  0.00000000000E+00 0. -1.
        -12    1    3    3    0    0 -0.38009538940E+02  0.69614930789E+01 -0.52325831303E+03  0.52468318974E+03  0.00000000000E+00 0.  1.
        -11    1    4    4    0    0  0.49300124268E+02  0.10162390549E+02 -0.40694405995E+02  0.64728750287E+02  0.00000000000E+00 0. -1.
         11    1    4    4    0    0 -0.15880643862E+02 -0.23914980379E+02 -0.12163373949E+03  0.12497554848E+03  0.00000000000E+00 0.  1.
         -3    1    1    2    0  502  0.10949343722E+02  0.26865265408E+02  0.57521868876E+02  0.64423567212E+02  0.00000000000E+00 0.  1.
<scales pt_clust_5="13000.00000" pt_clust_6="13000.00000" pt_clust_7="13000.00000" pt_clust_8="13000.00000" pt_clust_9="29.01087"></scales>
<clustering>
<clus scale="   29.011">  1  9  2 -1</clus>
<clus scale="   78.232">  5  6 -1 -1</clus>
<clus scale="   89.126">  2  5  1 -1</clus>
<clus scale="   91.276">  7  8 -1 -1</clus>
<clus scale="   29.011">  1  5  2 -1</clus>
</clustering>
</event>
<event>
 9    1  0.3197504E-005  0.1076309E+03  0.7546771E-02  0.1269341E+00
          1   -1    0    0  502    0 -0.00000000000E+00  0.00000000000E+00  0.25405105703E+03  0.25405105703E+03  0.00000000000E+00 0. -1.
         21   -1    0    0  501  502  0.00000000000E+00 -0.00000000000E+00 -0.75140723866E+02  0.75140723866E+02  0.00000000000E+00 0. -1.
         23    2    1    2    0    0 -0.38456395363E+02  0.13600479280E+02  0.39505117094E+02  0.10672311554E+03  0.90362059148E+02 0.  0.
        -24    2    1    2    0    0  0.79495475739E+02  0.23516463499E+01  0.50986753425E+02  0.12369366362E+03  0.79846180198E+02 0.  0.
         11    1    4    4    0    0 -0.93379859449E+01  0.19759274682E+02  0.13689247474E+02  0.25788028499E+02  0.00000000000E+00 0. -1.
        -12    1    4    4    0    0  0.88833461684E+02 -0.17407628332E+02  0.37297505950E+02  0.97905635124E+02  0.00000000000E+00 0.  1.
        -13    1    3    3    0    0 -0.60998497855E+02  0.16270590432E+02  0.23406289312E+01  0.63174578727E+02  0.00000000000E+00 0. -1.
         13    1    3    3    0    0  0.22542102492E+02 -0.26701111522E+01  0.37164488162E+02  0.43548536814E+02  0.00000000000E+00 0.  1.
          2    1    1    2  501    0 -0.41039080376E+02 -0.15952125630E+02  0.88418462644E+02  0.98775001729E+02  0.00000000000E+00 0. -1.
<scales pt_clust_5="13000.00000" pt_clust_6="13000.00000" pt_clust_7="13000.00000" pt_clust_8="13000.00000" pt_clust_9="44.03043"></scales>
<clustering>
<clus scale="   44.030">  2  9  1 -1</clus>
<clus scale="   79.846">  5  6 -1 -1</clus>
<clus scale="   90.362">  7  8 -1 -1</clus>
<clus scale="   98.967">  2  5  1 -1</clus>
<clus scale="   44.030">  2  5  1 -1</clus>
</clustering>
</event>
<event>
 9    1  0.3197504E-005  0.1214981E+03  0.7546771E-02  0.1252296E+00
         -2   -1    0    0    0  501 -0.00000000000E+00  0.00000000000E+00  0.23809134675E+03  0.23809134675E+03  0.00000000000E+00 0.  1.
         21   -1    0    0  501  502  0.00000000000E+00 -0.00000000000E+00 -0.14190923087E+03  0.14190923087E+03  0.00000000000E+00 0. -1.
        -24    2    1    2    0    0  0.18003053441E+00  0.54963570492E+02  0.17939854367E+03  0.20410379748E+03  0.80333655364E+02 0.  0.
         23    2    1    2    0    0  0.29421150668E+02 -0.35604412242E+02 -0.56224945754E+02  0.13140467928E+03  0.10941968257E+03 0.  0.
         13    1    3    3    0    0 -0.21698871230E+02  0.14656992353E+01  0.79186580326E+01  0.23145073600E+02  0.00000000000E+00 0. -1.
        -14    1    3    3    0    0  0.21878901765E+02  0.53497871256E+02  0.17147988564E+03  0.18095872388E+03  0.00000000000E+00 0.  1.
        -11    1    4    4    0    0  0.21529253770E+02 -0.74535420404E+02 -0.46708346100E+02  0.90557756477E+02  0.00000000000E+00 0. -1.
         11    1    4    4    0    0  0.78918968980E+01  0.38931008162E+02 -0.95165996534E+01  0.40846922799E+02  0.00000000000E+00 0.  1.
         -1    1    1    2    0  502 -0.29601181202E+02 -0.19359158250E+02 -0.26991482031E+02  0.44492100860E+02  0.00000000000E+00 0.  1.
<scales pt_clust_5="13000.00000" pt_clust_6="13000.00000" pt_clust_7="13000.00000" pt_clust_8="13000.00000" pt_clust_9="35.36958"></scales>
<clustering>
<clus scale="   35.370">  2  9  1 -1</clus>
<clus scale="   80.334">  5  6 -1 -1</clus>
<clus scale="   96.139">  1  5  2 -1</clus>
<clus scale="  109.420">  7  8 -1 -1</clus>
<clus scale="   35.370">  2  5  1 -1</clus>
</clustering>
</event>
<event>
 9    1  0.3197504E-005  0.9142137E+02  0.7546771E-02  0.1302387E+00
         21   -1    0    0  501  502  0.00000000000E+00  0.00000000000E+00  0.86470828199E+02  0.86470828199E+02  0.00000000000E+00 0.  1.
          1   -1    0    0  502    0 -0.00000000000E+00 -0.00000000000E+00 -0.35933364123E+03  0.35933364123E+03  0.00000000000E+00 0. -1.
         23    2    1    2    0    0 -0.62757349380E+00 -0.27190356962E+02 -0.22553549822E+02  0.97099597560E+02  0.90443130621E+02 0.  0.
        -24    2    1    2    0    0  0.27008864395E+02 -0.40434999679E+02 -0.11479686355E+02  0.99087708696E+02  0.85569403766E+02 0.  0.
         11    1    4    4    0    0  0.30670426496E+01  0.24602080677E+02 -0.16211704486E+02  0.29622432152E+02  0.00000000000E+00 0. -1.
        -12    1    4    4    0    0  0.23941821746E+02 -0.65037080356E+02  0.47320181318E+01  0.69465276544E+02  0.00000000000E+00 0.  1.
        -13    1    3    3    0    0 -0.27313053562E+01 -0.49473807797E+02 -0.43878349451E+02  0.66184796120E+02  0.00000000000E+00 0.  1.
         13    1    3    3    0    0  0.21037318624E+01  0.22283450835E+02  0.21324799629E+02  0.30914801440E+02  0.00000000000E+00 0. -1.
          2    1    1    2  501    0 -0.26381290901E+02  0.67625356641E+02 -0.23882957685E+03  0.24961716317E+03  0.00000000000E+00 0. -1.
<scales pt_clust_5="13000.00000" pt_clust_6="13000.00000" pt_clust_7="13000.00000" pt_clust_8="13000.00000" pt_clust_9="72.58903"></scales>
<clustering>
<clus scale="   72.589">  1  9  2 -1</clus>
<clus scale="   85.569">  5  6 -1 -1</clus>
<clus scale="   86.603">  1  5  2 -1</clus>
<clus scale="   90.443">  7  8 -1 -1</clus>
<clus scale="   72.589">  1  5  2 -1</clus>
</clustering>
</event>
<event>
 9    1  0.3197504E-005  0.1912893E+03  0.7546771E-02  0.1158249E+00
          1   -1    0    0  502    0 -0.00000000000E+00  0.00000000000E+00  0.20128725133E+04  0.20128725133E+04  0.00000000000E+00 0. -1.
         21   -1    0    0  501  502  0.00000000000E+00 -0.00000000000E+00 -0.44138021608E+02  0.44138021608E+02  0.00000000000E+00 0.  1.
        -24    2    1    2    0    0  0.10747244235E+03 -0.10146072021E+03  0.46960654291E+03  0.49921734755E+03  0.82722737724E+02 0.  0.
         23    2    1    2    0    0 -0.47673212981E+02  0.21709440484E+03  0.55671644301E+03  0.60643282291E+03  0.91787008492E+02 0.  0.
         13    1    3    3    0    0  0.10242440495E+03 -0.81891409827E+02  0.45689544057E+03  0.47534240853E+03  0.00000000000E+00 0. -1.
        -14    1    3    3    0    0  0.50480374029E+01 -0.19569310382E+02  0.12711102345E+02  0.23874939022E+02  0.00000000000E+00 0.  1.
        -11    1    4    4    0    0 -0.11650373492E+02  0.12237258235E+03  0.19266961855E+03  0.22854400457E+03  0.00000000000E+00 0.  1.
         11    1    4    4    0    0 -0.36022839489E+02  0.94721822488E+02  0.36404682446E+03  0.37788881833E+03  0.00000000000E+00 0. -1.
          2    1    1    2  501    0 -0.59799229369E+02 -0.11563368463E+03  0.94241150581E+03  0.95136036450E+03  0.00000000000E+00 0. -1.
<scales pt_clust_5="13000.00000" pt_clust_6="13000.00000" pt_clust_7="13000.00000" pt_clust_8="13000.00000" pt_clust_9="130.18108"></scales>
<clustering>
<clus scale="   82.723">  5  6 -1 -1</clus>
<clus scale="   91.787">  7  8 -1 -1</clus>
<clus scale="  130.181">  2  9  1 -1</clus>
<clus scale="  187.109">  1  5  2 -1</clus>
<clus scale="  130.181">  2  5  1 -1</clus>
</clustering>
</event>
<event>
 9    1  0.3197504E-005  0.2552904E+03  0.7546771E-02  0.1148768E+00
          1   -1    0    0  502    0 -0.00000000000E+00  0.00000000000E+00  0.36252906617E+03  0.36252906617E+03  0.00000000000E+00 0. -1.
         21   -1    0    0  501  502  0.00000000000E+00 -0.00000000000E+00 -0.25827681290E+03  0.25827681290E+03  0.00000000000E+00 0. -1.
         23    2    1    2    0    0  0.71645625167E+01  0.41017399830E+02  0.68640185592E+02  0.11997918067E+03  0.89161486485E+02 0.  0.
        -24    2    1    2    0    0  0.20025132325E+03 -0.15076213839E+03 -0.24286389675E-01  0.26347630964E+03  0.81178508948E+02 0.  0.
         13    1    4    4    0    0  0.12604611638E+03 -0.62952426997E+02  0.31285626527E+02  0.14432401722E+03  0.00000000000E+00 0. -1.
        -14    1    4    4    0    0  0.74205206875E+02 -0.87809711398E+02 -0.31309912917E+02  0.11915229242E+03  0.00000000000E+00 0.  1.
        -13    1    3    3    0    0  0.21957868612E+02  0.70009066623E+01  0.78322005550E+02  0.81642496541E+02  0.00000000000E+00 0. -1.
         13    1    3    3    0    0 -0.14793306095E+02  0.34016493168E+02 -0.96818199578E+01  0.38336684133E+02  0.00000000000E+00 0.  1.
          2    1    1    2  501    0 -0.20741588577E+03  0.10974473856E+03  0.35636354067E+02  0.23735038876E+03  0.00000000000E+00 0. -1.
<scales pt_clust_5="13000.00000" pt_clust_6="13000.00000" pt_clust_7="13000.00000" pt_clust_8="13000.00000" pt_clust_9="242.03986"></scales>
<clustering>
<clus scale="   81.179">  5  6 -1 -1</clus>
<clus scale="   89.161">  7  8 -1 -1</clus>
<clus scale="   98.405">  1  7  2 -1</clus>
<clus scale="  242.040">  2  9  1 -1</clus>
<clus scale="  242.040">  2  5  1 -1</clus>
</clustering>
</event>
<event>
 9    1  0.3197504E-005  0.1288795E+03  0.7546771E-02  0.1232554E+00
         -2   -1    0    0    0  501 -0.00000000000E+00  0.00000000000E+00  0.23399703932E+03  0.23399703932E+03  0.00000000000E+00 0.  1.
         21   -1    0    0  501  502  0.00000000000E+00 -0.00000000000E+00 -0.14697347452E+03  0.14697347452E+03  0.00000000000E+00 0. -1.
        -24    2    1    2    0    0 -0.50003350270E+01  0.95684240764E+02  0.13032837501E+03  0.18020758749E+03  0.79428030160E+02 0.  0.
         23    2    1    2    0    0 -0.50859589122E+02 -0.73125865224E+02 -0.28881126490E+01  0.12821831336E+03  0.92181910995E+02 0.  0.
         13    1    3    3    0    0 -0.31688978354E+02  0.81309291988E+01  0.29812134237E+02  0.44261345512E+02  0.00000000000E+00 0. -1.
        -14    1    3    3    0    0  0.26688643327E+02  0.87553311565E+02  0.10051624077E+03  0.13594624198E+03  0.00000000000E+00 0.  1.
        -11    1    4    4    0    0 -0.46693901979E+01 -0.44099867297E+02  0.39300754256E+02  0.59254964227E+02  0.00000000000E+00 0.  1.
         11    1    4    4    0    0 -0.46190198925E+02 -0.29025997927E+02 -0.42188866905E+02  0.68963349129E+02  0.00000000000E+00 0. -1.
         -1    1    1    2    0  502  0.55859924149E+02 -0.22558375540E+02 -0.40416697566E+02  0.72544612999E+02  0.00000000000E+00 0.  1.
<scales pt_clust_5="13000.00000" pt_clust_6="13000.00000" pt_clust_7="13000.00000" pt_clust_8="13000.00000" pt_clust_9="60.24294"></scales>
<clustering>
<clus scale="   60.243">  2  9  1 -1</clus>
<clus scale="   79.428">  5  6 -1 -1</clus>
<clus scale="   92.182">  7  8 -1 -1</clus>
<clus scale="  120.088">  1  5  2 -1</clus>
<clus scale="   60.243">  2  5  1 -1</clus>
</clustering>
</event>
<event>
 9    1  0.3197504E-005  0.1275387E+03  0.7546771E-02  0.1232805E+00
         21   -1    0    0  501  502  0.00000000000E+00  0.00000000000E+00  0.42134852694E+03  0.42134852694E+03  0.00000000000E+00 0. -1.
         -4   -1    0    0    0  501 -0.00000000000E+00 -0.00000000000E+00 -0.69205335806E+02  0.69205335806E+02  0.00000000000E+00 0.  1.
         23    2    1    2    0    0  0.12218548732E+01  0.10249318926E+03  0.85244588445E+02  0.15842326463E+03  0.85585887529E+02 0.  0.
        -24    2    1    2    0    0 -0.20598951865E+02 -0.75020451319E+02  0.27586347466E+03  0.29733703337E+03  0.79096585418E+02 0.  0.
         11    1    4    4    0    0 -0.11896006482E+02 -0.85714864899E+02  0.17179601245E+03  0.19236013862E+03  0.00000000000E+00 0. -1.
        -12    1    4    4    0    0 -0.87029453833E+01  0.10694413580E+02  0.10406746221E+03  0.10497689475E+03  0.00000000000E+00 0.  1.
        -11    1    3    3    0    0  0.21795019837E+02 -0.49880131993E+01  0.24863314495E+02  0.33437816511E+02  0.00000000000E+00 0.  1.
         11    1    3    3    0    0 -0.20573164963E+02  0.10748120246E+03  0.60381273950E+02  0.12498544812E+03  0.00000000000E+00 0. -1.
         -3    1    1    2    0  502  0.19377096992E+02 -0.27472737941E+02 -0.89648719765E+01  0.34793564741E+02  0.00000000000E+00 0.  1.
<scales pt_clust_5="13000.00000" pt_clust_6="13000.00000" pt_clust_7="13000.00000" pt_clust_8="13000.00000" pt_clust_9="33.61881"></scales>
<clustering>
<clus scale="   33.619">  1  9  2 -1</clus>
<clus scale="   79.097">  5  6 -1 -1</clus>
<clus scale="   85.586">  7  8 -1 -1</clus>
<clus scale="  123.278">  1  5  2 -1</clus>
<clus scale="   33.619">  1  5  2 -1</clus>
</clustering>
</event>
<event>
 9    1  0.3197504E-005  0.2484834E+03  0.7546771E-02  0.1114647E+00
         21   -1    0    0  501  502  0.00000000000E+00  0.00000000000E+00  0.48311119632E+03  0.48311119632E+03  0.00000000000E+00 0.  1.
         -2   -1    0    0    0  501 -0.00000000000E+00 -0.00000000000E+00 -0.23650380570E+03  0.23650380570E+03  0.00000000000E+00 0.  1.
         23    2    1    2    0    0 -0.18622156573E+03  0.16225868047E+03  0.24275231757E+02  0.26266817216E+03  0.86017038209E+02 0.  0.
        -24    2    1    2    0    0  0.13887689360E+03 -0.14624280729E+03  0.29671007339E+03  0.36733600271E+03  0.78899435851E+02 0.  0.
         11    1    4    4    0    0 -0.79031702323E+01 -0.23678698251E+02  0.41582549294E+02  0.48499992334E+02  0.00000000000E+00 0. -1.
        -12    1    4    4    0    0  0.14678006383E+03 -0.12256410904E+03  0.25512752410E+03  0.31883601038E+03  0.00000000000E+00 0.  1.
        -13    1    3    3    0    0 -0.10810645629E+03  0.37650109328E+02  0.10719790726E+02  0.11497586936E+03  0.00000000000E+00 0. -1.
         13    1    3    3    0    0 -0.78115109442E+02  0.12460857114E+03  0.13555441031E+02  0.14769230280E+03  0.00000000000E+00 0.  1.
         -1    1    1    2    0  502  0.47344672132E+02 -0.16015873177E+02 -0.74377914530E+02  0.89610827151E+02  0.00000000000E+00 0.  1.
<scales pt_clust_5="13000.00000" pt_clust_6="13000.00000" pt_clust_7="13000.00000" pt_clust_8="13000.00000" pt_clust_9="49.98028"></scales>
<clustering>
<clus scale="   49.980">  1  9  2 -1</clus>
<clus scale="   78.899">  5  6 -1 -1</clus>
<clus scale="   86.017">  7  8 -1 -1</clus>
<clus scale="  246.110">  1  5  2 -1</clus>
<clus scale="   49.980">  1  5  2 -1</clus>
</clustering>
</event>
<event>
 9    1  0.3197504E-005  0.9823605E+02  0.7546771E-02  0.1291307E+00
         21   -1    0    0  501  502  0.00000000000E+00  0.00000000000E+00  0.35601388418E+02  0.35601388418E+02  0.00000000000E+00 0.  1.
          1   -1    0    0  502    0 -0.00000000000E+00 -0.00000000000E+00 -0.50402473626E+03  0.50402473626E+03  0.00000000000E+00 0. -1.
        -24    2    1    2    0    0  0.30542195971E+02 -0.14416059960E+02 -0.29053944515E+03  0.30300912905E+03  0.79124677461E+02 0.  0.
         23    2    1    2    0    0 -0.60452884641E+01  0.45736943987E+02 -0.79298019341E+02  0.13031425507E+03  0.92548450252E+02 0.  0.
         13    1    3    3    0    0  0.33778524727E+02 -0.44442483776E+02 -0.18648494450E+03  0.19466062165E+03  0.00000000000E+00 0. -1.
        -14    1    3    3    0    0 -0.32363287558E+01  0.30026423816E+02 -0.10405450065E+03  0.10834850740E+03  0.00000000000E+00 0.  1.
        -13    1    4    4    0    0 -0.27436217067E+02  0.66801611127E+02 -0.46712705993E+02  0.86007430826E+02  0.00000000000E+00 0. -1.
         13    1    4    4    0    0  0.21390928602E+02 -0.21064667140E+02 -0.32585313348E+02  0.44306824240E+02  0.00000000000E+00 0.  1.
          2    1    1    2  501    0 -0.24496907507E+02 -0.31320884027E+02 -0.98585883355E+02  0.10630274056E+03  0.00000000000E+00 0. -1.
<scales pt_clust_5="13000.00000" pt_clust_6="13000.00000" pt_clust_7="13000.00000" pt_clust_8="13000.00000" pt_clust_9="39.76302"></scales>
<clustering>
<clus scale="   39.763">  1  9  2 -1</clus>
<clus scale="   79.125">  5  6 -1 -1</clus>
<clus scale="   85.708">  2  5  1 -1</clus>
<clus scale="   92.548">  7  8 -1 -1</clus>
<clus scale="   39.763">  1  5  2 -1</clus>
</clustering>
</event>
<event>
 9    1  0.3197504E-005  0.9810801E+02  0.7546771E-02  0.1288080E+00
         -2   -1    0    0    0  501 -0.00000000000E+00  0.00000000000E+00  0.12151900912E+03  0.12151900912E+03  0.00000000000E+00 0.  1.
         21   -1    0    0  501  502  0.00000000000E+00 -0.00000000000E+00 -0.18758940375E+03  0.18758940375E+03  0.00000000000E+00 0. -1.
        -24    2    1    2    0    0  0.33823852687E+02  0.30734368038E+02  0.57566688966E+02  0.10992654563E+03  0.81739019848E+02 0.  0.
         23    2    1    2    0    0 -0.10842327314E+02 -0.30782318258E+02 -0.25401149368E+02  0.98293554831E+02  0.89170047400E+02 0.  0.
         13    1    3    3    0    0  0.31461466288E+02 -0.23554379520E+02  0.24771611116E+02  0.46457134790E+02  0.00000000000E+00 0. -1.
        -14    1    3    3    0    0  0.23623863991E+01  0.54288747558E+02  0.32795077850E+02  0.63469410838E+02  0.00000000000E+00 0.  1.
        -13    1    4    4    0    0 -0.21497360433E+02 -0.40633441064E+01  0.29254543434E+02  0.36530474709E+02  0.00000000000E+00 0.  1.
         13    1    4    4    0    0  0.10655033119E+02 -0.26718974152E+02 -0.54655692802E+02  0.61763080122E+02  0.00000000000E+00 0. -1.
         -1    1    1    2    0  502 -0.22981525374E+02  0.47950220065E-01 -0.98235934226E+02  0.10088831241E+03  0.00000000000E+00 0.  1.
<scales pt_clust_5="13000.00000" pt_clust_6="13000.00000" pt_clust_7="13000.00000" pt_clust_8="13000.00000" pt_clust_9="22.98158"></scales>
<clustering>
<clus scale="   22.982">  2  9  1 -1</clus>
<clus scale="   81.739">  5  6 -1 -1</clus>
<clus scale="   89.170">  7  8 -1 -1</clus>
<clus scale="   91.407">  1  5  2 -1</clus>
<clus scale="   22.982">  2  5  1 -1</clus>
</clustering>
</event>
<event>
 9    1  0.3197504E-005  0.1667342E+03  0.7546771E-02  0.1182764E+00
          1   -1    0    0  502    0 -0.00000000000E+00  0.00000000000E+00  0.10991964622E+04  0.10991964622E+04  0.00000000000E+00 0. -1.
         21   -1    0    0  501  502  0.00000000000E+00 -0.00000000000E+00 -0.29937727924E+02  0.29937727924E+02  0.00000000000E+00 0. -1.
        -24    2    1    2    0    0 -0.12123413448E+03  0.43472876751E+02  0.48053959703E+03  0.50397788005E+03  0.80546836610E+02 0.  0.
         23    2    1    2    0    0  0.15068740058E+03 -0.34831930645E+02  0.51273270981E+03  0.54320450725E+03  0.90864453441E+02 0.  0.
         13    1    3    3    0    0 -0.10259088050E+03  0.66399726765E+02  0.37775030966E+03  0.39702532529E+03  0.00000000000E+00 0. -1.
        -14    1    3    3    0    0 -0.18643253986E+02 -0.22926850015E+02  0.10278928738E+03  0.10695255476E+03  0.00000000000E+00 0.  1.
        -13    1    4    4    0    0  0.59455687521E+02 -0.29624468935E+02  0.97118299366E+02  0.11766287439E+03  0.00000000000E+00 0. -1.
         13    1    4    4    0    0  0.91231713054E+02 -0.52074617096E+01  0.41561441045E+03  0.42554163286E+03  0.00000000000E+00 0.  1.
          2    1    1    2  501    0 -0.29453266091E+02 -0.86409461064E+01  0.75986427475E+02  0.81951802869E+02  0.00000000000E+00 0. -1.
<scales pt_clust_5="13000.00000" pt_clust_6="13000.00000" pt_clust_7="13000.00000" pt_clust_8="13000.00000" pt_clust_9="30.69464"></scales>
<clustering>
<clus scale="   30.695">  2  9  1 -1</clus>
<clus scale="   80.547">  5  6 -1 -1</clus>
<clus scale="   90.864">  7  8 -1 -1</clus>
<clus scale="  161.344">  1  5  2 -1</clus>
<clus scale="   30.695">  2  5  1 -1</clus>
</clustering>
</event>
<event>
 9    1  0.3197504E-005  0.1049520E+03  0.7546771E-02  0.1288273E+00
         -2   -1    0    0    0  501 -0.00000000000E+00  0.00000000000E+00  0.10993259398E+03  0.10993259398E+03  0.00000000000E+00 0.  1.
         21   -1    0    0  501  502  0.00000000000E+00 -0.00000000000E+00 -0.18524704417E+03  0.18524704417E+03  0.00000000000E+00 0. -1.
        -24    2    1    2    0    0 -0.37840143918E+02  0.32636023100E+02  0.59183726621E+02  0.93527143879E+02  0.52417808518E+02 0.  0.
         23    2    1    2    0    0  0.68759286674E+02 -0.34934746436E+02 -0.11059888239E+03  0.16250592619E+03  0.90707151038E+02 0.  0.
         13    1    3    3    0    0 -0.37416582973E+01  0.21624171378E+02 -0.26056020340E+01  0.22099637023E+02  0.00000000000E+00 0. -1.
        -14    1    3    3    0    0 -0.34098485620E+02  0.11011851722E+02  0.61789328655E+02  0.71427506856E+02  0.00000000000E+00 0.  1.
        -13    1    4    4    0    0  0.30284280549E+02  0.20786653651E+01  0.88914617131E+01  0.31630943544E+02  0.00000000000E+00 0.  1.
         13    1    4    4    0    0  0.38475006125E+02 -0.37013411801E+02 -0.11949034410E+03  0.13087498265E+03  0.00000000000E+00 0. -1.
         -1    1    1    2    0  502 -0.30919142756E+02  0.22987233361E+01 -0.23899294420E+02  0.39146568068E+02  0.00000000000E+00 0.  1.
<scales pt_clust_5="13000.00000" pt_clust_6="13000.00000" pt_clust_7="13000.00000" pt_clust_8="13000.00000" pt_clust_9="31.00448"></scales>
<clustering>
<clus scale="   31.004">  2  9  1 -1</clus>
<clus scale="   52.418">  5  6 -1 -1</clus>
<clus scale="   74.396">  1  5  2 -1</clus>
<clus scale="   90.707">  7  8 -1 -1</clus>
<clus scale="   31.004">  2  5  1 -1</clus>
</clustering>
</event>
<event>
 9    1  0.6309576E-005  0.1149907E+03  0.7546771E-02  0.1257579E+00
          1   -1    0    0  502    0 -0.00000000000E+00  0.00000000000E+00  0.11093983548E+04  0.11093983548E+04  0.00000000000E+00 0. -1.
         21   -1    0    0  501  502  0.00000000000E+00 -0.00000000000E+00 -0.12592553958E+03  0.12592553958E+03  0.00000000000E+00 0. -1.
         23    2    1    2    0    0 -0.80226219583E+01  0.62816864560E+02  0.27734216427E+03  0.29827254828E+03  0.89652194845E+02 0.  0.
        -24    2    1    2    0    0  0.97631037397E+01 -0.16493137369E+03 -0.40326825776E+02  0.18363966128E+03  0.69279117312E+02 0.  0.
         13    1    4    4    0    0 -0.17621918578E+02 -0.14027133752E+03 -0.24271518421E+02  0.14344227672E+03  0.00000000000E+00 0. -1.
        -14    1    4    4    0    0  0.27385022317E+02 -0.24660036174E+02 -0.16055307355E+02  0.40197384563E+02  0.00000000000E+00 0.  1.
        -13    1    3    3    0    0  0.21753402549E+02 -0.14893002808E+02  0.59648568350E+02  0.65214751102E+02  0.00000000000E+00 0.  1.
         13    1    3    3    0    0 -0.29776024507E+02  0.77709867368E+02  0.21769359592E+03  0.23305779718E+03  0.00000000000E+00 0. -1.
          2    1    1    2  501    0 -0.17404817814E+01  0.10211450913E+03  0.74645747669E+03  0.75341168477E+03  0.00000000000E+00 0. -1.
<scales pt_clust_5="13000.00000" pt_clust_6="13000.00000" pt_clust_7="13000.00000" pt_clust_8="13000.00000" pt_clust_9="102.12939"></scales>
<clustering>
<clus scale="   69.279">  5  6 -1 -1</clus>
<clus scale="   89.652">  7  8 -1 -1</clus>
<clus scale="  102.129">  2  9  1 -1</clus>
<clus scale="  102.129">  2  5  1 -1</clus>
<clus scale="  102.129">  2  5  1 -1</clus>
</clustering>
</event>
<event>
 9    1  0.3197504E-005  0.2467253E+03  0.7546771E-02  0.1115971E+00
          1   -1    0    0  502    0 -0.00000000000E+00  0.00000000000E+00  0.13343424161E+04  0.13343424161E+04  0.00000000000E+00 0. -1.
         21   -1    0    0  501  502  0.00000000000E+00 -0.00000000000E+00 -0.14185330727E+03  0.14185330727E+03  0.00000000000E+00 0. -1.
         23    2    1    2    0    0  0.19787742450E+03 -0.13205392512E+03  0.90657698107E+03  0.94154322618E+03  0.89599720451E+02 0.  0.
        -24    2    1    2    0    0 -0.22074326608E+03  0.43519492075E+02  0.34959746169E+03  0.42322083966E+03  0.79220945434E+02 0.  0.
         11    1    4    4    0    0 -0.15766352048E+03  0.79332994812E+01  0.18375280238E+03  0.24225155379E+03  0.00000000000E+00 0. -1.
        -12    1    4    4    0    0 -0.63079745601E+02  0.35586192594E+02  0.16584465931E+03  0.18096928588E+03  0.00000000000E+00 0.  1.
        -11    1    3    3    0    0  0.20229034751E+01 -0.35456864767E+02  0.11138356029E+03  0.11690842100E+03  0.00000000000E+00 0.  1.
         11    1    3    3    0    0  0.19585452103E+03 -0.96597060358E+02  0.79519342078E+03  0.82463480519E+03  0.00000000000E+00 0. -1.
          2    1    1    2  501    0  0.22865841577E+02  0.88534433050E+02 -0.63685333906E+02  0.11143165754E+03  0.00000000000E+00 0. -1.
<scales pt_clust_5="13000.00000" pt_clust_6="13000.00000" pt_clust_7="13000.00000" pt_clust_8="13000.00000" pt_clust_9="91.43956"></scales>
<clustering>
<clus scale="   79.221">  5  6 -1 -1</clus>
<clus scale="   89.600">  7  8 -1 -1</clus>
<clus scale="   91.440">  2  9  1 -1</clus>
<clus scale="  243.149">  2  5  1 -1</clus>
<clus scale="   91.440">  2  5  1 -1</clus>
</clustering>
</event>
<event>
 9    1  0.3197504E-005  0.1341319E+03  0.7546771E-02  0.1249074E+00
         21   -1    0    0  501  502  0.00000000000E+00  0.00000000000E+00  0.38519476589E+02  0.38519476589E+02  0.00000000000E+00 0.  1.
         -2   -1    0    0    0  501 -0.00000000000E+00 -0.00000000000E+00 -0.81564210929E+03  0.81564210929E+03  0.00000000000E+00 0.  1.
        -24    2    1    2    0    0  0.26522722700E+00  0.29970161587E+02 -0.17067981433E+03  0.18691566050E+03  0.70054151824E+02 0.  0.
         23    2    1    2    0    0  0.97660701266E+02 -0.36825192275E+02 -0.51434303815E+03  0.53263965349E+03  0.90898472018E+02 0.  0.
         13    1    3    3    0    0 -0.19788492073E+02  0.46125821566E+02 -0.11982895381E+03  0.12991594977E+03  0.00000000000E+00 0. -1.
        -14    1    3    3    0    0  0.20053719300E+02 -0.16155659979E+02 -0.50850860519E+02  0.56999710724E+02  0.00000000000E+00 0.  1.
        -11    1    4    4    0    0  0.24092782736E+02  0.60257847614E+01 -0.22593175081E+02  0.33574154080E+02  0.00000000000E+00 0. -1.
         11    1    4    4    0    0  0.73567918530E+02 -0.42850977036E+02 -0.49174986307E+03  0.49906549941E+03  0.00000000000E+00 0.  1.
         -1    1    1    2    0  502 -0.97925928493E+02  0.68550306875E+01 -0.92099780216E+02  0.13460627189E+03  0.00000000000E+00 0.  1.
<scales pt_clust_5="13000.00000" pt_clust_6="13000.00000" pt_clust_7="13000.00000" pt_clust_8="13000.00000" pt_clust_9="98.63482"></scales>
<clustering>
<clus scale="   70.054">  5  6 -1 -1</clus>
<clus scale="   76.196">  2  5  1 -1</clus>
<clus scale="   90.898">  7  8 -1 -1</clus>
<clus scale="   98.635">  1  9  2 -1</clus>
<clus scale="   98.635">  1  5  2 -1</clus>
</clustering>
</event>
<event>
 9    1  0.3197504E-005  0.1004216E+03  0.7546771E-02  0.1283314E+00
          1   -1    0    0  502    0 -0.00000000000E+00  0.00000000000E+00  0.27575921937E+03  0.27575921937E+03  0.00000000000E+00 0. -1.
         21   -1    0    0  501  502  0.00000000000E+00 -0.00000000000E+00 -0.14081125283E+03  0.14081125283E+03  0.00000000000E+00 0.  1.
        -24    2    1    2    0    0 -0.23524296975E+02 -0.15317996108E+02  0.22488351701E+03  0.24638755825E+03  0.96675741973E+02 0.  0.
         23    2    1    2    0    0  0.29269518625E+02 -0.64325458114E+01 -0.19311826894E+02  0.96062714424E+02  0.89202108037E+02 0.  0.
         11    1    3    3    0    0 -0.56329424642E+02 -0.24412672264E+01  0.18383071526E+03  0.19228285347E+03  0.00000000000E+00 0. -1.
        -12    1    3    3    0    0  0.32805127667E+02 -0.12876728882E+02  0.41052801749E+02  0.54104704781E+02  0.00000000000E+00 0.  1.
        -13    1    4    4    0    0  0.23338350706E+02 -0.29649494959E+02 -0.46459659175E+02  0.59852076786E+02  0.00000000000E+00 0.  1.
         13    1    4    4    0    0  0.59311679194E+01  0.23216949147E+02  0.27147832281E+02  0.36210637638E+02  0.00000000000E+00 0. -1.
          2    1    1    2  501    0 -0.57452216501E+01  0.21750541920E+02 -0.70623723572E+02  0.74120199519E+02  0.00000000000E+00 0. -1.
<scales pt_clust_5="13000.00000" pt_clust_6="13000.00000" pt_clust_7="13000.00000" pt_clust_8="13000.00000" pt_clust_9="22.49653"></scales>
<clustering>
<clus scale="   22.497">  2  9  1 -1</clus>
<clus scale="   89.202">  7  8 -1 -1</clus>
<clus scale="   93.249">  2  7  1 -1</clus>
<clus scale="   96.676">  5  6 -1 -1</clus>
<clus scale="   22.497">  2  5  1 -1</clus>
</clustering>
</event>
<event>
 9    1  0.3197504E-005  0.9059901E+02  0.7546771E-02  0.1309474E+00
          1   -1    0    0  502    0 -0.00000000000E+00  0.00000000000E+00  0.19441372119E+03  0.19441372119E+03  0.00000000000E+00 0. -1.
         21   -1    0    0  501  502  0.00000000000E+00 -0.00000000000E+00 -0.58215091635E+02  0.58215091635E+02  0.00000000000E+00 0. -1.
         23    2    1    2    0    0 -0.13356676091E+02  0.29093135930E+02  0.37698490592E+02  0.93132642638E+02  0.78915787884E+02 0.  0.
        -24    2    1    2    0    0  0.10688540092E+02 -0.56454799765E+02  0.40379492053E+02  0.95201619913E+02  0.64276401189E+02 0.  0.
         11    1    4    4    0    0  0.35325522372E+02 -0.19432341070E+02  0.27843979306E+02  0.48997914179E+02  0.00000000000E+00 0. -1.
        -12    1    4    4    0    0 -0.24636982280E+02 -0.37022458696E+02  0.12535512747E+02  0.46203705734E+02  0.00000000000E+00 0.  1.
        -13    1    3    3    0    0  0.26775185352E+02  0.20594011052E+02  0.39620821124E+02  0.52065663430E+02  0.00000000000E+00 0.  1.
         13    1    3    3    0    0 -0.40131861443E+02  0.84991248781E+01 -0.19223305319E+01  0.41066979208E+02  0.00000000000E+00 0. -1.
          2    1    1    2  501    0  0.26681359995E+01  0.27361663835E+02  0.58120646910E+02  0.64294550273E+02  0.00000000000E+00 0. -1.
<scales pt_clust_5="13000.00000" pt_clust_6="13000.00000" pt_clust_7="13000.00000" pt_clust_8="13000.00000" pt_clust_9="27.49146"></scales>
<clustering>
<clus scale="   27.491">  2  9  1 -1</clus>
<clus scale="   64.276">  5  6 -1 -1</clus>
<clus scale="   78.179">  2  5  1 -1</clus>
<clus scale="   78.916">  7  8 -1 -1</clus>
<clus scale="   27.491">  2  5  1 -1</clus>
</clustering>
</event>
<event>
 9    1  0.3197504E-005  0.1309466E+03  0.7546771E-02  0.1244361E+00
         21   -1    0    0  501  502  0.00000000000E+00  0.00000000000E+00  0.28703916378E+03  0.28703916378E+03  0.00000000000E+00 0.  1.
         -4   -1    0    0    0  501 -0.00000000000E+00 -0.00000000000E+00 -0.28372724629E+03  0.28372724629E+03  0.00000000000E+00 0.  1.
         23    2    1    2    0    0 -0.26208044223E+02 -0.71531421464E+01  0.10929009934E+03  0.14159373375E+03  0.85827912702E+02 0.  0.
        -24    2    1    2    0    0 -0.49191790805E+02  0.76867234203E+02 -0.23442202922E+03  0.26472508076E+03  0.82445597961E+02 0.  0.
         13    1    4    4    0    0 -0.24647793003E+02  0.27735298933E+02 -0.17622041093E+02  0.41076718943E+02  0.00000000000E+00 0. -1.
        -14    1    4    4    0    0 -0.24543997802E+02  0.49131935270E+02 -0.21679998813E+03  0.22364836182E+03  0.00000000000E+00 0.  1.
        -13    1    3    3    0    0 -0.49653115781E+02  0.19338956860E+02  0.77374556141E+02  0.93948119179E+02  0.00000000000E+00 0.  1.
         13    1    3    3    0    0  0.23445071558E+02 -0.26492099006E+02  0.31915543198E+02  0.47645614570E+02  0.00000000000E+00 0. -1.
         -3    1    1    2    0  502  0.75399835028E+02 -0.69714092057E+02  0.12844384738E+03  0.16444759555E+03  0.00000000000E+00 0.  1.
<scales pt_clust_5="13000.00000" pt_clust_6="13000.00000" pt_clust_7="13000.00000" pt_clust_8="13000.00000" pt_clust_9="101.73366"></scales>
<clustering>
<clus scale="   82.446">  5  6 -1 -1</clus>
<clus scale="   85.828">  7  8 -1 -1</clus>
<clus scale="   90.025">  2  7  1 -1</clus>
<clus scale="  101.734">  1  9  2 -1</clus>
<clus scale="  101.734">  1  5  2 -1</clus>
</clustering>
</event>
<event>
 9    1  0.3197504E-005  0.9252216E+02  0.7546771E-02  0.1302018E+00
         21   -1    0    0  501  502  0.00000000000E+00  0.00000000000E+00  0.12387072394E+03  0.12387072394E+03  0.00000000000E+00 0.  1.
         -2   -1    0    0    0  501 -0.00000000000E+00 -0.00000000000E+00 -0.23192598162E+03  0.23192598162E+03  0.00000000000E+00 0.  1.
         23    2    1    2    0    0  0.11700735539E+01 -0.20168989889E+02 -0.16761129582E+03  0.19181815256E+03  0.91063164579E+02 0.  0.
        -24    2    1    2    0    0 -0.13057469809E+02  0.33953862629E+01 -0.16478340353E+02  0.85213772283E+02  0.82509545631E+02 0.  0.
         11    1    4    4    0    0 -0.28178209451E+02  0.23437587687E+02 -0.37523786165E+02  0.52453470168E+02  0.00000000000E+00 0. -1.
        -12    1    4    4    0    0  0.15120739642E+02 -0.20042201424E+02  0.21045445812E+02  0.32760302115E+02  0.00000000000E+00 0.  1.
        -11    1    3    3    0    0 -0.19777213109E+02  0.28167716491E+02 -0.10214773720E+03  0.10779016015E+03  0.00000000000E+00 0. -1.
         11    1    3    3    0    0  0.20947286663E+02 -0.48336706380E+02 -0.65463558617E+02  0.84027992413E+02  0.00000000000E+00 0.  1.
         -1    1    1    2    0  502  0.11887396255E+02  0.16773603626E+02  0.76034378494E+02  0.78764780717E+02  0.00000000000E+00 0.  1.
<scales pt_clust_5="13000.00000" pt_clust_6="13000.00000" pt_clust_7="13000.00000" pt_clust_8="13000.00000" pt_clust_9="20.55879"></scales>
<clustering>
<clus scale="   20.559">  1  9  2 -1</clus>
<clus scale="   82.510">  5  6 -1 -1</clus>
<clus scale="   84.117">  1  5  2 -1</clus>
<clus scale="   91.063">  7  8 -1 -1</clus>
<clus scale="   20.559">  1  5  2 -1</clus>
</clustering>
</event>
<event>
 9    1  0.3197504E-005  0.9774558E+02  0.7546771E-02  0.1289992E+00
         -2   -1    0    0    0  501 -0.00000000000E+00  0.00000000000E+00  0.20315764369E+03  0.20315764369E+03  0.00000000000E+00 0.  1.
         21   -1    0    0  501  502  0.00000000000E+00 -0.00000000000E+00 -0.12068491147E+03  0.12068491147E+03  0.00000000000E+00 0.  1.
         23    2    1    2    0    0  0.13499946587E+02  0.34346031787E+02  0.11976680524E+03  0.15485574758E+03  0.90963269857E+02 0.  0.
        -24    2    1    2    0    0 -0.61316188003E+02  0.38245847609E+00 -0.40336900356E+02  0.10981147676E+03  0.81680314109E+02 0.  0.
         13    1    4    4    0    0 -0.23965167867E+02  0.18814659151E+02  0.20035213278E+02  0.36465469158E+02  0.00000000000E+00 0. -1.
        -14    1    4    4    0    0 -0.37351020137E+02 -0.18432200675E+02 -0.60372113635E+02  0.73346007606E+02  0.00000000000E+00 0.  1.
        -13    1    3    3    0    0 -0.36778434607E+02  0.11597871431E+02  0.72828808936E+02  0.82408733062E+02  0.00000000000E+00 0. -1.
         13    1    3    3    0    0  0.50278381194E+02  0.22748160356E+02  0.46937996302E+02  0.72447014514E+02  0.00000000000E+00 0.  1.
         -1    1    1    2    0  502  0.47816241416E+02 -0.34728490263E+02  0.30428273361E+01  0.59175330817E+02  0.00000000000E+00 0.  1.
<scales pt_clust_5="13000.00000" pt_clust_6="13000.00000" pt_clust_7="13000.00000" pt_clust_8="13000.00000" pt_clust_9="59.09705"></scales>
<clustering>
<clus scale="   59.097">  2  9  1 -1</clus>
<clus scale="   81.680">  5  6 -1 -1</clus>
<clus scale="   89.171">  2  5  1 -1</clus>
<clus scale="   90.963">  7  8 -1 -1</clus>
<clus scale="   59.097">  2  5  1 -1</clus>
</clustering>
</event>
<event>
 9    1  0.3197504E-005  0.1069963E+03  0.7546771E-02  0.1270987E+00
         21   -1    0    0  501  502  0.00000000000E+00  0.00000000000E+00  0.54589562355E+03  0.54589562355E+03  0.00000000000E+00 0.  1.
          1   -1    0    0  502    0 -0.00000000000E+00 -0.00000000000E+00 -0.40416849819E+02  0.40416849819E+02  0.00000000000E+00 0. -1.
         23    2    1    2    0    0 -0.18861274490E+02  0.58625564161E+02  0.96795719826E+02  0.14586627413E+03  0.90082484993E+02 0.  0.
        -24    2    1    2    0    0  0.46680166236E+02 -0.30100904699E+02  0.37822875052E+03  0.39029630861E+03  0.78670950264E+02 0.  0.
         11    1    4    4    0    0 -0.22352712031E+02 -0.83646282156E+01  0.99976468056E+02  0.10278572326E+03  0.00000000000E+00 0. -1.
        -12    1    4    4    0    0  0.69032878268E+02 -0.21736276484E+02  0.27825228246E+03  0.28751058536E+03  0.00000000000E+00 0.  1.
        -13    1    3    3    0    0 -0.52998652641E+02  0.28385704530E+02  0.36744868578E+02  0.70461271420E+02  0.00000000000E+00 0.  1.
         13    1    3    3    0    0  0.34137378151E+02  0.30239859632E+02  0.60050851249E+02  0.75405002707E+02  0.00000000000E+00 0. -1.
          2    1    1    2  501    0 -0.27818891746E+02 -0.28524659462E+02  0.30454303390E+02  0.50149890632E+02  0.00000000000E+00 0. -1.
<scales pt_clust_5="13000.00000" pt_clust_6="13000.00000" pt_clust_7="13000.00000" pt_clust_8="13000.00000" pt_clust_9="39.84405"></scales>
<clustering>
<clus scale="   39.844">  1  9  2 -1</clus>
<clus scale="   78.671">  5  6 -1 -1</clus>
<clus scale="   90.082">  7  8 -1 -1</clus>
<clus scale="   97.583">  1  5  2 -1</clus>
<clus scale="   39.844">  1  5  2 -1</clus>
</clustering>
</event>
<event>
 9    1  0.3197504E-005  0.1216367E+03  0.7546771E-02  0.1261983E+00
          3   -1    0    0  502    0 -0.00000000000E+00  0.00000000000E+00  0.96279250171E+02  0.96279250171E+02  0.00000000000E+00 0. -1.
         21   -1    0    0  501  502  0.00000000000E+00 -0.00000000000E+00 -0.13816159334E+03  0.13816159334E+03  0.00000000000E+00 0.  1.
        -24    2    1    2    0    0  0.54555963061E+01  0.16998320261E+02 -0.14794122114E+02  0.82131047898E+02  0.78790459810E+02 0.  0.
         23    2    1    2    0    0  0.44932401191E+01  0.84204182901E+01 -0.28116658490E+02  0.12499406206E+03  0.12141612914E+03 0.  0.
         11    1    3    3    0    0  0.39285791712E+02  0.23984717490E+02 -0.54829491413E+01  0.46354102675E+02  0.00000000000E+00 0. -1.
        -12    1    3    3    0    0 -0.33830195405E+02 -0.69863972294E+01 -0.93111729722E+01  0.35776945224E+02  0.00000000000E+00 0.  1.
        -13    1    4    4    0    0  0.21603017783E+02  0.59945579599E+02 -0.30515210675E+02  0.70649423022E+02  0.00000000000E+00 0.  1.
         13    1    4    4    0    0 -0.17109777664E+02 -0.51525161309E+02  0.23985521858E+01  0.54344639039E+02  0.00000000000E+00 0. -1.
          4    1    1    2  501    0 -0.99488364252E+01 -0.25418738551E+02  0.10284374369E+01  0.27315733549E+02  0.00000000000E+00 0. -1.
<scales pt_clust_5="13000.00000" pt_clust_6="13000.00000" pt_clust_7="13000.00000" pt_clust_8="13000.00000" pt_clust_9="27.29638"></scales>
<clustering>
<clus scale="   27.296">  2  9  1 -1</clus>
<clus scale="   78.790">  5  6 -1 -1</clus>
<clus scale="   79.130">  1  5  2 -1</clus>
<clus scale="  121.416">  7  8 -1 -1</clus>
<clus scale="   27.296">  2  5  1 -1</clus>
</clustering>
</event>
<event>
 9    1  0.3197504E-005  0.1710076E+03  0.7546771E-02  0.1194100E+00
         21   -1    0    0  501  502  0.00000000000E+00  0.00000000000E+00  0.28846641980E+03  0.28846641980E+03  0.00000000000E+00 0.  1.
         -4   -1    0    0    0  501 -0.00000000000E+00 -0.00000000000E+00 -0.19578005898E+03  0.19578005898E+03  0.00000000000E+00 0.  1.
        -24    2    1    2    0    0 -0.81132978112E+02 -0.26179999549E+02  0.78361195027E+02  0.14026487891E+03  0.79156849708E+02 0.  0.
         23    2    1    2    0    0  0.19017762088E+03 -0.36210759853E+02 -0.15442357275E+02  0.21487138957E+03  0.91937484438E+02 0.  0.
         13    1    3    3    0    0 -0.19586061227E+02 -0.25602884687E+02 -0.89361512433E+01  0.33451103087E+02  0.00000000000E+00 0. -1.
        -14    1    3    3    0    0 -0.61546916885E+02 -0.57711486250E+00  0.87297346270E+02  0.10681377582E+03  0.00000000000E+00 0.  1.
        -11    1    4    4    0    0  0.91062556478E+02 -0.64088864231E+02 -0.78108663753E+01  0.11162786993E+03  0.00000000000E+00 0.  1.
         11    1    4    4    0    0  0.99115064398E+02  0.27878104378E+02 -0.76314908996E+01  0.10324351964E+03  0.00000000000E+00 0. -1.
         -3    1    1    2    0  502 -0.10904464276E+03  0.62390759403E+02  0.29767523077E+02  0.12911021030E+03  0.00000000000E+00 0.  1.
<scales pt_clust_5="13000.00000" pt_clust_6="13000.00000" pt_clust_7="13000.00000" pt_clust_8="13000.00000" pt_clust_9="144.19123"></scales>
<clustering>
<clus scale="   79.157">  5  6 -1 -1</clus>
<clus scale="   91.937">  7  8 -1 -1</clus>
<clus scale="  116.335">  2  5  1 -1</clus>
<clus scale="  144.191">  1  9  2 -1</clus>
<clus scale="  144.191">  1  5  2 -1</clus>
</clustering>
</event>
<event>
 9    1  0.3197504E-005  0.8666961E+02  0.7546771E-02  0.1312587E+00
         -4   -1    0    0    0  501 -0.00000000000E+00  0.00000000000E+00  0.37902630340E+02  0.37902630340E+02  0.00000000000E+00 0.  1.
         21   -1    0    0  501  502  0.00000000000E+00 -0.00000000000E+00 -0.32947596795E+03  0.32947596795E+03  0.00000000000E+00 0.  1.
        -24    2    1    2    0    0 -0.14000514751E+02 -0.14034491965E+02 -0.62819006322E+02  0.10779824143E+03  0.85330252095E+02 0.  0.
         23    2    1    2    0    0  0.16842279804E+02 -0.18911960619E+02 -0.13844658877E+03  0.16340846530E+03  0.83027368663E+02 0.  0.
         11    1    3    3    0    0 -0.42083346440E+02 -0.33200317200E+02 -0.38549286700E+02  0.66025121090E+02  0.00000000000E+00 0. -1.
        -12    1    3    3    0    0  0.28082831689E+02  0.19165825235E+02 -0.24269719622E+02  0.41773120343E+02  0.00000000000E+00 0.  1.
        -13    1    4    4    0    0  0.30578079436E+00  0.32208816147E+02 -0.41090390180E+02  0.52210358212E+02  0.00000000000E+00 0. -1.
         13    1    4    4    0    0  0.16536499010E+02 -0.51120776766E+02 -0.97356198589E+02  0.11119810709E+03  0.00000000000E+00 0.  1.
         -3    1    1    2    0  502 -0.28417650531E+01  0.32946452584E+02 -0.90307742514E+02  0.96171891551E+02  0.00000000000E+00 0.  1.
<scales pt_clust_5="13000.00000" pt_clust_6="13000.00000" pt_clust_7="13000.00000" pt_clust_8="13000.00000" pt_clust_9="33.06878"></scales>
<clustering>
<clus scale="   33.069">  2  9  1 -1</clus>
<clus scale="   83.027">  7  8 -1 -1</clus>
<clus scale="   84.403">  2  7  1 -1</clus>
<clus scale="   85.330">  5  6 -1 -1</clus>
<clus scale="   33.069">  2  5  1 -1</clus>
</clustering>
</event>
<event>
 9    1  0.3197504E-005  0.9468162E+02  0.7546771E-02  0.1295298E+00
         21   -1    0    0  501  502  0.00000000000E+00  0.00000000000E+00  0.22568867631E+03  0.22568867631E+03  0.00000000000E+00 0.  1.
         -2   -1    0    0    0  501 -0.00000000000E+00 -0.00000000000E+00 -0.35839209088E+03  0.35839209088E+03  0.00000000000E+00 0.  1.
         23    2    1    2    0    0  0.21410753037E+02 -0.28315828950E+02 -0.30765326277E+03  0.32161368874E+03  0.86744614705E+02 0.  0.
        -24    2    1    2    0    0 -0.34217153594E+01  0.78206024118E+02  0.42797900794E+02  0.12007053969E+03  0.80357848684E+02 0.  0.
         13    1    4    4    0    0 -0.39195202568E+02  0.59122667612E+02  0.33623513402E+02  0.78500282697E+02  0.00000000000E+00 0. -1.
        -14    1    4    4    0    0  0.35773487209E+02  0.19083356506E+02  0.91743873913E+01  0.41570256995E+02  0.00000000000E+00 0.  1.
        -11    1    3    3    0    0 -0.29558935098E+02 -0.27704762672E+02 -0.10233111921E+03  0.11005881372E+03  0.00000000000E+00 0. -1.
         11    1    3    3    0    0  0.50969688134E+02 -0.61106627799E+00 -0.20532214356E+03  0.21155487502E+03  0.00000000000E+00 0.  1.
         -1    1    1    2    0  502 -0.17989037677E+02 -0.49890195168E+02  0.13215194740E+03  0.14239653876E+03  0.00000000000E+00 0.  1.
<scales pt_clust_5="13000.00000" pt_clust_6="13000.00000" pt_clust_7="13000.00000" pt_clust_8="13000.00000" pt_clust_9="53.03430"></scales>
<clustering>
<clus scale="   53.034">  1  9  2 -1</clus>
<clus scale="   80.358">  5  6 -1 -1</clus>
<clus scale="   86.745">  7  8 -1 -1</clus>
<clus scale="   88.867">  1  5  2 -1</clus>
<clus scale="   53.034">  1  5  2 -1</clus>
</clustering>
</event>
<event>
 9    1  0.3197504E-005  0.1275625E+03  0.7546771E-02  0.1232173E+00
         21   -1    0    0  501  502  0.00000000000E+00  0.00000000000E+00  0.72603343087E+02  0.72603343087E+02  0.00000000000E+00 0.  1.
          1   -1    0    0  502    0 -0.00000000000E+00 -0.00000000000E+00 -0.32671851311E+03  0.32671851311E+03  0.00000000000E+00 0. -1.
        -24    2    1    2    0    0  0.58915745568E+01  0.81681392556E+02 -0.17407047511E+03  0.21440399622E+03  0.94667749256E+02 0.  0.
         23    2    1    2    0    0  0.15207700776E+02 -0.91846180571E+02 -0.91259701576E+02  0.15895098281E+03  0.90940017350E+02 0.  0.
         11    1    3    3    0    0  0.40804966447E+02  0.71379204951E+02 -0.14908066528E+03  0.17025005418E+03  0.00000000000E+00 0. -1.
        -12    1    3    3    0    0 -0.34913391890E+02  0.10302187605E+02 -0.24989809829E+02  0.44153942044E+02  0.00000000000E+00 0.  1.
        -11    1    4    4    0    0  0.54625557428E+00 -0.10810915563E+03 -0.78545689326E+02  0.13363125846E+03  0.00000000000E+00 0. -1.
         11    1    4    4    0    0  0.14661445202E+02  0.16262975064E+02 -0.12714012251E+02  0.25319724344E+02  0.00000000000E+00 0.  1.
          2    1    1    2  501    0 -0.21099275333E+02  0.10164788015E+02  0.11215006669E+02  0.25966877162E+02  0.00000000000E+00 0. -1.
<scales pt_clust_5="13000.00000" pt_clust_6="13000.00000" pt_clust_7="13000.00000" pt_clust_8="13000.00000" pt_clust_9="23.42013"></scales>
<clustering>
<clus scale="   23.420">  1  9  2 -1</clus>
<clus scale="   90.940">  7  8 -1 -1</clus>
<clus scale="   94.668">  5  6 -1 -1</clus>
<clus scale="  124.821">  1  7  2 -1</clus>
<clus scale="   23.420">  1  5  2 -1</clus>
</clustering>
</event>
<event>
 9    1  0.3197504E-005  0.1180357E+03  0.7546771E-02  0.1249480E+00
          1   -1    0    0  502    0 -0.00000000000E+00  0.00000000000E+00  0.65643181700E+03  0.65643181700E+03  0.00000000000E+00 0. -1.
         21   -1    0    0  501  502  0.00000000000E+00 -0.00000000000E+00 -0.42512021101E+02  0.42512021101E+02  0.00000000000E+00 0.  1.
         23    2    1    2    0    0  0.95469814124E+02  0.14867599028E+02  0.46908695345E+03  0.48761519860E+03  0.91599569313E+02 0.  0.
        -24    2    1    2    0    0 -0.33196374148E+02  0.10818532896E+01  0.95345502438E+02  0.13020303826E+03  0.82212509225E+02 0.  0.
         13    1    4    4    0    0 -0.37356909332E+02  0.28440238009E+01  0.10929608252E+03  0.11553900121E+03  0.00000000000E+00 0. -1.
        -14    1    4    4    0    0  0.41605351844E+01 -0.17621705113E+01 -0.13950580081E+02  0.14664037048E+02  0.00000000000E+00 0.  1.
        -13    1    3    3    0    0  0.43357224740E+02 -0.36554033763E+02  0.15331193136E+03  0.16346435275E+03  0.00000000000E+00 0.  1.
         13    1    3    3    0    0  0.52112589384E+02  0.51421632791E+02  0.31577502209E+03  0.32415084585E+03  0.00000000000E+00 0. -1.
          2    1    1    2  501    0 -0.62273439976E+02 -0.15949452318E+02  0.49487340008E+02  0.81125601241E+02  0.00000000000E+00 0. -1.
<scales pt_clust_5="13000.00000" pt_clust_6="13000.00000" pt_clust_7="13000.00000" pt_clust_8="13000.00000" pt_clust_9="64.28348"></scales>
<clustering>
<clus scale="   64.283">  2  9  1 -1</clus>
<clus scale="   82.213">  5  6 -1 -1</clus>
<clus scale="   91.600">  7  8 -1 -1</clus>
<clus scale="  110.909">  2  5  1 -1</clus>
<clus scale="   64.283">  2  5  1 -1</clus>
</clustering>
</event>
<event>
 9    1  0.3197504E-005  0.1074706E+03  0.7546771E-02  0.1268481E+00
         21   -1    0    0  501  502  0.00000000000E+00  0.00000000000E+00  0.21169054226E+03  0.21169054226E+03  0.00000000000E+00 0. -1.
          1   -1    0    0  502    0 -0.00000000000E+00 -0.00000000000E+00 -0.23050441569E+03  0.23050441569E+03  0.00000000000E+00 0. -1.
         23    2    1    2    0    0  0.10592878137E+02  0.37185593104E+02 -0.59028168559E+02  0.11670572122E+03  0.92956566638E+02 0.  0.
        -24    2    1    2    0    0 -0.58148023457E+02 -0.12569634095E+03  0.11580771268E+03  0.19975137804E+03  0.85489320701E+02 0.  0.
         11    1    4    4    0    0 -0.76324012092E+02 -0.84345712730E+02  0.62185757803E+02  0.12964035850E+03  0.00000000000E+00 0. -1.
        -12    1    4    4    0    0  0.18175988635E+02 -0.41350628222E+02  0.53621954876E+02  0.70111019547E+02  0.00000000000E+00 0.  1.
        -11    1    3    3    0    0  0.24672080931E+02  0.10803748842E+02  0.19120783584E+02  0.33030848178E+02  0.00000000000E+00 0.  1.
         11    1    3    3    0    0 -0.14079202794E+02  0.26381844262E+02 -0.78148952143E+02  0.83674873045E+02  0.00000000000E+00 0. -1.
          2    1    1    2  501    0  0.47555145320E+02  0.88510747847E+02 -0.75593417543E+02  0.12573785869E+03  0.00000000000E+00 0. -1.
<scales pt_clust_5="13000.00000" pt_clust_6="13000.00000" pt_clust_7="13000.00000" pt_clust_8="13000.00000" pt_clust_9="100.47713"></scales>
<clustering>
<clus scale="   85.489">  5  6 -1 -1</clus>
<clus scale="   92.957">  7  8 -1 -1</clus>
<clus scale="  100.477">  1  9  2 -1</clus>
<clus scale="  101.081">  1  5  2 -1</clus>
<clus scale="  100.477">  1  5  2 -1</clus>
</clustering>
</event>
<event>
 9    1  0.3197504E-005  0.1026696E+03  0.7546771E-02  0.1279581E+00
         21   -1    0    0  501  502  0.00000000000E+00  0.00000000000E+00  0.52565749049E+03  0.52565749049E+03  0.00000000000E+00 0. -1.
          3   -1    0    0  502    0 -0.00000000000E+00 -0.00000000000E+00 -0.27839485964E+02  0.27839485964E+02  0.00000000000E+00 0. -1.
         23    2    1    2    0    0  0.24113813366E+02 -0.30814553585E+02  0.13749910751E+03  0.16911480493E+03  0.90348215111E+02 0.  0.
        -24    2    1    2    0    0 -0.30351145854E+02  0.58728409284E+02  0.25637402058E+03  0.27657389265E+03  0.79970379230E+02 0.  0.
         13    1    4    4    0    0 -0.38989531931E+02  0.59649819250E+02  0.25806503779E+03  0.26772345483E+03  0.00000000000E+00 0. -1.
        -14    1    4    4    0    0  0.86383860761E+01 -0.92140996590E+00 -0.16910172114E+01  0.88504378160E+01  0.00000000000E+00 0.  1.
        -11    1    3    3    0    0  0.26355921676E+01  0.30624214687E+02  0.27197195401E+02  0.41042372116E+02  0.00000000000E+00 0.  1.
         11    1    3    3    0    0  0.21478221198E+02 -0.61438768272E+02  0.11030191211E+03  0.12807243282E+03  0.00000000000E+00 0. -1.
          4    1    1    2  501    0  0.62373324883E+01 -0.27913855699E+02  0.10394487643E+03  0.10780827887E+03  0.00000000000E+00 0. -1.
<scales pt_clust_5="13000.00000" pt_clust_6="13000.00000" pt_clust_7="13000.00000" pt_clust_8="13000.00000" pt_clust_9="28.60223"></scales>
<clustering>
<clus scale="   28.602">  1  9  2 -1</clus>
<clus scale="   79.970">  5  6 -1 -1</clus>
<clus scale="   90.348">  7  8 -1 -1</clus>
<clus scale="   93.667">  1  5  2 -1</clus>
<clus scale="   28.602">  1  5  2 -1</clus>
</clustering>
</event>
<event>
 9    1  0.3197504E-005  0.9410525E+02  0.7546771E-02  0.1299455E+00
         -4   -1    0    0    0  501 -0.00000000000E+00  0.00000000000E+00  0.25842543653E+02  0.25842543653E+02  0.00000000000E+00 0.  1.
         21   -1    0    0  501  502  0.00000000000E+00 -0.00000000000E+00 -0.70490222444E+03  0.70490222444E+03  0.00000000000E+00 0. -1.
        -24    2    1    2    0    0 -0.62047909285E+01  0.21404271485E+02 -0.87768556227E+02  0.12050381670E+03  0.79506025619E+02 0.  0.
         23    2    1    2    0    0  0.50017781058E+02 -0.21470737107E+02 -0.37403333832E+03  0.38860943692E+03  0.90297205486E+02 0.  0.
         13    1    3    3    0    0  0.36403695049E+02  0.73018768409E+01 -0.32818177823E+02  0.49553801209E+02  0.00000000000E+00 0. -1.
        -14    1    3    3    0    0 -0.42608485978E+02  0.14102394644E+02 -0.54950378404E+02  0.70950015495E+02  0.00000000000E+00 0.  1.
        -13    1    4    4    0    0 -0.28217733937E+01  0.26829521471E+02 -0.50538676731E+02  0.57288248997E+02  0.00000000000E+00 0.  1.
         13    1    4    4    0    0  0.52839554452E+02 -0.48300258578E+02 -0.32349466159E+03  0.33132118792E+03  0.00000000000E+00 0. -1.
         -3    1    1    2    0  502 -0.43812990130E+02  0.66465621717E-01 -0.21725778624E+03  0.22163151447E+03  0.00000000000E+00 0.  1.
<scales pt_clust_5="13000.00000" pt_clust_6="13000.00000" pt_clust_7="13000.00000" pt_clust_8="13000.00000" pt_clust_9="43.81304"></scales>
<clustering>
<clus scale="   43.813">  2  9  1 -1</clus>
<clus scale="   79.506">  5  6 -1 -1</clus>
<clus scale="   83.806">  1  5  2 -1</clus>
<clus scale="   90.297">  7  8 -1 -1</clus>
<clus scale="   43.813">  2  5  1 -1</clus>
</clustering>
</event>
<event>
 9    1  0.3197504E-005  0.1035664E+03  0.7546771E-02  0.1277897E+00
         21   -1    0    0  501  502  0.00000000000E+00  0.00000000000E+00  0.44071152446E+02  0.44071152446E+02  0.00000000000E+00 0.  1.
          1   -1    0    0  502    0 -0.00000000000E+00 -0.00000000000E+00 -0.57105943145E+03  0.57105943145E+03  0.00000000000E+00 0. -1.
         23    2    1    2    0    0 -0.28364315785E+02  0.42089172274E+02 -0.38733584701E+03  0.40104924028E+03  0.90749115269E+02 0.  0.
        -24    2    1    2    0    0  0.68430574754E+02 -0.22792536791E+01 -0.82493196005E+02  0.13372393583E+03  0.79931377245E+02 0.  0.
         11    1    4    4    0    0  0.24235176954E+02 -0.25528709849E+02 -0.75495408797E+02  0.83298352792E+02  0.00000000000E+00 0. -1.
        -12    1    4    4    0    0  0.44195397801E+02  0.23249456170E+02 -0.69977872088E+01  0.50425583039E+02  0.00000000000E+00 0.  1.
        -13    1    3    3    0    0 -0.22927198578E+02 -0.25854299429E+02 -0.16130648831E+03  0.16496631294E+03  0.00000000000E+00 0. -1.
         13    1    3    3    0    0 -0.54371172070E+01  0.67943471702E+02 -0.22602935870E+03  0.23608292735E+03  0.00000000000E+00 0.  1.
          2    1    1    2  501    0 -0.40066258969E+02 -0.39809918594E+02 -0.57159235990E+02  0.80357407781E+02  0.00000000000E+00 0. -1.
<scales pt_clust_5="13000.00000" pt_clust_6="13000.00000" pt_clust_7="13000.00000" pt_clust_8="13000.00000" pt_clust_9="56.48128"></scales>
<clustering>
<clus scale="   56.481">  1  9  2 -1</clus>
<clus scale="   79.931">  5  6 -1 -1</clus>
<clus scale="   90.749">  7  8 -1 -1</clus>
<clus scale="   94.232">  1  5  2 -1</clus>
<clus scale="   56.481">  1  5  2 -1</clus>
</clustering>
</event>
<event>
 9    1  0.3197504E-005  0.8432877E+02  0.7546771E-02  0.1328120E+00
         -4   -1    0    0    0  501 -0.00000000000E+00  0.00000000000E+00  0.28302429333E+03  0.28302429333E+03  0.00000000000E+00 0.  1.
         21   -1    0    0  501  502  0.00000000000E+00 -0.00000000000E+00 -0.32289262407E+02  0.32289262407E+02  0.00000000000E+00 0.  1.
        -24    2    1    2    0    0  0.45704149865E+02 -0.11247199271E+02  0.16983980466E+03  0.19189652051E+03  0.75916707838E+02 0.  0.
         23    2    1    2    0    0 -0.17526048798E+02  0.17588116335E+02  0.50472429352E+02  0.81467551553E+02  0.58932093197E+02 0.  0.
         13    1    3    3    0    0  0.11248082306E+02 -0.41545899052E+02  0.73174067864E+02  0.84894200575E+02  0.00000000000E+00 0. -1.
        -14    1    3    3    0    0  0.34456067560E+02  0.30298699781E+02  0.96665736796E+02  0.10700231993E+03  0.00000000000E+00 0.  1.
        -11    1    4    4    0    0 -0.27282207829E+02 -0.26436506515E+01  0.52180359280E+02  0.58941476460E+02  0.00000000000E+00 0. -1.
         11    1    4    4    0    0  0.97561590301E+01  0.20231766987E+02 -0.17079299281E+01  0.22526075092E+02  0.00000000000E+00 0.  1.
         -3    1    1    2    0  502 -0.28178101067E+02 -0.63409170642E+01  0.30422796912E+02  0.41949483679E+02  0.00000000000E+00 0.  1.
<scales pt_clust_5="13000.00000" pt_clust_6="13000.00000" pt_clust_7="13000.00000" pt_clust_8="13000.00000" pt_clust_9="28.88274"></scales>
<clustering>
<clus scale="   28.883">  2  9  1 -1</clus>
<clus scale="   58.932">  7  8 -1 -1</clus>
<clus scale="   69.433">  2  7  1 -1</clus>
<clus scale="   75.917">  5  6 -1 -1</clus>
<clus scale="   28.883">  2  5  1 -1</clus>
</clustering>
</event>
<event>
 9    1  0.3197504E-005  0.9435156E+02  0.7546771E-02  0.1299259E+00
         -2   -1    0    0    0  501 -0.00000000000E+00  0.00000000000E+00  0.11425514593E+03  0.11425514593E+03  0.00000000000E+00 0.  1.
         21   -1    0    0  501  502  0.00000000000E+00 -0.00000000000E+00 -0.22902776673E+03  0.22902776673E+03  0.00000000000E+00 0.  1.
        -24    2    1    2    0    0  0.65441478077E+01  0.22143106584E+01  0.65939831792E+02  0.10618939724E+03  0.82948162293E+02 0.  0.
         23    2    1    2    0    0  0.10333955530E+02 -0.44297831021E+02 -0.10004263462E+03  0.14455426650E+03  0.93905903712E+02 0.  0.
         11    1    3    3    0    0 -0.55854534464E+01 -0.27814935841E+02  0.68057351646E+02  0.73733785059E+02  0.00000000000E+00 0. -1.
        -12    1    3    3    0    0  0.12129601254E+02  0.30029246499E+02 -0.21175198540E+01  0.32455612184E+02  0.00000000000E+00 0.  1.
        -13    1    4    4    0    0 -0.26629832429E+02  0.10993713698E+02 -0.60955741151E+01  0.29447678005E+02  0.00000000000E+00 0. -1.
         13    1    4    4    0    0  0.36963787959E+02 -0.55291544719E+02 -0.93947060505E+02  0.11510658850E+03  0.00000000000E+00 0.  1.
         -1    1    1    2    0  502 -0.16878103337E+02  0.42083520362E+02 -0.80669817971E+02  0.92539248915E+02  0.00000000000E+00 0.  1.
<scales pt_clust_5="13000.00000" pt_clust_6="13000.00000" pt_clust_7="13000.00000" pt_clust_8="13000.00000" pt_clust_9="45.34196"></scales>
<clustering>
<clus scale="   45.342">  2  9  1 -1</clus>
<clus scale="   82.948">  5  6 -1 -1</clus>
<clus scale="   83.452">  1  5  2 -1</clus>
<clus scale="   93.906">  7  8 -1 -1</clus>
<clus scale="   45.342">  2  5  1 -1</clus>
</clustering>
</event>
<event>
 9    1  0.3197504E-005  0.9397977E+02  0.7546771E-02  0.1298319E+00
          1   -1    0    0  502    0 -0.00000000000E+00  0.00000000000E+00  0.53246328616E+03  0.53246328616E+03  0.00000000000E+00 0. -1.
         21   -1    0    0  501  502  0.00000000000E+00 -0.00000000000E+00 -0.38149188600E+02  0.38149188600E+02  0.00000000000E+00 0. -1.
         23    2    1    2    0    0  0.15698882895E+02  0.49685858297E+01  0.19533909793E+03  0.21518177752E+03  0.88739463753E+02 0.  0.
        -24    2    1    2    0    0 -0.60841862079E+02  0.42819414517E+02  0.10902370698E+03  0.15442553530E+03  0.80161354958E+02 0.  0.
         13    1    4    4    0    0 -0.25043248194E+02  0.62939683420E+02  0.75322321890E+02  0.10130162982E+03  0.00000000000E+00 0. -1.
        -14    1    4    4    0    0 -0.35798613885E+02 -0.20120268902E+02  0.33701385093E+02  0.53123905485E+02  0.00000000000E+00 0.  1.
        -11    1    3    3    0    0 -0.21125967923E+02 -0.31679103485E+02  0.90176418564E+02  0.97885946812E+02  0.00000000000E+00 0.  1.
         11    1    3    3    0    0  0.36824850818E+02  0.36647689315E+02  0.10516267937E+03  0.11729583071E+03  0.00000000000E+00 0. -1.
          2    1    1    2  501    0  0.45142979184E+02 -0.47788000347E+02  0.18995129265E+03  0.20100516194E+03  0.00000000000E+00 0. -1.
<scales pt_clust_5="13000.00000" pt_clust_6="13000.00000" pt_clust_7="13000.00000" pt_clust_8="13000.00000" pt_clust_9="65.73877"></scales>
<clustering>
<clus scale="   65.739">  2  9  1 -1</clus>
<clus scale="   80.161">  5  6 -1 -1</clus>
<clus scale="   85.926">  2  5  1 -1</clus>
<clus scale="   88.739">  7  8 -1 -1</clus>
<clus scale="   65.739">  2  5  1 -1</clus>
</clustering>
</event>
<event>
 9    1  0.3197504E-005  0.2508031E+03  0.7546771E-02  0.1146452E+00
         21   -1    0    0  501  502  0.00000000000E+00  0.00000000000E+00  0.49207571703E+03  0.49207571703E+03  0.00000000000E+00 0. -1.
          1   -1    0    0  502    0 -0.00000000000E+00 -0.00000000000E+00 -0.27440098680E+03  0.27440098680E+03  0.00000000000E+00 0. -1.
        -24    2    1    2    0    0  0.62311442278E+02 -0.39108607631E+02 -0.96941922447E+02  0.14636795274E+03  0.81324302829E+02 0.  0.
         23    2    1    2    0    0  0.17852028494E+03 -0.37488906342E+02 -0.14138987440E+02  0.20544337891E+03  0.93446031146E+02 0.  0.
         11    1    3    3    0    0  0.54281792754E+02 -0.63604869230E+02 -0.69655080549E+02  0.10882978756E+03  0.00000000000E+00 0. -1.
        -12    1    3    3    0    0  0.80296495238E+01  0.24496261600E+02 -0.27286841898E+02  0.37538165174E+02  0.00000000000E+00 0.  1.
        -11    1    4    4    0    0  0.65319969150E+02 -0.50723169230E+02  0.22535165448E+02  0.85716812518E+02  0.00000000000E+00 0.  1.
         11    1    4    4    0    0  0.11320031579E+03  0.13234262888E+02 -0.36674152888E+02  0.11972656639E+03  0.00000000000E+00 0. -1.
          2    1    1    2  501    0 -0.24083172722E+03  0.76597513973E+02  0.32875564011E+03  0.41466537218E+03  0.00000000000E+00 0. -1.
<scales pt_clust_5="13000.00000" pt_clust_6="13000.00000" pt_clust_7="13000.00000" pt_clust_8="13000.00000" pt_clust_9="232.74460"></scales>
<clustering>
<clus scale="   81.324">  5  6 -1 -1</clus>
<clus scale="   93.446">  7  8 -1 -1</clus>
<clus scale="  109.662">  2  5  1 -1</clus>
<clus scale="  232.745">  1  9  2 -1</clus>
<clus scale="  232.745">  1  5  2 -1</clus>
</clustering>
</event>
<event>
 9    1  0.3197504E-005  0.1051217E+03  0.7546771E-02  0.1275791E+00
          1   -1    0    0  502    0 -0.00000000000E+00  0.00000000000E+00  0.33634488583E+03  0.33634488583E+03  0.00000000000E+00 0. -1.
         21   -1    0    0  501  502  0.00000000000E+00 -0.00000000000E+00 -0.75802772040E+02  0.75802772040E+02  0.00000000000E+00 0.  1.
        -24    2    1    2    0    0  0.36135365524E+02 -0.27096444790E+02  0.25003110941E+03  0.26658061418E+03  0.80682626505E+02 0.  0.
         23    2    1    2    0    0 -0.63845903313E+02  0.25390492443E+02  0.65083159186E+00  0.11610508202E+03  0.93589475974E+02 0.  0.
         13    1    3    3    0    0  0.55380359116E+02 -0.26827461740E+02  0.23263826941E+03  0.24063927625E+03  0.00000000000E+00 0. -1.
        -14    1    3    3    0    0 -0.19244993592E+02 -0.26898304982E+00  0.17392840002E+02  0.25941337930E+02  0.00000000000E+00 0.  1.
        -11    1    4    4    0    0 -0.70030159097E+02 -0.17062767527E+02 -0.73900805437E+01  0.72456707828E+02  0.00000000000E+00 0.  1.
         11    1    4    4    0    0  0.61842557843E+01  0.42453259971E+02  0.80409121355E+01  0.43648374193E+02  0.00000000000E+00 0. -1.
          2    1    1    2  501    0  0.27710537788E+02  0.17059523465E+01  0.98601727827E+01  0.29461961667E+02  0.00000000000E+00 0. -1.
<scales pt_clust_5="13000.00000" pt_clust_6="13000.00000" pt_clust_7="13000.00000" pt_clust_8="13000.00000" pt_clust_9="27.76300"></scales>
<clustering>
<clus scale="   27.763">  2  9  1 -1</clus>
<clus scale="   80.683">  5  6 -1 -1</clus>
<clus scale="   93.589">  7  8 -1 -1</clus>
<clus scale="   93.815">  1  5  2 -1</clus>
<clus scale="   27.763">  2  5  1 -1</clus>
</clustering>
</event>
<event>
 9    1  0.3197504E-005  0.1979929E+03  0.7546771E-02  0.1180279E+00
         21   -1    0    0  501  502  0.00000000000E+00  0.00000000000E+00  0.84977741209E+03  0.84977741209E+03  0.00000000000E+00 0.  1.
          1   -1    0    0  502    0 -0.00000000000E+00 -0.00000000000E+00 -0.10159403558E+03  0.10159403558E+03  0.00000000000E+00 0. -1.
        -24    2    1    2    0    0  0.39042259312E+02  0.37089984129E+02  0.10480835203E+03  0.14616220861E+03  0.86479105185E+02 0.  0.
         23    2    1    2    0    0  0.21672648970E+02 -0.18171593387E+03  0.61232774082E+03  0.64531271237E+03  0.89402741789E+02 0.  0.
         11    1    3    3    0    0  0.23907621491E+02  0.51906599276E+02  0.22909133654E+02  0.61568643144E+02  0.00000000000E+00 0. -1.
        -12    1    3    3    0    0  0.15134637821E+02 -0.14816615147E+02  0.81899218379E+02  0.84593565462E+02  0.00000000000E+00 0.  1.
        -11    1    4    4    0    0  0.24629976991E+02 -0.15411084484E+03  0.58812920052E+03  0.60848397248E+03  0.00000000000E+00 0.  1.
         11    1    4    4    0    0 -0.29573280207E+01 -0.27605089031E+02  0.24198540299E+02  0.36828739892E+02  0.00000000000E+00 0. -1.
          2    1    1    2  501    0 -0.60714908282E+02  0.14462594974E+03  0.31047283657E+02  0.15989652670E+03  0.00000000000E+00 0. -1.
<scales pt_clust_5="13000.00000" pt_clust_6="13000.00000" pt_clust_7="13000.00000" pt_clust_8="13000.00000" pt_clust_9="176.65896"></scales>
<clustering>
<clus scale="   86.479">  5  6 -1 -1</clus>
<clus scale="   89.403">  7  8 -1 -1</clus>
<clus scale="  101.875">  2  5  1 -1</clus>
<clus scale="  176.659">  1  9  2 -1</clus>
<clus scale="  176.659">  1  5  2 -1</clus>
</clustering>
</event>
<event>
 9    1  0.3197504E-005  0.1032049E+03  0.7546771E-02  0.1278790E+00
         21   -1    0    0  501  502  0.00000000000E+00  0.00000000000E+00  0.46661979872E+02  0.46661979872E+02  0.00000000000E+00 0. -1.
         -2   -1    0    0    0  501 -0.00000000000E+00 -0.00000000000E+00 -0.33558395640E+03  0.33558395640E+03  0.00000000000E+00 0.  1.
        -24    2    1    2    0    0  0.58071409282E+02  0.98565491432E+00 -0.19171149987E+03  0.21562275075E+03  0.79791048150E+02 0.  0.
         23    2    1    2    0    0 -0.34328412964E+02  0.11539958037E+01 -0.10353303581E+03  0.14195979699E+03  0.90850001732E+02 0.  0.
         13    1    3    3    0    0 -0.19770108981E+02 -0.53915768382E+01 -0.36087593258E+02  0.41499887917E+02  0.00000000000E+00 0. -1.
        -14    1    3    3    0    0  0.77841518263E+02  0.63772317525E+01 -0.15562390662E+03  0.17412286283E+03  0.00000000000E+00 0.  1.
        -11    1    4    4    0    0 -0.62088716653E+02 -0.15242778141E+02 -0.59117313963E+02  0.87075873991E+02  0.00000000000E+00 0. -1.
         11    1    4    4    0    0  0.27760303689E+02  0.16396773945E+02 -0.44415721848E+02  0.54883923001E+02  0.00000000000E+00 0.  1.
         -1    1    1    2    0  502 -0.23742996318E+02 -0.21396507180E+01  0.63225591604E+01  0.24663388528E+02  0.00000000000E+00 0.  1.
<scales pt_clust_5="13000.00000" pt_clust_6="13000.00000" pt_clust_7="13000.00000" pt_clust_8="13000.00000" pt_clust_9="23.83921"></scales>
<clustering>
<clus scale="   23.839">  1  9  2 -1</clus>
<clus scale="   79.791">  5  6 -1 -1</clus>
<clus scale="   90.850">  7  8 -1 -1</clus>
<clus scale="   93.617">  2  5  1 -1</clus>
<clus scale="   23.839">  1  5  2 -1</clus>
</clustering>
</event>
<event>
 9    1  0.3197504E-005  0.1102751E+03  0.7546771E-02  0.1265967E+00
          1   -1    0    0  502    0 -0.00000000000E+00  0.00000000000E+00  0.19306090291E+03  0.19306090291E+03  0.00000000000E+00 0. -1.
         21   -1    0    0  501  502  0.00000000000E+00 -0.00000000000E+00 -0.25922971866E+03  0.25922971866E+03  0.00000000000E+00 0. -1.
        -24    2    1    2    0    0  0.27340495225E+02  0.51328828483E+02  0.11608061383E+03  0.15207540026E+03  0.79183755557E+02 0.  0.
         23    2    1    2    0    0 -0.46117652878E+01  0.53032715081E+02 -0.16126078672E+03  0.19136463533E+03  0.88213633158E+02 0.  0.
         13    1    3    3    0    0  0.12503837134E+02  0.30861870451E+02  0.12170523940E+03  0.12617831148E+03  0.00000000000E+00 0. -1.
        -14    1    3    3    0    0  0.14836658091E+02  0.20466958032E+02 -0.56246255700E+01  0.25897088778E+02  0.00000000000E+00 0.  1.
        -13    1    4    4    0    0  0.26188119242E+02  0.44249600335E+02 -0.37800969772E+02  0.63818163833E+02  0.00000000000E+00 0.  1.
         13    1    4    4    0    0 -0.30799884530E+02  0.87831147459E+01 -0.12345981694E+03  0.12754647150E+03  0.00000000000E+00 0. -1.
          2    1    1    2  501    0 -0.22728729937E+02 -0.10436154356E+03 -0.20988642859E+02  0.10885058598E+03  0.00000000000E+00 0. -1.
<scales pt_clust_5="13000.00000" pt_clust_6="13000.00000" pt_clust_7="13000.00000" pt_clust_8="13000.00000" pt_clust_9="66.17371"></scales>
<clustering>
<clus scale="   79.184">  5  6 -1 -1</clus>
<clus scale="   88.214">  7  8 -1 -1</clus>
<clus scale="   98.246">  1  5  2 -1</clus>
<clus scale="   66.174">  2  9  1 -1</clus>
<clus scale="   66.174">  2  5  1 -1</clus>
</clustering>
</event>
<event>
 9    1  0.3197504E-005  0.9628863E+02  0.7546771E-02  0.1294450E+00
          1   -1    0    0  502    0 -0.00000000000E+00  0.00000000000E+00  0.28567563039E+03  0.28567563039E+03  0.00000000000E+00 0. -1.
         21   -1    0    0  501  502  0.00000000000E+00 -0.00000000000E+00 -0.65822066700E+02  0.65822066700E+02  0.00000000000E+00 0. -1.
        -24    2    1    2    0    0  0.25034402570E+02  0.18433490080E+02  0.17625973402E+03  0.19611646324E+03  0.80172678943E+02 0.  0.
         23    2    1    2    0    0  0.30533222263E+01 -0.43946273025E+02  0.55575028128E+02  0.11558963304E+03  0.91278594569E+02 0.  0.
         11    1    3    3    0    0  0.34438083065E+02  0.33113680513E+02  0.17152057536E+03  0.17805000751E+03  0.00000000000E+00 0. -1.
        -12    1    3    3    0    0 -0.94036804954E+01 -0.14680190433E+02  0.47391586652E+01  0.18066455736E+02  0.00000000000E+00 0.  1.
        -13    1    4    4    0    0 -0.17158699431E+02 -0.15975701504E+02  0.73183967659E+02  0.76847492653E+02  0.00000000000E+00 0.  1.
         13    1    4    4    0    0  0.20212021657E+02 -0.27970571520E+02 -0.17608939531E+02  0.38742140391E+02  0.00000000000E+00 0. -1.
          2    1    1    2  501    0 -0.28087724796E+02  0.25512782945E+02 -0.11981198461E+02  0.39791600802E+02  0.00000000000E+00 0. -1.
<scales pt_clust_5="13000.00000" pt_clust_6="13000.00000" pt_clust_7="13000.00000" pt_clust_8="13000.00000" pt_clust_9="37.94499"></scales>
<clustering>
<clus scale="   37.945">  2  9  1 -1</clus>
<clus scale="   80.173">  5  6 -1 -1</clus>
<clus scale="   85.833">  1  5  2 -1</clus>
<clus scale="   91.279">  7  8 -1 -1</clus>
<clus scale="   37.945">  2  5  1 -1</clus>
</clustering>
</event>
<event>
 9    1  0.3197504E-005  0.1636530E+03  0.7546771E-02  0.1211904E+00
         -4   -1    0    0    0  501 -0.00000000000E+00  0.00000000000E+00  0.12150627508E+04  0.12150627508E+04  0.00000000000E+00 0.  1.
         21   -1    0    0  501  502  0.00000000000E+00 -0.00000000000E+00 -0.77236261454E+02  0.77236261454E+02  0.00000000000E+00 0.  1.
        -24    2    1    2    0    0 -0.36692405720E+02 -0.20927527498E+02  0.61480559166E+01  0.90552908077E+02  0.79860732058E+02 0.  0.
         23    2    1    2    0    0 -0.12861604238E+03  0.14418406565E+01  0.19729239120E+03  0.25264977034E+03  0.91451919405E+02 0.  0.
         11    1    3    3    0    0 -0.65481855787E+01  0.29850324032E+02 -0.33477006379E+01  0.30742928922E+02  0.00000000000E+00 0. -1.
        -12    1    3    3    0    0 -0.30144220141E+02 -0.50777851530E+02  0.94957565545E+01  0.59809979154E+02  0.00000000000E+00 0.  1.
        -11    1    4    4    0    0 -0.43804312011E+02  0.41752828800E+02  0.10372286530E+03  0.12008559135E+03  0.00000000000E+00 0.  1.
         11    1    4    4    0    0 -0.84811730366E+02 -0.40310988144E+02  0.93569525905E+02  0.13256417899E+03  0.00000000000E+00 0. -1.
         -3    1    1    2    0  502  0.16530844810E+03  0.19485686841E+02  0.93438604227E+03  0.94909633388E+03  0.00000000000E+00 0.  1.
<scales pt_clust_5="13000.00000" pt_clust_6="13000.00000" pt_clust_7="13000.00000" pt_clust_8="13000.00000" pt_clust_9="135.71610"></scales>
<clustering>
<clus scale="   79.861">  5  6 -1 -1</clus>
<clus scale="   90.344">  1  5  2 -1</clus>
<clus scale="   91.452">  7  8 -1 -1</clus>
<clus scale="  135.716">  2  9  1 -1</clus>
<clus scale="  135.716">  2  5  1 -1</clus>
</clustering>
</event>
<event>
 9    1  0.3197504E-005  0.1232754E+03  0.7546771E-02  0.1252878E+00
         21   -1    0    0  501  502  0.00000000000E+00  0.00000000000E+00  0.18258068520E+03  0.18258068520E+03  0.00000000000E+00 0.  1.
          1   -1    0    0  502    0 -0.00000000000E+00 -0.00000000000E+00 -0.64115025823E+03  0.64115025823E+03  0.00000000000E+00 0. -1.
        -24    2    1    2    0    0 -0.78131231508E+01  0.41571516933E+02 -0.24516947501E+03  0.26150661365E+03  0.80550615111E+02 0.  0.
         23    2    1    2    0    0 -0.20184712394E+02  0.78001803716E+02  0.14154810946E+03  0.18663161445E+03  0.91125123998E+02 0.  0.
         11    1    3    3    0    0 -0.25504513062E+02 -0.10187114282E+02 -0.14302996918E+03  0.14564281502E+03  0.00000000000E+00 0. -1.
        -12    1    3    3    0    0  0.17691389911E+02  0.51758631215E+02 -0.10213950582E+03  0.11586379863E+03  0.00000000000E+00 0.  1.
        -13    1    4    4    0    0 -0.19206836989E+02 -0.16074200376E+02  0.46962320207E+02  0.53223510069E+02  0.00000000000E+00 0. -1.
         13    1    4    4    0    0 -0.97787540505E+00  0.94076004092E+02  0.94585789255E+02  0.13340810438E+03  0.00000000000E+00 0.  1.
          2    1    1    2  501    0  0.27997835545E+02 -0.11957332065E+03 -0.35494820748E+03  0.37559271532E+03  0.00000000000E+00 0. -1.
<scales pt_clust_5="13000.00000" pt_clust_6="13000.00000" pt_clust_7="13000.00000" pt_clust_8="13000.00000" pt_clust_9="83.02440"></scales>
<clustering>
<clus scale="   80.551">  5  6 -1 -1</clus>
<clus scale="   90.982">  2  5  1 -1</clus>
<clus scale="   83.024">  1  9  2 -1</clus>
<clus scale="   91.125">  7  8 -1 -1</clus>
<clus scale="   83.024">  1  5  2 -1</clus>
</clustering>
</event>
<event>
 9    1  0.3197504E-005  0.1223284E+03  0.7546771E-02  0.1242980E+00
          1   -1    0    0  502    0 -0.00000000000E+00  0.00000000000E+00  0.67175314923E+03  0.67175314923E+03  0.00000000000E+00 0. -1.
         21   -1    0    0  501  502  0.00000000000E+00 -0.00000000000E+00 -0.12126682952E+03  0.12126682952E+03  0.00000000000E+00 0. -1.
        -24    2    1    2    0    0  0.15810545723E+02  0.76881882495E+02  0.37441590494E+03  0.39053953237E+03  0.78568818639E+02 0.  0.
         23    2    1    2    0    0 -0.45115108698E+02 -0.12274103284E+03 -0.52409913905E+02  0.16760797104E+03  0.90801424575E+02 0.  0.
         11    1    3    3    0    0  0.28130688622E+02  0.88373212822E+02  0.33655390506E+03  0.34909839787E+03  0.00000000000E+00 0. -1.
        -12    1    3    3    0    0 -0.12320142898E+02 -0.11491330326E+02  0.37861999879E+02  0.41441134499E+02  0.00000000000E+00 0.  1.
        -11    1    4    4    0    0  0.24940991564E+02 -0.54091799873E+02 -0.31258991022E+02  0.67268866450E+02  0.00000000000E+00 0.  1.
         11    1    4    4    0    0 -0.70056100263E+02 -0.68649232966E+02 -0.21150922883E+02  0.10033910459E+03  0.00000000000E+00 0. -1.
          2    1    1    2  501    0  0.29304562975E+02  0.45859150344E+02  0.22848032867E+03  0.23487247534E+03  0.00000000000E+00 0. -1.
<scales pt_clust_5="13000.00000" pt_clust_6="13000.00000" pt_clust_7="13000.00000" pt_clust_8="13000.00000" pt_clust_9="54.42262"></scales>
<clustering>
<clus scale="   54.423">  2  9  1 -1</clus>
<clus scale="   78.569">  5  6 -1 -1</clus>
<clus scale="   90.801">  7  8 -1 -1</clus>
<clus scale="  113.545">  1  5  2 -1</clus>
<clus scale="   54.423">  2  5  1 -1</clus>
</clustering>
</event>
<event>
 9    1  0.3197504E-005  0.9144541E+02  0.7546771E-02  0.1308571E+00
         -2   -1    0    0    0  501 -0.00000000000E+00  0.00000000000E+00  0.72130342565E+02  0.72130342565E+02  0.00000000000E+00 0.  1.
         21   -1    0    0  501  502  0.00000000000E+00 -0.00000000000E+00 -0.17802704729E+03  0.17802704729E+03  0.00000000000E+00 0.  1.
        -24    2    1    2    0    0  0.17235121833E+02  0.10377956050E+02 -0.47975403318E+02  0.92900156528E+02  0.76967839797E+02 0.  0.
         23    2    1    2    0    0  0.18388798941E+02 -0.17240478912E+01 -0.72359634573E+02  0.11785648051E+03  0.91176274408E+02 0.  0.
         13    1    3    3    0    0  0.46810941952E+02  0.65892719082E+01 -0.17896740453E+02  0.50546771505E+02  0.00000000000E+00 0. -1.
        -14    1    3    3    0    0 -0.29575820119E+02  0.37886841422E+01 -0.30078662864E+02  0.42353385023E+02  0.00000000000E+00 0.  1.
        -13    1    4    4    0    0 -0.31984413567E+02 -0.11727857685E+02 -0.70769980372E+01  0.34794098039E+02  0.00000000000E+00 0. -1.
         13    1    4    4    0    0  0.50373212507E+02  0.10003809794E+02 -0.65282636536E+02  0.83062382471E+02  0.00000000000E+00 0.  1.
         -1    1    1    2    0  502 -0.35623920773E+02 -0.86539081591E+01  0.14438333168E+02  0.39400752815E+02  0.00000000000E+00 0.  1.
<scales pt_clust_5="13000.00000" pt_clust_6="13000.00000" pt_clust_7="13000.00000" pt_clust_8="13000.00000" pt_clust_9="36.65999"></scales>
<clustering>
<clus scale="   36.660">  2  9  1 -1</clus>
<clus scale="   76.968">  5  6 -1 -1</clus>
<clus scale="   77.286">  1  5  2 -1</clus>
<clus scale="   91.176">  7  8 -1 -1</clus>
<clus scale="   36.660">  2  5  1 -1</clus>
</clustering>
</event>
<event>
 9    1  0.3197504E-005  0.1607040E+03  0.7546771E-02  0.1218653E+00
          3   -1    0    0  502    0 -0.00000000000E+00  0.00000000000E+00  0.12504793000E+03  0.12504793000E+03  0.00000000000E+00 0. -1.
         21   -1    0    0  501  502  0.00000000000E+00 -0.00000000000E+00 -0.29727464454E+03  0.29727464454E+03  0.00000000000E+00 0. -1.
        -24    2    1    2    0    0  0.10355223502E+02  0.68989134766E+01 -0.34825440165E+02  0.89742765308E+02  0.81768740858E+02 0.  0.
         23    2    1    2    0    0  0.79898520536E+02 -0.96838814825E+02 -0.23119512853E+02  0.16142127108E+03  0.98796686389E+02 0.  0.
         11    1    3    3    0    0  0.14114192832E+02 -0.36351884201E+02 -0.20301662432E+02  0.43963933192E+02  0.00000000000E+00 0. -1.
        -12    1    3    3    0    0 -0.37589693298E+01  0.43250797678E+02 -0.14523777733E+02  0.45778832115E+02  0.00000000000E+00 0.  1.
        -11    1    4    4    0    0  0.10143215729E+03 -0.75714013870E+02 -0.59554205012E+01  0.12671448797E+03  0.00000000000E+00 0. -1.
         11    1    4    4    0    0 -0.21533636755E+02 -0.21124800955E+02 -0.17164092352E+02  0.34706783105E+02  0.00000000000E+00 0.  1.
          4    1    1    2  501    0 -0.90253744038E+02  0.89939901348E+02 -0.11428176153E+03  0.17115853816E+03  0.00000000000E+00 0. -1.
<scales pt_clust_5="13000.00000" pt_clust_6="13000.00000" pt_clust_7="13000.00000" pt_clust_8="13000.00000" pt_clust_9="126.74779"></scales>
<clustering>
<clus scale="   81.769">  5  6 -1 -1</clus>
<clus scale="   82.710">  1  5  2 -1</clus>
<clus scale="   98.797">  7  8 -1 -1</clus>
<clus scale="  126.748">  2  9  1 -1</clus>
<clus scale="  126.748">  2  5  1 -1</clus>
</clustering>
</event>
<event>
 9    1  0.3197504E-005  0.1049322E+03  0.7546771E-02  0.1273608E+00
          3   -1    0    0  502    0 -0.00000000000E+00  0.00000000000E+00  0.18795997475E+02  0.18795997475E+02  0.00000000000E+00 0. -1.
         21   -1    0    0  501  502  0.00000000000E+00 -0.00000000000E+00 -0.12507397600E+04  0.12507397600E+04  0.00000000000E+00 0.  1.
         23    2    1    2    0    0 -0.40242839332E+02  0.81998492043E+01 -0.34623987071E+03  0.36054623527E+03  0.91786796722E+02 0.  0.
        -24    2    1    2    0    0  0.68847004602E+02 -0.31215446747E+02 -0.85093448402E+03  0.85842443822E+03  0.84194452858E+02 0.  0.
         13    1    4    4    0    0  0.24777184893E+02 -0.12007592946E+02 -0.59838285715E+02  0.65868897189E+02  0.00000000000E+00 0. -1.
        -14    1    4    4    0    0  0.44069819709E+02 -0.19207853801E+02 -0.79109619830E+03  0.79255554103E+03  0.00000000000E+00 0.  1.
        -11    1    3    3    0    0 -0.20609990034E+02  0.50128539972E+02 -0.19285023703E+03  0.20032188131E+03  0.00000000000E+00 0.  1.
         11    1    3    3    0    0 -0.19632849299E+02 -0.41928690767E+02 -0.15338963368E+03  0.16022435396E+03  0.00000000000E+00 0. -1.
          4    1    1    2  501    0 -0.28604165270E+02  0.23015597543E+02 -0.34769407843E+02  0.50565084028E+02  0.00000000000E+00 0. -1.
<scales pt_clust_5="13000.00000" pt_clust_6="13000.00000" pt_clust_7="13000.00000" pt_clust_8="13000.00000" pt_clust_9="36.71399"></scales>
<clustering>
<clus scale="   36.714">  2  9  1 -1</clus>
<clus scale="   84.194">  5  6 -1 -1</clus>
<clus scale="   91.787">  7  8 -1 -1</clus>
<clus scale="   98.360">  2  5  1 -1</clus>
<clus scale="   36.714">  2  5  1 -1</clus>
</clustering>
</event>
<event>
 9    1  0.3197504E-005  0.1062210E+03  0.7546771E-02  0.1273314E+00
          1   -1    0    0  502    0 -0.00000000000E+00  0.00000000000E+00  0.60030150517E+02  0.60030150517E+02  0.00000000000E+00 0. -1.
         21   -1    0    0  501  502  0.00000000000E+00 -0.00000000000E+00 -0.35367009085E+03  0.35367009085E+03  0.00000000000E+00 0.  1.
         23    2    1    2    0    0  0.38069448584E+02 -0.43595368329E+01 -0.63469517328E+02  0.11766449424E+03  0.91368840961E+02 0.  0.
        -24    2    1    2    0    0 -0.69615256482E+02  0.18780649742E+00 -0.55874330659E+02  0.11885880411E+03  0.78480285938E+02 0.  0.
         13    1    4    4    0    0 -0.19977807214E+02  0.12987406807E+02  0.17349433674E+02  0.29475216123E+02  0.00000000000E+00 0. -1.
        -14    1    4    4    0    0 -0.49637449268E+02 -0.12799600310E+02 -0.73223764334E+02  0.89383587985E+02  0.00000000000E+00 0.  1.
        -13    1    3    3    0    0  0.46553476717E+02  0.24411140730E+02 -0.69428310471E+02  0.87082835743E+02  0.00000000000E+00 0. -1.
         13    1    3    3    0    0 -0.84840281327E+01 -0.28770677563E+02  0.59587931432E+01  0.30581658499E+02  0.00000000000E+00 0.  1.
          2    1    1    2  501    0  0.31545807898E+02  0.41717303355E+01 -0.17429609235E+03  0.17717694302E+03  0.00000000000E+00 0. -1.
<scales pt_clust_5="13000.00000" pt_clust_6="13000.00000" pt_clust_7="13000.00000" pt_clust_8="13000.00000" pt_clust_9="31.82045"></scales>
<clustering>
<clus scale="   31.820">  2  9  1 -1</clus>
<clus scale="   78.480">  5  6 -1 -1</clus>
<clus scale="   91.369">  7  8 -1 -1</clus>
<clus scale="   95.361">  2  5  1 -1</clus>
<clus scale="   31.820">  2  5  1 -1</clus>
</clustering>
</event>
<event>
 9    1  0.3197504E-005  0.9136655E+02  0.7546771E-02  0.1305628E+00
         21   -1    0    0  501  502  0.00000000000E+00  0.00000000000E+00  0.30746690438E+03  0.30746690438E+03  0.00000000000E+00 0.  1.
         -2   -1    0    0    0  501 -0.00000000000E+00 -0.00000000000E+00 -0.44546922169E+02  0.44546922169E+02  0.00000000000E+00 0.  1.
        -24    2    1    2    0    0 -0.14799549421E+02  0.12632573989E+02  0.34123798639E+02  0.89520238947E+02  0.80441475365E+02 0.  0.
         23    2    1    2    0    0  0.17566817664E+01  0.75582037586E+01  0.21818406516E+03  0.23621810549E+03  0.90191433611E+02 0.  0.
         11    1    3    3    0    0 -0.20563217519E+02  0.39380320726E+02 -0.16809042434E+01  0.44457631677E+02  0.00000000000E+00 0. -1.
        -12    1    3    3    0    0  0.57636680981E+01 -0.26747746737E+02  0.35804702883E+02  0.45062607270E+02  0.00000000000E+00 0.  1.
        -11    1    4    4    0    0 -0.57819041194E+01 -0.39583268876E+02  0.12899796083E+03  0.13505828182E+03  0.00000000000E+00 0. -1.
         11    1    4    4    0    0  0.75385858858E+01  0.47141472635E+02  0.89186104339E+02  0.10115982368E+03  0.00000000000E+00 0.  1.
         -1    1    1    2    0  502  0.13042867655E+02 -0.20190777748E+02  0.10612118403E+02  0.26275482103E+02  0.00000000000E+00 0.  1.
<scales pt_clust_5="13000.00000" pt_clust_6="13000.00000" pt_clust_7="13000.00000" pt_clust_8="13000.00000" pt_clust_9="24.03715"></scales>
<clustering>
<clus scale="   24.037">  1  9  2 -1</clus>
<clus scale="   80.441">  5  6 -1 -1</clus>
<clus scale="   81.757">  2  5  1 -1</clus>
<clus scale="   90.191">  7  8 -1 -1</clus>
<clus scale="   24.037">  1  5  2 -1</clus>
</clustering>
</event>
<event>
 9    1  0.3197504E-005  0.1391342E+03  0.7546771E-02  0.1216411E+00
         21   -1    0    0  501  502  0.00000000000E+00  0.00000000000E+00  0.11653241062E+03  0.11653241062E+03  0.00000000000E+00 0.  1.
         -2   -1    0    0    0  501 -0.00000000000E+00 -0.00000000000E+00 -0.37316387118E+03  0.37316387118E+03  0.00000000000E+00 0.  1.
         23    2    1    2    0    0  0.12231899098E+03  0.46037043894E+02 -0.26433868770E+03  0.30844766662E+03  0.90463673718E+02 0.  0.
        -24    2    1    2    0    0 -0.52956091380E+02 -0.27821872158E+02 -0.21972399090E+02  0.10363492736E+03  0.81725196005E+02 0.  0.
         11    1    4    4    0    0 -0.54720146867E+02 -0.44566465738E+02 -0.38202391382E+02  0.80248906839E+02  0.00000000000E+00 0. -1.
        -12    1    4    4    0    0  0.17640554865E+01  0.16744593580E+02  0.16229992292E+02  0.23386020519E+02  0.00000000000E+00 0.  1.
        -13    1    3    3    0    0  0.19943694482E+02 -0.80489573805E+01 -0.18852242103E+01  0.21589134647E+02  0.00000000000E+00 0. -1.
         13    1    3    3    0    0  0.10237529650E+03  0.54086001274E+02 -0.26245346349E+03  0.28685853198E+03  0.00000000000E+00 0.  1.
         -1    1    1    2    0  502 -0.69362899604E+02 -0.18215171736E+02  0.29679626242E+02  0.77613687818E+02  0.00000000000E+00 0.  1.
<scales pt_clust_5="13000.00000" pt_clust_6="13000.00000" pt_clust_7="13000.00000" pt_clust_8="13000.00000" pt_clust_9="71.71474"></scales>
<clustering>
<clus scale="   71.715">  1  9  2 -1</clus>
<clus scale="   81.725">  5  6 -1 -1</clus>
<clus scale="   90.464">  7  8 -1 -1</clus>
<clus scale="  133.618">  1  5  2 -1</clus>
<clus scale="   71.715">  1  5  2 -1</clus>
</clustering>
</event>
<event>
 9    1  0.3197504E-005  0.9980813E+02  0.7546771E-02  0.1292831E+00
          1   -1    0    0  502    0 -0.00000000000E+00  0.00000000000E+00  0.17393897167E+03  0.17393897167E+03  0.00000000000E+00 0. -1.
         21   -1    0    0  501  502  0.00000000000E+00 -0.00000000000E+00 -0.28790535411E+03  0.28790535411E+03  0.00000000000E+00 0. -1.
         23    2    1    2    0    0  0.17379496164E+02 -0.19217288657E+02  0.11141835393E+03  0.14797937143E+03  0.93874883243E+02 0.  0.
        -24    2    1    2    0    0 -0.39723018545E+02  0.37327061396E+02 -0.36214146234E+01  0.90244365550E+02  0.71831073742E+02 0.  0.
         11    1    4    4    0    0 -0.49062219774E+02  0.97923739766E+01 -0.23245072955E+02  0.55166343126E+02  0.00000000000E+00 0. -1.
        -12    1    4    4    0    0  0.93392012287E+01  0.27534687419E+02  0.19623658332E+02  0.35078022424E+02  0.00000000000E+00 0.  1.
        -11    1    3    3    0    0  0.41175040316E+02 -0.23690661130E+02  0.16918229439E+02  0.50426757353E+02  0.00000000000E+00 0.  1.
         11    1    3    3    0    0 -0.23795544152E+02  0.44733724726E+01  0.94500124495E+02  0.97552614072E+02  0.00000000000E+00 0. -1.
          2    1    1    2  501    0  0.22343522381E+02 -0.18109772739E+02 -0.22176332176E+03  0.22362058881E+03  0.00000000000E+00 0. -1.
<scales pt_clust_5="13000.00000" pt_clust_6="13000.00000" pt_clust_7="13000.00000" pt_clust_8="13000.00000" pt_clust_9="28.76103"></scales>
<clustering>
<clus scale="   28.761">  2  9  1 -1</clus>
<clus scale="   71.831">  5  6 -1 -1</clus>
<clus scale="   79.428">  2  5  1 -1</clus>
<clus scale="   93.875">  7  8 -1 -1</clus>
<clus scale="   28.761">  2  5  1 -1</clus>
</clustering>
</event>
<event>
 9    1  0.3197504E-005  0.9272022E+02  0.7546771E-02  0.1303309E+00
         21   -1    0    0  501  502  0.00000000000E+00  0.00000000000E+00  0.44179340475E+02  0.44179340475E+02  0.00000000000E+00 0. -1.
         -2   -1    0    0    0  501 -0.00000000000E+00 -0.00000000000E+00 -0.32714231486E+03  0.32714231486E+03  0.00000000000E+00 0.  1.
        -24    2    1    2    0    0 -0.25668669916E+02 -0.12227310346E+02 -0.13474491667E+03  0.15961035589E+03  0.80690057665E+02 0.  0.
         23    2    1    2    0    0 -0.19507680722E+02 -0.67590833994E+01 -0.62713591190E+02  0.11315979210E+03  0.91901627908E+02 0.  0.
         11    1    3    3    0    0  0.36779914391E+00 -0.44107871037E+02 -0.76155185710E+02  0.88007112634E+02  0.00000000000E+00 0. -1.
        -12    1    3    3    0    0 -0.26036469059E+02  0.31880560691E+02 -0.58589730956E+02  0.71603243254E+02  0.00000000000E+00 0.  1.
        -11    1    4    4    0    0 -0.49693983872E+02  0.17991981710E+02 -0.48149096347E+02  0.71495027225E+02  0.00000000000E+00 0. -1.
         11    1    4    4    0    0  0.30186303150E+02 -0.24751065110E+02 -0.14564494843E+02  0.41664764873E+02  0.00000000000E+00 0.  1.
         -1    1    1    2    0  502  0.45176350638E+02  0.18986393746E+02 -0.85504466531E+02  0.98551507351E+02  0.00000000000E+00 0.  1.
<scales pt_clust_5="13000.00000" pt_clust_6="13000.00000" pt_clust_7="13000.00000" pt_clust_8="13000.00000" pt_clust_9="49.00396"></scales>
<clustering>
<clus scale="   49.004">  1  9  2 -1</clus>
<clus scale="   80.690">  5  6 -1 -1</clus>
<clus scale="   81.621">  2  5  1 -1</clus>
<clus scale="   91.902">  7  8 -1 -1</clus>
<clus scale="   49.004">  1  5  2 -1</clus>
</clustering>
</event>
<event>
 9    1  0.3197504E-005  0.1425561E+03  0.7546771E-02  0.1212772E+00
         21   -1    0    0  501  502  0.00000000000E+00  0.00000000000E+00  0.18518830848E+03  0.18518830848E+03  0.00000000000E+00 0. -1.
         -4   -1    0    0    0  501 -0.00000000000E+00 -0.00000000000E+00 -0.17022192278E+03  0.17022192278E+03  0.00000000000E+00 0.  1.
        -24    2    1    2    0    0  0.86220154876E+02 -0.57152193394E+02 -0.13503843409E+02  0.13049793769E+03  0.78403250174E+02 0.  0.
         23    2    1    2    0    0 -0.85319766023E+02  0.87231464502E+02  0.74428409369E+02  0.16997844624E+03  0.92001593422E+02 0.  0.
         13    1    3    3    0    0  0.96531371868E+01 -0.33155427933E+02 -0.33171517802E+02  0.47883348382E+02  0.00000000000E+00 0. -1.
        -14    1    3    3    0    0  0.76567017689E+02 -0.23996765461E+02  0.19667674393E+02  0.82614589307E+02  0.00000000000E+00 0.  1.
        -13    1    4    4    0    0 -0.10230283687E+03  0.62156654657E+02  0.71782850846E+02  0.13957828565E+03  0.00000000000E+00 0. -1.
         13    1    4    4    0    0  0.16983070845E+02  0.25074809845E+02  0.26455585224E+01  0.30400160592E+02  0.00000000000E+00 0.  1.
         -3    1    1    2    0  502 -0.90038885259E+00 -0.30079271108E+02 -0.45958180253E+02  0.54933847331E+02  0.00000000000E+00 0.  1.
<scales pt_clust_5="13000.00000" pt_clust_6="13000.00000" pt_clust_7="13000.00000" pt_clust_8="13000.00000" pt_clust_9="30.09276"></scales>
<clustering>
<clus scale="   30.093">  1  9  2 -1</clus>
<clus scale="   78.403">  5  6 -1 -1</clus>
<clus scale="   92.002">  7  8 -1 -1</clus>
<clus scale="  134.183">  2  5  1 -1</clus>
<clus scale="   30.093">  1  5  2 -1</clus>
</clustering>
</event>
<event>
 9    1  0.3197504E-005  0.1046880E+03  0.7546771E-02  0.1275354E+00
          1   -1    0    0  502    0 -0.00000000000E+00  0.00000000000E+00  0.33990521711E+03  0.33990521711E+03  0.00000000000E+00 0. -1.
         21   -1    0    0  501  502  0.00000000000E+00 -0.00000000000E+00 -0.50033868296E+02  0.50033868296E+02  0.00000000000E+00 0.  1.
        -24    2    1    2    0    0  0.58218609900E+02 -0.67473821358E+01  0.21360417536E+03  0.23586499850E+03  0.81059361449E+02 0.  0.
         23    2    1    2    0    0 -0.31712795561E+02  0.19514460159E+02  0.76134523332E+02  0.12465344669E+03  0.91408427241E+02 0.  0.
         13    1    3    3    0    0  0.61618080543E+02 -0.30889950023E+02  0.18921923898E+03  0.20138246513E+03  0.00000000000E+00 0. -1.
        -14    1    3    3    0    0 -0.33994706438E+01  0.24142567887E+02  0.24384936386E+02  0.34482533367E+02  0.00000000000E+00 0.  1.
        -13    1    4    4    0    0 -0.20618119803E+02  0.54611039660E+02  0.29990779975E+02  0.65627123969E+02  0.00000000000E+00 0.  1.
         13    1    4    4    0    0 -0.11094675758E+02 -0.35096579500E+02  0.46143743357E+02  0.59026322720E+02  0.00000000000E+00 0. -1.
          2    1    1    2  501    0 -0.26505814339E+02 -0.12767078024E+02  0.13265011911E+00  0.29420640222E+02  0.00000000000E+00 0. -1.
<scales pt_clust_5="13000.00000" pt_clust_6="13000.00000" pt_clust_7="13000.00000" pt_clust_8="13000.00000" pt_clust_9="29.42034"></scales>
<clustering>
<clus scale="   29.420">  2  9  1 -1</clus>
<clus scale="   81.059">  5  6 -1 -1</clus>
<clus scale="   91.408">  7  8 -1 -1</clus>
<clus scale="   95.785">  1  5  2 -1</clus>
<clus scale="   29.420">  2  5  1 -1</clus>
</clustering>
</event>
<event>
 9    1  0.3197504E-005  0.1256710E+03  0.7546771E-02  0.1237574E+00
         21   -1    0    0  501  502  0.00000000000E+00  0.00000000000E+00  0.39379766669E+03  0.39379766669E+03  0.00000000000E+00 0.  1.
         -2   -1    0    0    0  501 -0.00000000000E+00 -0.00000000000E+00 -0.81943808554E+02  0.81943808554E+02  0.00000000000E+00 0.  1.
        -24    2    1    2    0    0 -0.52747133169E+02  0.79301592955E+02  0.32470396643E+02  0.12809195696E+03  0.79260457206E+02 0.  0.
         23    2    1    2    0    0  0.22723355497E+02 -0.71786081785E+02  0.73820699701E+02  0.13976984355E+03  0.91741599275E+02 0.  0.
         11    1    3    3    0    0 -0.23533942987E+02 -0.56711990216E+01 -0.12902799943E+02  0.27431573364E+02  0.00000000000E+00 0. -1.
        -12    1    3    3    0    0 -0.29213190182E+02  0.84972791976E+02  0.45373196586E+02  0.10066038359E+03  0.00000000000E+00 0.  1.
        -13    1    4    4    0    0 -0.22880566539E+02 -0.34582873857E+02 -0.45996700625E+01  0.41721127191E+02  0.00000000000E+00 0.  1.
         13    1    4    4    0    0  0.45603922036E+02 -0.37203207927E+02  0.78420369763E+02  0.98048716355E+02  0.00000000000E+00 0. -1.
         -1    1    1    2    0  502  0.30023777672E+02 -0.75155111702E+01  0.20556276179E+03  0.20787967474E+03  0.00000000000E+00 0.  1.
<scales pt_clust_5="13000.00000" pt_clust_6="13000.00000" pt_clust_7="13000.00000" pt_clust_8="13000.00000" pt_clust_9="30.95012"></scales>
<clustering>
<clus scale="   30.950">  1  9  2 -1</clus>
<clus scale="   79.260">  5  6 -1 -1</clus>
<clus scale="   91.742">  7  8 -1 -1</clus>
<clus scale="  116.871">  2  5  1 -1</clus>
<clus scale="   30.950">  1  5  2 -1</clus>
</clustering>
</event>
<event>
 9    1  0.3197504E-005  0.2604916E+03  0.7546771E-02  0.1153298E+00
         21   -1    0    0  501  502  0.00000000000E+00  0.00000000000E+00  0.35350933229E+03  0.35350933229E+03  0.00000000000E+00 0. -1.
          1   -1    0    0  502    0 -0.00000000000E+00 -0.00000000000E+00 -0.28662040220E+03  0.28662040220E+03  0.00000000000E+00 0. -1.
        -24    2    1    2    0    0 -0.13947856678E+02 -0.18276107679E+02 -0.63477819093E+02  0.10466356091E+03  0.79977926008E+02 0.  0.
         23    2    1    2    0    0  0.25222395639E+03  0.12181450823E+01  0.11953189940E+02  0.26884238470E+03  0.92276437975E+02 0.  0.
         13    1    3    3    0    0 -0.29820879798E+01 -0.42110577458E+02 -0.65957253076E+02  0.78310617517E+02  0.00000000000E+00 0. -1.
        -14    1    3    3    0    0 -0.10965768698E+02  0.23834469779E+02  0.24794339833E+01  0.26352943397E+02  0.00000000000E+00 0.  1.
        -13    1    4    4    0    0  0.12840192889E+03  0.26720033560E+02 -0.31997653319E+02  0.13499950131E+03  0.00000000000E+00 0. -1.
         13    1    4    4    0    0  0.12382202749E+03 -0.25501888478E+02  0.43950843258E+02  0.13384288338E+03  0.00000000000E+00 0.  1.
          2    1    1    2  501    0 -0.23827609971E+03  0.17057962596E+02  0.11841355925E+03  0.26662378888E+03  0.00000000000E+00 0. -1.
<scales pt_clust_5="13000.00000" pt_clust_6="13000.00000" pt_clust_7="13000.00000" pt_clust_8="13000.00000" pt_clust_9="243.59997"></scales>
<clustering>
<clus scale="   79.978">  5  6 -1 -1</clus>
<clus scale="   83.217">  2  5  1 -1</clus>
<clus scale="   92.276">  7  8 -1 -1</clus>
<clus scale="  243.600">  1  9  2 -1</clus>
<clus scale="  243.600">  1  5  2 -1</clus>
</clustering>
</event>
<event>
 9    1  0.3197504E-005  0.1007226E+03  0.7546771E-02  0.1286667E+00
         -4   -1    0    0    0  501 -0.00000000000E+00  0.00000000000E+00  0.10749110297E+03  0.10749110297E+03  0.00000000000E+00 0.  1.
         21   -1    0    0  501  502  0.00000000000E+00 -0.00000000000E+00 -0.14256938619E+03  0.14256938619E+03  0.00000000000E+00 0. -1.
         23    2    1    2    0    0  0.69273883688E+01 -0.40366986152E+02  0.29660500891E+02  0.10799596136E+03  0.95424839937E+02 0.  0.
        -24    2    1    2    0    0 -0.16347031538E+02  0.86639562594E+01 -0.70345111823E+02  0.10851989048E+03  0.80534727257E+02 0.  0.
         13    1    4    4    0    0  0.60883925212E+01  0.36335310798E+02 -0.61699497247E+02  0.71862029576E+02  0.00000000000E+00 0. -1.
        -14    1    4    4    0    0 -0.22435424059E+02 -0.27671354538E+02 -0.86456145758E+01  0.36657860904E+02  0.00000000000E+00 0.  1.
        -13    1    3    3    0    0  0.36667148020E+02 -0.56851309336E+02  0.90978736721E+01  0.68259229577E+02  0.00000000000E+00 0.  1.
         13    1    3    3    0    0 -0.29739759651E+02  0.16484323183E+02  0.20562627219E+02  0.39736731786E+02  0.00000000000E+00 0. -1.
         -3    1    1    2    0  502  0.94196431690E+01  0.31703029893E+02  0.56063277114E+01  0.33544637310E+02  0.00000000000E+00 0.  1.
<scales pt_clust_5="13000.00000" pt_clust_6="13000.00000" pt_clust_7="13000.00000" pt_clust_8="13000.00000" pt_clust_9="33.07284"></scales>
<clustering>
<clus scale="   33.073">  2  9  1 -1</clus>
<clus scale="   80.535">  5  6 -1 -1</clus>
<clus scale="   86.747">  2  5  1 -1</clus>
<clus scale="   95.425">  7  8 -1 -1</clus>
<clus scale="   33.073">  2  5  1 -1</clus>
</clustering>
</event>
<event>
 9    1  0.3197504E-005  0.2687268E+03  0.7546771E-02  0.1135340E+00
         21   -1    0    0  501  502  0.00000000000E+00  0.00000000000E+00  0.16353526309E+04  0.16353526309E+04  0.00000000000E+00 0. -1.
          1   -1    0    0  502    0 -0.00000000000E+00 -0.00000000000E+00 -0.28829234601E+03  0.28829234601E+03  0.00000000000E+00 0. -1.
        -24    2    1    2    0    0 -0.82532826263E+02 -0.21783797872E+02  0.40490000280E+02  0.12333980881E+03  0.79291027581E+02 0.  0.
         23    2    1    2    0    0 -0.15169925078E+03  0.12679523989E+03 -0.18620138863E+03  0.28562390219E+03  0.88432804036E+02 0.  0.
         13    1    3    3    0    0 -0.51006958486E+02 -0.35670787805E+01  0.62533269255E+02  0.80776504188E+02  0.00000000000E+00 0. -1.
        -14    1    3    3    0    0 -0.31525867777E+02 -0.18216719092E+02 -0.22043268976E+02  0.42563304626E+02  0.00000000000E+00 0.  1.
        -11    1    4    4    0    0 -0.35434332273E+02 -0.83111896359E+01 -0.47110049541E+02  0.59531710412E+02  0.00000000000E+00 0.  1.
         11    1    4    4    0    0 -0.11626491851E+03  0.13510642952E+03 -0.13909133909E+03  0.22609219178E+03  0.00000000000E+00 0. -1.
          2    1    1    2  501    0  0.23423207704E+03 -0.10501144201E+03  0.14927716733E+04  0.15146812659E+04  0.00000000000E+00 0. -1.
<scales pt_clust_5="13000.00000" pt_clust_6="13000.00000" pt_clust_7="13000.00000" pt_clust_8="13000.00000" pt_clust_9="253.75919"></scales>
<clustering>
<clus scale="   79.291">  5  6 -1 -1</clus>
<clus scale="   88.433">  7  8 -1 -1</clus>
<clus scale="  116.504">  2  5  1 -1</clus>
<clus scale="  253.759">  1  9  2 -1</clus>
<clus scale="  253.759">  1  5  2 -1</clus>
</clustering>
</event>
<event>
 9    1  0.3197504E-005  0.9300317E+02  0.7546771E-02  0.1303029E+00
         21   -1    0    0  501  502  0.00000000000E+00  0.00000000000E+00  0.13095123192E+03  0.13095123192E+03  0.00000000000E+00 0.  1.
          3   -1    0    0  502    0 -0.00000000000E+00 -0.00000000000E+00 -0.11043575112E+03  0.11043575112E+03  0.00000000000E+00 0. -1.
         23    2    1    2    0    0 -0.14024987988E+02 -0.13152820091E+02 -0.39330254851E+02  0.10011452129E+03  0.90035278986E+02 0.  0.
        -24    2    1    2    0    0  0.40989527963E+02  0.22657414635E+01  0.67805425259E+02  0.11112330661E+03  0.77881567719E+02 0.  0.
         13    1    4    4    0    0 -0.23086277147E+02 -0.39801448934E+01  0.14602952733E+02  0.27605506234E+02  0.00000000000E+00 0. -1.
        -14    1    4    4    0    0  0.64075805110E+02  0.62458863569E+01  0.53202472526E+02  0.83517800377E+02  0.00000000000E+00 0.  1.
        -11    1    3    3    0    0  0.10480479857E+02 -0.48159031004E+02 -0.19451502736E+02  0.52985787566E+02  0.00000000000E+00 0.  1.
         11    1    3    3    0    0 -0.24505467845E+02  0.35006210913E+02 -0.19878752115E+02  0.47128733725E+02  0.00000000000E+00 0. -1.
          4    1    1    2  501    0 -0.26964539975E+02  0.10887078627E+02 -0.79596896091E+01  0.30149155142E+02  0.00000000000E+00 0. -1.
<scales pt_clust_5="13000.00000" pt_clust_6="13000.00000" pt_clust_7="13000.00000" pt_clust_8="13000.00000" pt_clust_9="29.07947"></scales>
<clustering>
<clus scale="   29.079">  1  9  2 -1</clus>
<clus scale="   77.882">  5  6 -1 -1</clus>
<clus scale="   81.294">  1  5  2 -1</clus>
<clus scale="   90.035">  7  8 -1 -1</clus>
<clus scale="   29.079">  1  5  2 -1</clus>
</clustering>
</event>
<event>
 9    1  0.3417482E-005  0.1081117E+03  0.7546771E-02  0.1268575E+00
         21   -1    0    0  501  502  0.00000000000E+00  0.00000000000E+00  0.23683602365E+03  0.23683602365E+03  0.00000000000E+00 0. -1.
          1   -1    0    0  502    0 -0.00000000000E+00 -0.00000000000E+00 -0.13234447315E+03  0.13234447315E+03  0.00000000000E+00 0. -1.
        -24    2    1    2    0    0  0.59411184338E+02  0.41084959927E+01 -0.79690913552E+02  0.12940576056E+03  0.82756513945E+02 0.  0.
         23    2    1    2    0    0 -0.34910717193E+02  0.16666657484E+02  0.74651649423E+02  0.12563062012E+03  0.93346924442E+02 0.  0.
         13    1    3    3    0    0  0.60183856490E+02 -0.66255724681E+01 -0.93810131198E+02  0.11165274519E+03  0.00000000000E+00 0. -1.
        -14    1    3    3    0    0 -0.77267215258E+00  0.10734068461E+02  0.14119217646E+02  0.17753015375E+02  0.00000000000E+00 0.  1.
        -11    1    4    4    0    0 -0.57108120488E+02  0.17607639106E+02  0.82672014449E+02  0.10200994243E+03  0.00000000000E+00 0.  1.
         11    1    4    4    0    0  0.22197403295E+02 -0.94098162192E+00 -0.80203650265E+01  0.23620677691E+02  0.00000000000E+00 0. -1.
          2    1    1    2  501    0 -0.24500467145E+02 -0.20775153476E+02  0.10953081463E+03  0.11414411612E+03  0.00000000000E+00 0. -1.
<scales pt_clust_5="13000.00000" pt_clust_6="13000.00000" pt_clust_7="13000.00000" pt_clust_8="13000.00000" pt_clust_9="32.12289"></scales>
<clustering>
<clus scale="   32.123">  1  9  2 -1</clus>
<clus scale="   82.757">  5  6 -1 -1</clus>
<clus scale="   93.347">  7  8 -1 -1</clus>
<clus scale="   99.112">  2  5  1 -1</clus>
<clus scale="   32.123">  1  5  2 -1</clus>
</clustering>
</event>
<event>
 9    1  0.3197504E-005  0.9318778E+02  0.7546771E-02  0.1303908E+00
         -2   -1    0    0    0  501 -0.00000000000E+00  0.00000000000E+00  0.82181998050E+02  0.82181998050E+02  0.00000000000E+00 0.  1.
         21   -1    0    0  501  502  0.00000000000E+00 -0.00000000000E+00 -0.17555578229E+03  0.17555578229E+03  0.00000000000E+00 0.  1.
        -24    2    1    2    0    0 -0.10041276213E+01 -0.79397792937E+01  0.39063148332E+01  0.77718442035E+02  0.77206531908E+02 0.  0.
         23    2    1    2    0    0 -0.35077848969E+02  0.35321874452E+02 -0.52914460514E+02  0.11661588371E+03  0.91220797510E+02 0.  0.
         13    1    3    3    0    0  0.84573108470E+01  0.33204387219E+02 -0.48379100334E+01  0.34604375602E+02  0.00000000000E+00 0. -1.
        -14    1    3    3    0    0 -0.94614384682E+01 -0.41144166512E+02  0.87442248665E+01  0.43114066433E+02  0.00000000000E+00 0.  1.
        -13    1    4    4    0    0 -0.60263828391E+02  0.26100771728E+02 -0.59913683776E+02  0.88896731103E+02  0.00000000000E+00 0.  1.
         13    1    4    4    0    0  0.25185979422E+02  0.92211027246E+01  0.69992232617E+01  0.27719152605E+02  0.00000000000E+00 0. -1.
         -1    1    1    2    0  502  0.36081976590E+02 -0.27382095159E+02 -0.44365638558E+02  0.63403454595E+02  0.00000000000E+00 0.  1.
<scales pt_clust_5="13000.00000" pt_clust_6="13000.00000" pt_clust_7="13000.00000" pt_clust_8="13000.00000" pt_clust_9="45.29556"></scales>
<clustering>
<clus scale="   45.296">  2  9  1 -1</clus>
<clus scale="   77.207">  5  6 -1 -1</clus>
<clus scale="   79.521">  1  5  2 -1</clus>
<clus scale="   91.221">  7  8 -1 -1</clus>
<clus scale="   45.296">  2  5  1 -1</clus>
</clustering>
</event>
<event>
 9    1  0.3197504E-005  0.1744872E+03  0.7546771E-02  0.1176441E+00
         -2   -1    0    0    0  501 -0.00000000000E+00  0.00000000000E+00  0.31653395070E+03  0.31653395070E+03  0.00000000000E+00 0.  1.
         21   -1    0    0  501  502  0.00000000000E+00 -0.00000000000E+00 -0.18681533637E+03  0.18681533637E+03  0.00000000000E+00 0.  1.
         23    2    1    2    0    0  0.17287495605E+03  0.36326430415E+02  0.14189101639E+03  0.24815868912E+03  0.10121420096E+03 0.  0.
        -24    2    1    2    0    0 -0.65288874234E+02 -0.84037852836E+02 -0.31685925177E+02  0.13589297679E+03  0.78344785910E+02 0.  0.
         11    1    4    4    0    0 -0.67891802168E+02 -0.81263934546E+02 -0.19451298970E+01  0.10590990223E+03  0.00000000000E+00 0. -1.
        -12    1    4    4    0    0  0.26029279339E+01 -0.27739182898E+01 -0.29740795280E+02  0.29983074565E+02  0.00000000000E+00 0.  1.
        -11    1    3    3    0    0  0.17889291594E+02  0.42285974891E+02  0.49990418372E+02  0.67876154540E+02  0.00000000000E+00 0. -1.
         11    1    3    3    0    0  0.15498566446E+03 -0.59595444754E+01  0.91900598015E+02  0.18028253458E+03  0.00000000000E+00 0.  1.
         -1    1    1    2    0  502 -0.10758608182E+03  0.47711422421E+02  0.19513523121E+02  0.11929762116E+03  0.00000000000E+00 0.  1.
<scales pt_clust_5="13000.00000" pt_clust_6="13000.00000" pt_clust_7="13000.00000" pt_clust_8="13000.00000" pt_clust_9="117.69089"></scales>
<clustering>
<clus scale="   78.345">  5  6 -1 -1</clus>
<clus scale="  101.214">  7  8 -1 -1</clus>
<clus scale="  117.691">  2  9  1 -1</clus>
<clus scale="  162.294">  2  5  1 -1</clus>
<clus scale="  117.691">  2  5  1 -1</clus>
</clustering>
</event>
<event>
 9    1  0.3197504E-005  0.1330243E+03  0.7546771E-02  0.1228048E+00
          3   -1    0    0  502    0 -0.00000000000E+00  0.00000000000E+00  0.15066116444E+03  0.15066116444E+03  0.00000000000E+00 0. -1.
         21   -1    0    0  501  502  0.00000000000E+00 -0.00000000000E+00 -0.21353658927E+03  0.21353658927E+03  0.00000000000E+00 0. -1.
         23    2    1    2    0    0 -0.83552942692E+02  0.51142045412E+02  0.57059207916E+02  0.15119373183E+03  0.10003593502E+03 0.  0.
        -24    2    1    2    0    0  0.40737909134E+02 -0.38337690118E+02 -0.13357759247E+03  0.16627920018E+03  0.81709506644E+02 0.  0.
         13    1    4    4    0    0  0.42750965630E+02 -0.56732408900E+02 -0.12892283122E+03  0.14719819187E+03  0.00000000000E+00 0. -1.
        -14    1    4    4    0    0 -0.20130564954E+01  0.18394718783E+02 -0.46547612594E+01  0.19081008305E+02  0.00000000000E+00 0.  1.
        -11    1    3    3    0    0  0.15217754678E+02  0.36130591925E+02  0.23969790057E+02  0.45951611133E+02  0.00000000000E+00 0.  1.
         11    1    3    3    0    0 -0.98770697371E+02  0.15011453487E+02  0.33089417859E+02  0.10524212070E+03  0.00000000000E+00 0. -1.
          4    1    1    2  501    0  0.42815033558E+02 -0.12804355294E+02  0.13642959731E+02  0.46724821704E+02  0.00000000000E+00 0. -1.
<scales pt_clust_5="13000.00000" pt_clust_6="13000.00000" pt_clust_7="13000.00000" pt_clust_8="13000.00000" pt_clust_9="44.68871"></scales>
<clustering>
<clus scale="   44.689">  2  9  1 -1</clus>
<clus scale="   81.710">  5  6 -1 -1</clus>
<clus scale="  100.036">  7  8 -1 -1</clus>
<clus scale="  119.853">  2  5  1 -1</clus>
<clus scale="   44.689">  2  5  1 -1</clus>
</clustering>
</event>
<event>
 9    1  0.3197504E-005  0.9676184E+02  0.7546771E-02  0.1301608E+00
          1   -1    0    0  502    0 -0.00000000000E+00  0.00000000000E+00  0.21039447757E+03  0.21039447757E+03  0.00000000000E+00 0. -1.
         21   -1    0    0  501  502  0.00000000000E+00 -0.00000000000E+00 -0.91506207381E+02  0.91506207381E+02  0.00000000000E+00 0. -1.
         23    2    1    2    0    0  0.11514800955E+02  0.30627180320E+01  0.67349072395E+02  0.11436035496E+03  0.91653817980E+02 0.  0.
        -24    2    1    2    0    0  0.33141364152E+01  0.67962997470E+02  0.62303783823E+02  0.11418894311E+03  0.67285962315E+02 0.  0.
         11    1    4    4    0    0  0.29760057448E+02  0.47407955609E+02  0.57682538143E+02  0.80376927541E+02  0.00000000000E+00 0. -1.
        -12    1    4    4    0    0 -0.26445921033E+02  0.20555041861E+02  0.46212456802E+01  0.33812015569E+02  0.00000000000E+00 0.  1.
        -13    1    3    3    0    0 -0.35305480474E+02  0.12583148123E+02  0.82753656847E+01  0.38383515282E+02  0.00000000000E+00 0. -1.
         13    1    3    3    0    0  0.46820281429E+02 -0.95204300909E+01  0.59073706710E+02  0.75976839673E+02  0.00000000000E+00 0.  1.
          2    1    1    2  501    0 -0.14828937370E+02 -0.71025715502E+02 -0.10764586027E+02  0.73351386888E+02  0.00000000000E+00 0. -1.
<scales pt_clust_5="13000.00000" pt_clust_6="13000.00000" pt_clust_7="13000.00000" pt_clust_8="13000.00000" pt_clust_9="72.55722"></scales>
<clustering>
<clus scale="   67.286">  5  6 -1 -1</clus>
<clus scale="   72.557">  2  9  1 -1</clus>
<clus scale="   74.093">  2  5  1 -1</clus>
<clus scale="   91.654">  7  8 -1 -1</clus>
<clus scale="   72.557">  2  5  1 -1</clus>
</clustering>
</event>
<event>
 9    1  0.3197504E-005  0.1151078E+03  0.7546771E-02  0.1256490E+00
          1   -1    0    0  502    0 -0.00000000000E+00  0.00000000000E+00  0.19450348547E+03  0.19450348547E+03  0.00000000000E+00 0. -1.
         21   -1    0    0  501  502  0.00000000000E+00 -0.00000000000E+00 -0.18835038544E+03  0.18835038544E+03  0.00000000000E+00 0. -1.
         23    2    1    2    0    0  0.31451342766E+01 -0.84966651698E+02  0.90066885858E+02  0.15553608452E+03  0.94075532889E+02 0.  0.
        -24    2    1    2    0    0 -0.64870543411E+01  0.47888700020E+02  0.37126597899E+02  0.10068162479E+03  0.80143595100E+02 0.  0.
         11    1    4    4    0    0 -0.21342186493E+02  0.34708244767E+02  0.58638276454E+02  0.71404472161E+02  0.00000000000E+00 0. -1.
        -12    1    4    4    0    0  0.14855132152E+02  0.13180455253E+02 -0.21511678555E+02  0.29277152631E+02  0.00000000000E+00 0.  1.
        -13    1    3    3    0    0 -0.13010743282E+02 -0.50953630530E+02  0.10306049641E+03  0.11570228099E+03  0.00000000000E+00 0. -1.
         13    1    3    3    0    0  0.16155877558E+02 -0.34013021168E+02 -0.12993610552E+02  0.39833803532E+02  0.00000000000E+00 0.  1.
          2    1    1    2  501    0  0.33419200645E+01  0.37077951678E+02 -0.12104038373E+03  0.12663616160E+03  0.00000000000E+00 0. -1.
<scales pt_clust_5="13000.00000" pt_clust_6="13000.00000" pt_clust_7="13000.00000" pt_clust_8="13000.00000" pt_clust_9="37.22825"></scales>
<clustering>
<clus scale="   37.228">  2  9  1 -1</clus>
<clus scale="   80.144">  5  6 -1 -1</clus>
<clus scale="   94.076">  7  8 -1 -1</clus>
<clus scale="  104.032">  2  5  1 -1</clus>
<clus scale="   37.228">  2  5  1 -1</clus>
</clustering>
</event>
<event>
 9    1  0.3197504E-005  0.1158373E+03  0.7546771E-02  0.1257723E+00
         21   -1    0    0  501  502  0.00000000000E+00  0.00000000000E+00  0.28073388870E+03  0.28073388870E+03  0.00000000000E+00 0.  1.
         -2   -1    0    0    0  501 -0.00000000000E+00 -0.00000000000E+00 -0.10721744240E+03  0.10721744240E+03  0.00000000000E+00 0.  1.
        -24    2    1    2    0    0 -0.44393777806E+02 -0.97463291554E+02  0.27755028597E+02  0.13112826892E+03  0.70387361001E+02 0.  0.
         23    2    1    2    0    0 -0.40402865931E+02  0.37295009665E+02  0.66331052396E+02  0.12598011866E+03  0.91912308560E+02 0.  0.
         13    1    3    3    0    0 -0.42665185783E+02 -0.30356113336E+02  0.35928173849E+02  0.63503113080E+02  0.00000000000E+00 0. -1.
        -14    1    3    3    0    0 -0.17285920225E+01 -0.67107178219E+02 -0.81731452520E+01  0.67625155838E+02  0.00000000000E+00 0.  1.
        -13    1    4    4    0    0 -0.15839728081E+02  0.13639113806E+02 -0.22570193096E+02  0.30762575111E+02  0.00000000000E+00 0.  1.
         13    1    4    4    0    0 -0.24563137850E+02  0.23655895859E+02  0.88901245492E+02  0.95217543551E+02  0.00000000000E+00 0. -1.
         -1    1    1    2    0  502  0.84796643736E+02  0.60168281889E+02  0.79430365312E+02  0.13084294352E+03  0.00000000000E+00 0.  1.
<scales pt_clust_5="13000.00000" pt_clust_6="13000.00000" pt_clust_7="13000.00000" pt_clust_8="13000.00000" pt_clust_9="103.97448"></scales>
<clustering>
<clus scale="   70.387">  5  6 -1 -1</clus>
<clus scale="   91.912">  7  8 -1 -1</clus>
<clus scale="  103.974">  1  9  2 -1</clus>
<clus scale="   99.623">  2  5  1 -1</clus>
<clus scale="  103.974">  1  5  2 -1</clus>
</clustering>
</event>
<event>
 9    1  0.3197504E-005  0.1129330E+03  0.7546771E-02  0.1256529E+00
          1   -1    0    0  502    0 -0.00000000000E+00  0.00000000000E+00  0.19784973364E+03  0.19784973364E+03  0.00000000000E+00 0. -1.
         21   -1    0    0  501  502  0.00000000000E+00 -0.00000000000E+00 -0.11014478651E+03  0.11014478651E+03  0.00000000000E+00 0. -1.
        -24    2    1    2    0    0  0.59520930144E+02 -0.41085537318E+02  0.12909767432E+03  0.17190701653E+03  0.87493144392E+02 0.  0.
         23    2    1    2    0    0 -0.45891191694E+02  0.19606426997E+02 -0.29151745544E+02  0.10785696020E+03  0.91065285050E+02 0.  0.
         11    1    3    3    0    0  0.65109135914E+02 -0.63130519738E+02  0.10579877986E+03  0.13934864162E+03  0.00000000000E+00 0. -1.
        -12    1    3    3    0    0 -0.55882057708E+01  0.22044982420E+02  0.23298894458E+02  0.32558374907E+02  0.00000000000E+00 0.  1.
        -11    1    4    4    0    0 -0.31203884273E+02  0.45537711802E+02  0.12539703704E+02  0.56609272729E+02  0.00000000000E+00 0.  1.
         11    1    4    4    0    0 -0.14687307421E+02 -0.25931284806E+02 -0.41691449248E+02  0.51247687473E+02  0.00000000000E+00 0. -1.
          2    1    1    2  501    0 -0.13629738449E+02  0.21479110322E+02 -0.12240981644E+02  0.28230543424E+02  0.00000000000E+00 0. -1.
<scales pt_clust_5="13000.00000" pt_clust_6="13000.00000" pt_clust_7="13000.00000" pt_clust_8="13000.00000" pt_clust_9="25.43859"></scales>
<clustering>
<clus scale="   25.439">  2  9  1 -1</clus>
<clus scale="   87.493">  5  6 -1 -1</clus>
<clus scale="   91.065">  7  8 -1 -1</clus>
<clus scale="  110.073">  1  5  2 -1</clus>
<clus scale="   25.439">  2  5  1 -1</clus>
</clustering>
</event>
<event>
 9    1  0.3197504E-005  0.9956106E+02  0.7546771E-02  0.1283416E+00
         21   -1    0    0  501  502  0.00000000000E+00  0.00000000000E+00  0.58781425065E+02  0.58781425065E+02  0.00000000000E+00 0. -1.
          1   -1    0    0  502    0 -0.00000000000E+00 -0.00000000000E+00 -0.35464691732E+03  0.35464691732E+03  0.00000000000E+00 0. -1.
         23    2    1    2    0    0 -0.16906318672E+02  0.33044430668E+02 -0.12604464636E+03  0.15982449590E+03  0.90988233329E+02 0.  0.
        -24    2    1    2    0    0  0.45512255698E+02  0.30379655013E+02 -0.64500833099E+02  0.12737698970E+03  0.95237866304E+02 0.  0.
         11    1    4    4    0    0 -0.24889028109E+02  0.29634447892E+02 -0.30040069246E+02  0.48990509105E+02  0.00000000000E+00 0. -1.
        -12    1    4    4    0    0  0.70401283807E+02  0.74520712084E+00 -0.34460763852E+02  0.78386480599E+02  0.00000000000E+00 0.  1.
        -13    1    3    3    0    0  0.24552327378E+02  0.37554501635E+02 -0.10260281182E+03  0.11198434875E+03  0.00000000000E+00 0. -1.
         13    1    3    3    0    0 -0.41458646050E+02 -0.45100709665E+01 -0.23441834546E+02  0.47840147150E+02  0.00000000000E+00 0.  1.
          2    1    1    2  501    0 -0.28605937026E+02 -0.63424085681E+02 -0.10532001280E+03  0.12622685678E+03  0.00000000000E+00 0. -1.
<scales pt_clust_5="13000.00000" pt_clust_6="13000.00000" pt_clust_7="13000.00000" pt_clust_8="13000.00000" pt_clust_9="69.57671"></scales>
<clustering>
<clus scale="   69.577">  1  9  2 -1</clus>
<clus scale="   90.988">  7  8 -1 -1</clus>
<clus scale="   95.238">  5  6 -1 -1</clus>
<clus scale="   95.504">  2  7  1 -1</clus>
<clus scale="   69.577">  1  5  2 -1</clus>
</clustering>
</event>
<event>
 9    1  0.3197504E-005  0.1327470E+03  0.7546771E-02  0.1246245E+00
         21   -1    0    0  501  502  0.00000000000E+00  0.00000000000E+00  0.72309870958E+03  0.72309870958E+03  0.00000000000E+00 0.  1.
         -2   -1    0    0    0  501 -0.00000000000E+00 -0.00000000000E+00 -0.11170505854E+03  0.11170505854E+03  0.00000000000E+00 0.  1.
        -24    2    1    2    0    0 -0.11059395933E+02  0.18268976302E+02 -0.66754082901E+02  0.10666574657E+03  0.80407761902E+02 0.  0.
         23    2    1    2    0    0  0.34518027048E+01 -0.11051944167E+03  0.23522940582E+03  0.27565081817E+03  0.91782559704E+02 0.  0.
         11    1    3    3    0    0 -0.38112852097E+02 -0.55090066905E+01 -0.57965486377E+02  0.69591208213E+02  0.00000000000E+00 0. -1.
        -12    1    3    3    0    0  0.27053456164E+02  0.23777982992E+02 -0.87885965239E+01  0.37074538358E+02  0.00000000000E+00 0.  1.
        -13    1    4    4    0    0  0.46915119362E+02 -0.66678606749E+02  0.12310047334E+03  0.14765091114E+03  0.00000000000E+00 0.  1.
         13    1    4    4    0    0 -0.43463316657E+02 -0.43840834921E+02  0.11212893247E+03  0.12799990703E+03  0.00000000000E+00 0. -1.
         -1    1    1    2    0  502  0.76075932285E+01  0.92250465369E+02  0.44291832812E+03  0.45248720338E+03  0.00000000000E+00 0.  1.
<scales pt_clust_5="13000.00000" pt_clust_6="13000.00000" pt_clust_7="13000.00000" pt_clust_8="13000.00000" pt_clust_9="95.90472"></scales>
<clustering>
<clus scale="   80.408">  5  6 -1 -1</clus>
<clus scale="   83.195">  2  5  1 -1</clus>
<clus scale="   91.783">  7  8 -1 -1</clus>
<clus scale="   95.905">  1  9  2 -1</clus>
<clus scale="   95.905">  1  5  2 -1</clus>
</clustering>
</event>
<event>
 9    1  0.3197504E-005  0.1454209E+03  0.7546771E-02  0.1208098E+00
          1   -1    0    0  502    0 -0.00000000000E+00  0.00000000000E+00  0.17794011992E+03  0.17794011992E+03  0.00000000000E+00 0. -1.
         21   -1    0    0  501  502  0.00000000000E+00 -0.00000000000E+00 -0.22112506143E+03  0.22112506143E+03  0.00000000000E+00 0. -1.
         23    2    1    2    0    0  0.10556008879E+03 -0.72213784354E+02  0.84872743675E+02  0.17743768166E+03  0.89011152430E+02 0.  0.
        -24    2    1    2    0    0 -0.48544537915E+02  0.77818735202E+02 -0.69601967647E+02  0.13977849585E+03  0.79254440206E+02 0.  0.
         11    1    4    4    0    0 -0.27978515176E+02  0.80002012097E+02 -0.21528103082E+02  0.87444716669E+02  0.00000000000E+00 0. -1.
        -12    1    4    4    0    0 -0.20566022739E+02 -0.21832768948E+01 -0.48073864565E+02  0.52333779182E+02  0.00000000000E+00 0.  1.
        -11    1    3    3    0    0  0.85702089510E+01  0.18317041643E+02  0.24227932359E+02  0.31558757935E+02  0.00000000000E+00 0.  1.
         11    1    3    3    0    0  0.96989879840E+02 -0.90530825997E+02  0.60644811316E+02  0.14587892372E+03  0.00000000000E+00 0. -1.
          2    1    1    2  501    0 -0.57015550876E+02 -0.56049508484E+01 -0.58455717543E+02  0.81849003838E+02  0.00000000000E+00 0. -1.
<scales pt_clust_5="13000.00000" pt_clust_6="13000.00000" pt_clust_7="13000.00000" pt_clust_8="13000.00000" pt_clust_9="57.29039"></scales>
<clustering>
<clus scale="   57.290">  2  9  1 -1</clus>
<clus scale="   79.254">  5  6 -1 -1</clus>
<clus scale="   89.011">  7  8 -1 -1</clus>
<clus scale="  139.662">  2  5  1 -1</clus>
<clus scale="   57.290">  2  5  1 -1</clus>
</clustering>
</event>
<event>
 9    1  0.3197504E-005  0.1246484E+03  0.7546771E-02  0.1242955E+00
          1   -1    0    0  502    0 -0.00000000000E+00  0.00000000000E+00  0.70850976921E+03  0.70850976921E+03  0.00000000000E+00 0. -1.
         21   -1    0    0  501  502  0.00000000000E+00 -0.00000000000E+00 -0.46710648491E+02  0.46710648491E+02  0.00000000000E+00 0. -1.
        -24    2    1    2    0    0  0.45805890381E+00 -0.85382541260E+02  0.46698431764E+03  0.47941572262E+03  0.66893153608E+02 0.  0.
         23    2    1    2    0    0  0.57433864917E+02  0.73945633753E+02  0.10410774392E+03  0.16759171860E+03  0.92097536398E+02 0.  0.
         11    1    3    3    0    0 -0.13383555888E+02 -0.84567919011E+02  0.44678724793E+03  0.45491724237E+03  0.00000000000E+00 0. -1.
        -12    1    3    3    0    0  0.13841614792E+02 -0.81462224901E+00  0.20197069717E+02  0.24498480251E+02  0.00000000000E+00 0.  1.
        -13    1    4    4    0    0  0.27086287760E+02  0.27525649435E+02  0.10525946683E+03  0.11211995237E+03  0.00000000000E+00 0.  1.
         13    1    4    4    0    0  0.30347577156E+02  0.46419984318E+02 -0.11517229159E+01  0.55471766233E+02  0.00000000000E+00 0. -1.
          2    1    1    2  501    0 -0.57891923820E+02  0.11436907506E+02  0.90707059157E+02  0.10821297648E+03  0.00000000000E+00 0. -1.
<scales pt_clust_5="13000.00000" pt_clust_6="13000.00000" pt_clust_7="13000.00000" pt_clust_8="13000.00000" pt_clust_9="59.01083"></scales>
<clustering>
<clus scale="   59.011">  2  9  1 -1</clus>
<clus scale="   66.893">  5  6 -1 -1</clus>
<clus scale="   92.098">  7  8 -1 -1</clus>
<clus scale="  107.378">  1  5  2 -1</clus>
<clus scale="   59.011">  2  5  1 -1</clus>
</clustering>
</event>
<event>
 9    1  0.3216927E-005  0.9520931E+02  0.7546771E-02  0.1297310E+00
         21   -1    0    0  501  502  0.00000000000E+00  0.00000000000E+00  0.12020358119E+03  0.12020358119E+03  0.00000000000E+00 0.  1.
          3   -1    0    0  502    0 -0.00000000000E+00 -0.00000000000E+00 -0.37374510068E+03  0.37374510068E+03  0.00000000000E+00 0. -1.
         23    2    1    2    0    0 -0.23962463240E+01  0.47508155140E+02 -0.27470607400E+03  0.29299358018E+03  0.90105738637E+02 0.  0.
        -24    2    1    2    0    0  0.32856961674E+02  0.29834708682E+02 -0.39191345571E+02  0.98229211871E+02  0.78379376909E+02 0.  0.
         13    1    4    4    0    0 -0.16833554018E+01  0.46385198846E+02 -0.37871749479E+02  0.59905673905E+02  0.00000000000E+00 0. -1.
        -14    1    4    4    0    0  0.34540317076E+02 -0.16550490165E+02 -0.13195960913E+01  0.38323537966E+02  0.00000000000E+00 0.  1.
        -13    1    3    3    0    0  0.22692127221E+02  0.63155305718E+02 -0.22838109301E+03  0.23803665458E+03  0.00000000000E+00 0.  1.
         13    1    3    3    0    0 -0.25088373545E+02 -0.15647150578E+02 -0.46324980987E+02  0.54956925603E+02  0.00000000000E+00 0. -1.
          4    1    1    2  501    0 -0.30460715350E+02 -0.77342863822E+02  0.60355900085E+02  0.10272588982E+03  0.00000000000E+00 0. -1.
<scales pt_clust_5="13000.00000" pt_clust_6="13000.00000" pt_clust_7="13000.00000" pt_clust_8="13000.00000" pt_clust_9="83.12505"></scales>
<clustering>
<clus scale="   78.379">  5  6 -1 -1</clus>
<clus scale="   83.125">  1  9  2 -1</clus>
<clus scale="   84.197">  1  5  2 -1</clus>
<clus scale="   90.106">  7  8 -1 -1</clus>
<clus scale="   83.125">  1  5  2 -1</clus>
</clustering>
</event>
<event>
 9    1  0.3197504E-005  0.9845540E+02  0.7546771E-02  0.1287236E+00
         21   -1    0    0  501  502  0.00000000000E+00  0.00000000000E+00  0.14463321848E+03  0.14463321848E+03  0.00000000000E+00 0.  1.
         -2   -1    0    0    0  501 -0.00000000000E+00 -0.00000000000E+00 -0.13618447733E+03  0.13618447733E+03  0.00000000000E+00 0.  1.
         23    2    1    2    0    0 -0.88533155691E+01  0.62579519075E+02 -0.21866595463E+02  0.11163390158E+03  0.89383458094E+02 0.  0.
        -24    2    1    2    0    0 -0.17515777641E+02 -0.43055852772E+01  0.55192070267E+02  0.10055411906E+03  0.82095223427E+02 0.  0.
         13    1    4    4    0    0 -0.19085250771E+02  0.37527747061E+02  0.29982195163E+02  0.51686658078E+02  0.00000000000E+00 0. -1.
        -14    1    4    4    0    0  0.15694731306E+01 -0.41833332339E+02  0.25209875104E+02  0.48867460986E+02  0.00000000000E+00 0.  1.
        -13    1    3    3    0    0  0.18476430568E+02  0.68509779501E+02 -0.36798099462E+02  0.79931648912E+02  0.00000000000E+00 0. -1.
         13    1    3    3    0    0 -0.27329746137E+02 -0.59302604257E+01  0.14931503999E+02  0.31702252669E+02  0.00000000000E+00 0.  1.
         -1    1    1    2    0  502  0.26369093210E+02 -0.58273933798E+02 -0.24876733654E+02  0.68629675172E+02  0.00000000000E+00 0.  1.
<scales pt_clust_5="13000.00000" pt_clust_6="13000.00000" pt_clust_7="13000.00000" pt_clust_8="13000.00000" pt_clust_9="63.96237"></scales>
<clustering>
<clus scale="   63.962">  1  9  2 -1</clus>
<clus scale="   82.095">  5  6 -1 -1</clus>
<clus scale="   89.383">  7  8 -1 -1</clus>
<clus scale="   91.890">  1  5  2 -1</clus>
<clus scale="   63.962">  1  5  2 -1</clus>
</clustering>
</event>
<event>
 9    1  0.4130569E-005  0.1129458E+03  0.7546771E-02  0.1258289E+00
         21   -1    0    0  501  502  0.00000000000E+00  0.00000000000E+00  0.19385105299E+03  0.19385105299E+03  0.00000000000E+00 0. -1.
          1   -1    0    0  502    0 -0.00000000000E+00 -0.00000000000E+00 -0.26021977782E+03  0.26021977782E+03  0.00000000000E+00 0. -1.
         23    2    1    2    0    0 -0.59465206531E+02 -0.27446331231E+01  0.30081544687E+01  0.10779520270E+03  0.89817108240E+02 0.  0.
        -24    2    1    2    0    0  0.81564916248E+02  0.56450896181E+02  0.10293436536E+03  0.16444074451E+03  0.81275676808E+02 0.  0.
         13    1    4    4    0    0  0.59145675569E+02  0.77476437108E+02  0.76697412015E+02  0.12402944108E+03  0.00000000000E+00 0. -1.
        -14    1    4    4    0    0  0.22419240680E+02 -0.21025540926E+02  0.26236953346E+02  0.40411303428E+02  0.00000000000E+00 0.  1.
        -11    1    3    3    0    0  0.12969973556E+02 -0.25647466631E+02  0.12295200462E+02  0.31259953823E+02  0.00000000000E+00 0.  1.
         11    1    3    3    0    0 -0.72435180087E+02  0.22902833508E+02 -0.92870459938E+01  0.76535248874E+02  0.00000000000E+00 0. -1.
          2    1    1    2  501    0 -0.22099709717E+02 -0.53706263058E+02 -0.17231124465E+03  0.18183488360E+03  0.00000000000E+00 0. -1.
<scales pt_clust_5="13000.00000" pt_clust_6="13000.00000" pt_clust_7="13000.00000" pt_clust_8="13000.00000" pt_clust_9="58.07550"></scales>
<clustering>
<clus scale="   58.075">  1  9  2 -1</clus>
<clus scale="   81.276">  5  6 -1 -1</clus>
<clus scale="   89.817">  7  8 -1 -1</clus>
<clus scale="  106.280">  1  5  2 -1</clus>
<clus scale="   58.075">  1  5  2 -1</clus>
</clustering>
</event>
<event>
 9    1  0.3197504E-005  0.9822011E+02  0.7546771E-02  0.1288161E+00
         21   -1    0    0  501  502  0.00000000000E+00  0.00000000000E+00  0.51834696130E+02  0.51834696130E+02  0.00000000000E+00 0. -1.
          1   -1    0    0  502    0 -0.00000000000E+00 -0.00000000000E+00 -0.30323583831E+03  0.30323583831E+03  0.00000000000E+00 0. -1.
        -24    2    1    2    0    0 -0.56910274146E+02 -0.67308228984E+01 -0.14838502403E+03  0.17899265522E+03  0.82074185871E+02 0.  0.
         23    2    1    2    0    0  0.92553685736E+01 -0.95553926950E+01 -0.54243786994E+02  0.10597102413E+03  0.90058326386E+02 0.  0.
         11    1    3    3    0    0 -0.72535920171E+02 -0.95189985474E+01 -0.78405689642E+02  0.10723582991E+03  0.00000000000E+00 0. -1.
        -12    1    3    3    0    0  0.15625646026E+02  0.27881756490E+01 -0.69979334389E+02  0.71756825310E+02  0.00000000000E+00 0.  1.
        -13    1    4    4    0    0 -0.12925879620E+02  0.15419660345E+02 -0.67196763344E+02  0.70144488687E+02  0.00000000000E+00 0.  1.
         13    1    4    4    0    0  0.22181248193E+02 -0.24975053040E+02  0.12952976351E+02  0.35826535447E+02  0.00000000000E+00 0. -1.
          2    1    1    2  501    0  0.47654905572E+02  0.16286215593E+02 -0.48772331154E+02  0.70106855083E+02  0.00000000000E+00 0. -1.
<scales pt_clust_5="13000.00000" pt_clust_6="13000.00000" pt_clust_7="13000.00000" pt_clust_8="13000.00000" pt_clust_9="50.36101"></scales>
<clustering>
<clus scale="   50.361">  1  9  2 -1</clus>
<clus scale="   82.074">  5  6 -1 -1</clus>
<clus scale="   90.058">  7  8 -1 -1</clus>
<clus scale="   90.955">  2  5  1 -1</clus>
<clus scale="   50.361">  1  5  2 -1</clus>
</clustering>
</event>
<event>
 9    1  0.3197504E-005  0.9002531E+02  0.7546771E-02  0.1303233E+00
          1   -1    0    0  502    0 -0.00000000000E+00  0.00000000000E+00  0.88656342886E+03  0.88656342886E+03  0.00000000000E+00 0. -1.
         21   -1    0    0  501  502  0.00000000000E+00 -0.00000000000E+00 -0.13644370474E+02  0.13644370474E+02  0.00000000000E+00 0. -1.
        -24    2    1    2    0    0 -0.21302094669E+02  0.33938891301E+02  0.46362674379E+03  0.47221254000E+03  0.80182902151E+02 0.  0.
         23    2    1    2    0    0  0.42014447743E+02 -0.19177450679E+02  0.36973444015E+03  0.38096625626E+03  0.79364625268E+02 0.  0.
         13    1    3    3    0    0  0.88877890699E+00  0.55852417345E+02  0.23959286973E+03  0.24601834419E+03  0.00000000000E+00 0. -1.
        -14    1    3    3    0    0 -0.22190873576E+02 -0.21913526044E+02  0.22403387406E+03  0.22619419582E+03  0.00000000000E+00 0.  1.
        -13    1    4    4    0    0 -0.17500167048E+02 -0.26330742604E+02  0.14177404707E+03  0.14525647757E+03  0.00000000000E+00 0.  1.
         13    1    4    4    0    0  0.59514614791E+02  0.71532919246E+01  0.22796039308E+03  0.23570977869E+03  0.00000000000E+00 0. -1.
          2    1    1    2  501    0 -0.20712353073E+02 -0.14761440622E+02  0.39557874447E+02  0.47029003070E+02  0.00000000000E+00 0. -1.
<scales pt_clust_5="13000.00000" pt_clust_6="13000.00000" pt_clust_7="13000.00000" pt_clust_8="13000.00000" pt_clust_9="25.43426"></scales>
<clustering>
<clus scale="   25.434">  2  9  1 -1</clus>
<clus scale="   79.365">  7  8 -1 -1</clus>
<clus scale="   80.183">  5  6 -1 -1</clus>
<clus scale="   89.297">  2  7  1 -1</clus>
<clus scale="   25.434">  2  5  1 -1</clus>
</clustering>
</event>
<event>
 9    1  0.3197504E-005  0.1473197E+03  0.7546771E-02  0.1205490E+00
          1   -1    0    0  502    0 -0.00000000000E+00  0.00000000000E+00  0.90478288272E+03  0.90478288272E+03  0.00000000000E+00 0. -1.
         21   -1    0    0  501  502  0.00000000000E+00 -0.00000000000E+00 -0.56761390192E+02  0.56761390192E+02  0.00000000000E+00 0. -1.
         23    2    1    2    0    0 -0.19038107211E+02  0.10651462236E+03  0.43034451239E+03  0.45288657027E+03  0.90565069889E+02 0.  0.
        -24    2    1    2    0    0  0.69256615332E+01 -0.12508118159E+03  0.44730503174E+03  0.47165432571E+03  0.81748056670E+02 0.  0.
         11    1    4    4    0    0  0.24222830556E+02 -0.94144207026E+02  0.20629030144E+03  0.22804728831E+03  0.00000000000E+00 0. -1.
        -12    1    4    4    0    0 -0.17297169023E+02 -0.30936974559E+02  0.24101473031E+03  0.24360703741E+03  0.00000000000E+00 0.  1.
        -13    1    3    3    0    0  0.15066375379E+02  0.99634704405E+02  0.25627498335E+03  0.27537417649E+03  0.00000000000E+00 0.  1.
         13    1    3    3    0    0 -0.34104482590E+02  0.68799179579E+01  0.17406952904E+03  0.17751239378E+03  0.00000000000E+00 0. -1.
          2    1    1    2  501    0  0.12112445678E+02  0.18566559222E+02 -0.29628051608E+02  0.37003376923E+02  0.00000000000E+00 0. -1.
<scales pt_clust_5="13000.00000" pt_clust_6="13000.00000" pt_clust_7="13000.00000" pt_clust_8="13000.00000" pt_clust_9="22.16819"></scales>
<clustering>
<clus scale="   22.168">  2  9  1 -1</clus>
<clus scale="   81.748">  5  6 -1 -1</clus>
<clus scale="   90.565">  7  8 -1 -1</clus>
<clus scale="  142.070">  2  5  1 -1</clus>
<clus scale="   22.168">  2  5  1 -1</clus>
</clustering>
</event>
<event>
 9    1  0.3197504E-005  0.9541006E+02  0.7546771E-02  0.1294628E+00
         21   -1    0    0  501  502  0.00000000000E+00  0.00000000000E+00  0.20336155861E+03  0.20336155861E+03  0.00000000000E+00 0.  1.
         -4   -1    0    0    0  501 -0.00000000000E+00 -0.00000000000E+00 -0.13357886742E+03  0.13357886742E+03  0.00000000000E+00 0.  1.
        -24    2    1    2    0    0 -0.31054947330E+02  0.21784226597E+02 -0.62325339476E+02  0.10804670218E+03  0.79691151506E+02 0.  0.
         23    2    1    2    0    0  0.51501164672E+02  0.25445414957E+02  0.14189232995E+03  0.17650651781E+03  0.87870805310E+02 0.  0.
         11    1    3    3    0    0  0.23177124062E+02  0.67831963804E+01 -0.95228846540E-01  0.24149532117E+02  0.00000000000E+00 0. -1.
        -12    1    3    3    0    0 -0.54232071393E+02  0.15001030217E+02 -0.62230110630E+02  0.83897170060E+02  0.00000000000E+00 0.  1.
        -11    1    4    4    0    0  0.47553276905E+01  0.37796834045E+02  0.11507641350E+03  0.12121796381E+03  0.00000000000E+00 0.  1.
         11    1    4    4    0    0  0.46745836982E+02 -0.12351419087E+02  0.26815916446E+02  0.55288554000E+02  0.00000000000E+00 0. -1.
         -3    1    1    2    0  502 -0.20446217342E+02 -0.47229641554E+02 -0.97842992829E+01  0.52387206047E+02  0.00000000000E+00 0.  1.
<scales pt_clust_5="13000.00000" pt_clust_6="13000.00000" pt_clust_7="13000.00000" pt_clust_8="13000.00000" pt_clust_9="51.46542"></scales>
<clustering>
<clus scale="   51.465">  1  9  2 -1</clus>
<clus scale="   79.691">  5  6 -1 -1</clus>
<clus scale="   87.871">  7  8 -1 -1</clus>
<clus scale="   87.935">  2  5  1 -1</clus>
<clus scale="   51.465">  1  5  2 -1</clus>
</clustering>
</event>
<event>
 9    1  0.3197504E-005  0.1082227E+03  0.7546771E-02  0.1266370E+00
         21   -1    0    0  501  502  0.00000000000E+00  0.00000000000E+00  0.74650423501E+02  0.74650423501E+02  0.00000000000E+00 0. -1.
          1   -1    0    0  502    0 -0.00000000000E+00 -0.00000000000E+00 -0.28848634957E+03  0.28848634957E+03  0.00000000000E+00 0. -1.
         23    2    1    2    0    0  0.36381253733E+02 -0.70890720908E+01 -0.37137586387E+02  0.10398469169E+03  0.89776195157E+02 0.  0.
        -24    2    1    2    0    0 -0.78217515629E+02  0.36146706095E+02 -0.65266306342E+02  0.13662976930E+03  0.83566973158E+02 0.  0.
         13    1    4    4    0    0 -0.33755276063E+02 -0.22870272617E+02 -0.46137077454E+01  0.41033575652E+02  0.00000000000E+00 0. -1.
        -14    1    4    4    0    0 -0.44462239566E+02  0.59016978711E+02 -0.60652598596E+02  0.95596193648E+02  0.00000000000E+00 0.  1.
        -11    1    3    3    0    0 -0.19928963397E+02 -0.95076681440E+01 -0.41961474584E+02  0.47416502242E+02  0.00000000000E+00 0.  1.
         11    1    3    3    0    0  0.56310217130E+02  0.24185960531E+01  0.48238881969E+01  0.56568189448E+02  0.00000000000E+00 0. -1.
          2    1    1    2  501    0  0.41836261896E+02 -0.29057634004E+02 -0.11143203334E+03  0.12252231208E+03  0.00000000000E+00 0. -1.
<scales pt_clust_5="13000.00000" pt_clust_6="13000.00000" pt_clust_7="13000.00000" pt_clust_8="13000.00000" pt_clust_9="50.93743"></scales>
<clustering>
<clus scale="   50.937">  1  9  2 -1</clus>
<clus scale="   83.567">  5  6 -1 -1</clus>
<clus scale="   89.776">  7  8 -1 -1</clus>
<clus scale="  103.130">  1  5  2 -1</clus>
<clus scale="   50.937">  1  5  2 -1</clus>
</clustering>
</event>
<event>
 9    1  0.3197504E-005  0.2509871E+03  0.7546771E-02  0.1112683E+00
         21   -1    0    0  501  502  0.00000000000E+00  0.00000000000E+00  0.14210980359E+03  0.14210980359E+03  0.00000000000E+00 0. -1.
          1   -1    0    0  502    0 -0.00000000000E+00 -0.00000000000E+00 -0.73651362391E+03  0.73651362391E+03  0.00000000000E+00 0. -1.
        -24    2    1    2    0    0 -0.68096374680E+02  0.59088267171E+02 -0.40797690247E+03  0.42586676753E+03  0.82394242365E+02 0.  0.
         23    2    1    2    0    0 -0.28214466279E+02  0.75893111166E+02 -0.24752281070E+03  0.27604090314E+03  0.91516216926E+02 0.  0.
         11    1    3    3    0    0 -0.22633313639E+02 -0.20348712351E+02 -0.92258021328E+02  0.97148749246E+02  0.00000000000E+00 0. -1.
        -12    1    3    3    0    0 -0.45463061041E+02  0.79436979522E+02 -0.31571888115E+03  0.32871801829E+03  0.00000000000E+00 0.  1.
        -11    1    4    4    0    0  0.51835720752E+01  0.46952982030E+02 -0.34533043157E+02  0.58514810182E+02  0.00000000000E+00 0.  1.
         11    1    4    4    0    0 -0.33398038355E+02  0.28940129137E+02 -0.21298976754E+03  0.21752609296E+03  0.00000000000E+00 0. -1.
          2    1    1    2  501    0  0.96310840959E+02 -0.13498137834E+03  0.61095892860E+02  0.17671575682E+03  0.00000000000E+00 0. -1.
<scales pt_clust_5="13000.00000" pt_clust_6="13000.00000" pt_clust_7="13000.00000" pt_clust_8="13000.00000" pt_clust_9="165.81843"></scales>
<clustering>
<clus scale="   82.394">  5  6 -1 -1</clus>
<clus scale="   91.516">  7  8 -1 -1</clus>
<clus scale="  106.685">  5  7 -1 -1</clus>
<clus scale="  165.818">  1  9  2 -1</clus>
<clus scale="  165.818">  1  5  2 -1</clus>
</clustering>
</event>
<event>
 9    1  0.3197504E-005  0.8511076E+02  0.7546771E-02  0.1316984E+00
         21   -1    0    0  501  502  0.00000000000E+00  0.00000000000E+00  0.38824138650E+02  0.38824138650E+02  0.00000000000E+00 0.  1.
         -2   -1    0    0    0  501 -0.00000000000E+00 -0.00000000000E+00 -0.97980448106E+03  0.97980448106E+03  0.00000000000E+00 0.  1.
        -24    2    1    2    0    0 -0.17026623917E+02  0.12269284715E+02 -0.82574860576E+03  0.82996065792E+03  0.80830022344E+02 0.  0.
         23    2    1    2    0    0 -0.12869638700E+02  0.14044372961E+02 -0.12110110240E+03  0.14841073197E+03  0.83650441412E+02 0.  0.
         11    1    3    3    0    0 -0.39161459713E+01  0.20350157448E+02 -0.50873050757E+02  0.54932070785E+02  0.00000000000E+00 0. -1.
        -12    1    3    3    0    0 -0.13110477946E+02 -0.80808727331E+01 -0.77487555500E+03  0.77502858714E+03  0.00000000000E+00 0.  1.
        -11    1    4    4    0    0 -0.54685893629E-02 -0.28264664383E+02 -0.90036105804E+02  0.94368382581E+02  0.00000000000E+00 0.  1.
         11    1    4    4    0    0 -0.12864170111E+02  0.42309037344E+02 -0.31064996595E+02  0.54042349385E+02  0.00000000000E+00 0. -1.
         -1    1    1    2    0  502  0.29896262617E+02 -0.26313657675E+02  0.58693657496E+01  0.40257229823E+02  0.00000000000E+00 0.  1.
<scales pt_clust_5="13000.00000" pt_clust_6="13000.00000" pt_clust_7="13000.00000" pt_clust_8="13000.00000" pt_clust_9="39.82706"></scales>
<clustering>
<clus scale="   39.827">  1  9  2 -1</clus>
<clus scale="   80.830">  5  6 -1 -1</clus>
<clus scale="   82.340">  2  5  1 -1</clus>
<clus scale="   83.650">  7  8 -1 -1</clus>
<clus scale="   39.827">  1  5  2 -1</clus>
</clustering>
</event>
<event>
 9    1  0.3197504E-005  0.1076822E+03  0.7546771E-02  0.1269583E+00
          3   -1    0    0  502    0 -0.00000000000E+00  0.00000000000E+00  0.28507556458E+03  0.28507556458E+03  0.00000000000E+00 0. -1.
         21   -1    0    0  501  502  0.00000000000E+00 -0.00000000000E+00 -0.14059104255E+03  0.14059104255E+03  0.00000000000E+00 0.  1.
        -24    2    1    2    0    0  0.80192954460E+00  0.52004989349E+02  0.19671737674E+03  0.21835648553E+03  0.79225415451E+02 0.  0.
         23    2    1    2    0    0  0.11309760006E+02 -0.92998410169E+02  0.11262380944E+02  0.13076733275E+03  0.90535292145E+02 0.  0.
         13    1    3    3    0    0  0.10666914286E+02  0.30074310865E+02  0.19098892036E+03  0.19363629550E+03  0.00000000000E+00 0. -1.
        -14    1    3    3    0    0 -0.98649847415E+01  0.21930678484E+02  0.57284563820E+01  0.24720190033E+02  0.00000000000E+00 0.  1.
        -11    1    4    4    0    0 -0.21657715065E+02  0.13911016121E+01  0.21143387125E+02  0.30299085872E+02  0.00000000000E+00 0. -1.
         11    1    4    4    0    0  0.32967475071E+02 -0.94389511781E+02 -0.98810061811E+01  0.10046824687E+03  0.00000000000E+00 0.  1.
          4    1    1    2  501    0 -0.12111689550E+02  0.40993420820E+02 -0.63495235660E+02  0.76542788856E+02  0.00000000000E+00 0. -1.
<scales pt_clust_5="13000.00000" pt_clust_6="13000.00000" pt_clust_7="13000.00000" pt_clust_8="13000.00000" pt_clust_9="42.74522"></scales>
<clustering>
<clus scale="   42.745">  2  9  1 -1</clus>
<clus scale="   79.225">  5  6 -1 -1</clus>
<clus scale="   90.535">  7  8 -1 -1</clus>
<clus scale="   98.364">  1  5  2 -1</clus>
<clus scale="   42.745">  2  5  1 -1</clus>
</clustering>
</event>
<event>
 9    1  0.3197504E-005  0.9518139E+02  0.7546771E-02  0.1297625E+00
         21   -1    0    0  501  502  0.00000000000E+00  0.00000000000E+00  0.22946068162E+02  0.22946068162E+02  0.00000000000E+00 0.  1.
         -2   -1    0    0    0  501 -0.00000000000E+00 -0.00000000000E+00 -0.59005999619E+03  0.59005999619E+03  0.00000000000E+00 0.  1.
        -24    2    1    2    0    0  0.29695485684E+02  0.91505710077E+00 -0.30168718722E+03  0.31350623019E+03  0.79927080724E+02 0.  0.
         23    2    1    2    0    0 -0.98335417119E+01  0.28578255079E+02 -0.14765073826E+03  0.17647325550E+03  0.91807702250E+02 0.  0.
         11    1    3    3    0    0 -0.21632685734E+02 -0.69899752227E+01 -0.34487600342E+02  0.41306505820E+02  0.00000000000E+00 0. -1.
        -12    1    3    3    0    0  0.51328171418E+02  0.79050323235E+01 -0.26719958688E+03  0.27219972437E+03  0.00000000000E+00 0.  1.
        -11    1    4    4    0    0 -0.32946997517E+02 -0.22355340087E+01 -0.12995282403E+03  0.13408295466E+03  0.00000000000E+00 0. -1.
         11    1    4    4    0    0  0.23113455805E+02  0.30813789088E+02 -0.17697914233E+02  0.42390300841E+02  0.00000000000E+00 0.  1.
         -1    1    1    2    0  502 -0.19861943972E+02 -0.29493312180E+02 -0.11777600254E+03  0.12302657866E+03  0.00000000000E+00 0.  1.
<scales pt_clust_5="13000.00000" pt_clust_6="13000.00000" pt_clust_7="13000.00000" pt_clust_8="13000.00000" pt_clust_9="35.55775"></scales>
<clustering>
<clus scale="   35.558">  1  9  2 -1</clus>
<clus scale="   79.927">  5  6 -1 -1</clus>
<clus scale="   83.781">  2  5  1 -1</clus>
<clus scale="   91.808">  7  8 -1 -1</clus>
<clus scale="   35.558">  1  5  2 -1</clus>
</clustering>
</event>
<event>
 9    1  0.3197504E-005  0.9478968E+02  0.7546771E-02  0.1291976E+00
          1   -1    0    0  502    0 -0.00000000000E+00  0.00000000000E+00  0.83321908036E+03  0.83321908036E+03  0.00000000000E+00 0. -1.
         21   -1    0    0  501  502  0.00000000000E+00 -0.00000000000E+00 -0.39300627880E+02  0.39300627880E+02  0.00000000000E+00 0. -1.
         23    2    1    2    0    0 -0.22647349452E+02 -0.17953810793E+02  0.27874245712E+03  0.29459865168E+03  0.90861248119E+02 0.  0.
        -24    2    1    2    0    0 -0.66166146344E+02  0.51894605832E+02  0.11003659900E+03  0.16177475406E+03  0.83618233033E+02 0.  0.
         13    1    4    4    0    0 -0.78033750785E+02  0.53388560550E+02  0.11495386257E+03  0.14884218213E+03  0.00000000000E+00 0. -1.
        -14    1    4    4    0    0  0.11867604442E+02 -0.14939547172E+01 -0.49172635713E+01  0.12932571937E+02  0.00000000000E+00 0.  1.
        -11    1    3    3    0    0 -0.18666678737E+02 -0.53218942573E+02  0.20718876739E+03  0.21472746931E+03  0.00000000000E+00 0.  1.
         11    1    3    3    0    0 -0.39806707148E+01  0.35265131779E+02  0.71553689725E+02  0.79871182363E+02  0.00000000000E+00 0. -1.
          2    1    1    2  501    0  0.88813495796E+02 -0.33940795039E+02  0.40513939636E+03  0.41614630250E+03  0.00000000000E+00 0. -1.
<scales pt_clust_5="13000.00000" pt_clust_6="13000.00000" pt_clust_7="13000.00000" pt_clust_8="13000.00000" pt_clust_9="95.07799"></scales>
<clustering>
<clus scale="   83.618">  5  6 -1 -1</clus>
<clus scale="   90.861">  7  8 -1 -1</clus>
<clus scale="   95.078">  2  9  1 -1</clus>
<clus scale="   95.078">  2  5  1 -1</clus>
<clus scale="   94.790">  2  5  1 -1</clus>
</clustering>
</event>
<event>
 9    1  0.3197504E-005  0.2218429E+03  0.7546771E-02  0.1153385E+00
         21   -1    0    0  501  502  0.00000000000E+00  0.00000000000E+00  0.23863806340E+03  0.23863806340E+03  0.00000000000E+00 0. -1.
          1   -1    0    0  502    0 -0.00000000000E+00 -0.00000000000E+00 -0.48059136521E+03  0.48059136521E+03  0.00000000000E+00 0. -1.
        -24    2    1    2    0    0  0.70606070268E+02  0.86392533791E+02  0.41627163346E+02  0.14075032229E+03  0.75026298344E+02 0.  0.
         23    2    1    2    0    0 -0.16002582815E+03  0.12326512068E+03 -0.79106236017E+01  0.22078358395E+03  0.88770813475E+02 0.  0.
         11    1    3    3    0    0  0.86259310571E+02  0.73480127622E+02  0.29423320817E+02  0.11707147229E+03  0.00000000000E+00 0. -1.
        -12    1    3    3    0    0 -0.15653240303E+02  0.12912406168E+02  0.12203842529E+02  0.23678850004E+02  0.00000000000E+00 0.  1.
        -13    1    4    4    0    0 -0.16535877973E+03  0.93288667798E+02 -0.25978654796E+01  0.18987640843E+03  0.00000000000E+00 0. -1.
         13    1    4    4    0    0  0.53329515773E+01  0.29976452882E+02 -0.53127581222E+01  0.30907175522E+02  0.00000000000E+00 0.  1.
          2    1    1    2  501    0  0.89419757886E+02 -0.20965765447E+03 -0.27566984155E+03  0.35769552236E+03  0.00000000000E+00 0. -1.
<scales pt_clust_5="13000.00000" pt_clust_6="13000.00000" pt_clust_7="13000.00000" pt_clust_8="13000.00000" pt_clust_9="203.30778"></scales>
<clustering>
<clus scale="   75.026">  5  6 -1 -1</clus>
<clus scale="   88.771">  7  8 -1 -1</clus>
<clus scale="  134.454">  2  5  1 -1</clus>
<clus scale="  203.308">  1  9  2 -1</clus>
<clus scale="  203.308">  1  5  2 -1</clus>
</clustering>
</event>
<event>
 9    1  0.3197504E-005  0.9176538E+02  0.7546771E-02  0.1310300E+00
         21   -1    0    0  501  502  0.00000000000E+00  0.00000000000E+00  0.56443591366E+02  0.56443591366E+02  0.00000000000E+00 0.  1.
          3   -1    0    0  502    0 -0.00000000000E+00 -0.00000000000E+00 -0.19479132197E+03  0.19479132197E+03  0.00000000000E+00 0. -1.
         23    2    1    2    0    0  0.20346686570E+02 -0.72154121914E+01 -0.83480118275E+02  0.12495872494E+03  0.90441710313E+02 0.  0.
        -24    2    1    2    0    0  0.11311076096E+02  0.22972128206E+02 -0.27766853802E+02  0.81723532479E+02  0.72471225145E+02 0.  0.
         11    1    4    4    0    0  0.52163901488E+00 -0.25699464748E+02 -0.16710670811E+02  0.30659111444E+02  0.00000000000E+00 0. -1.
        -12    1    4    4    0    0  0.10789437082E+02  0.48671592954E+02 -0.11056182991E+02  0.51064421034E+02  0.00000000000E+00 0.  1.
        -13    1    3    3    0    0  0.17055757080E+02  0.38237863857E+02 -0.18947628036E+02  0.45956998271E+02  0.00000000000E+00 0. -1.
         13    1    3    3    0    0  0.32909294902E+01 -0.45453276048E+02 -0.64532490239E+02  0.79001726670E+02  0.00000000000E+00 0.  1.
          4    1    1    2  501    0 -0.31657762667E+02 -0.15756716015E+02 -0.27100758531E+02  0.44552655921E+02  0.00000000000E+00 0. -1.
<scales pt_clust_5="13000.00000" pt_clust_6="13000.00000" pt_clust_7="13000.00000" pt_clust_8="13000.00000" pt_clust_9="35.36226"></scales>
<clustering>
<clus scale="   35.362">  1  9  2 -1</clus>
<clus scale="   72.471">  5  6 -1 -1</clus>
<clus scale="   74.117">  1  5  2 -1</clus>
<clus scale="   90.442">  7  8 -1 -1</clus>
<clus scale="   35.362">  1  5  2 -1</clus>
</clustering>
</event>
<event>
 9    1  0.3197504E-005  0.9449866E+02  0.7546771E-02  0.1298418E+00
          3   -1    0    0  502    0 -0.00000000000E+00  0.00000000000E+00  0.33786537486E+03  0.33786537486E+03  0.00000000000E+00 0. -1.
         21   -1    0    0  501  502  0.00000000000E+00 -0.00000000000E+00 -0.55339705391E+02  0.55339705391E+02  0.00000000000E+00 0. -1.
        -24    2    1    2    0    0  0.10587698666E+02 -0.21989019583E+02  0.23386873385E+03  0.24880224988E+03  0.81316409934E+02 0.  0.
         23    2    1    2    0    0 -0.34418485647E+02 -0.63786149651E+01  0.41626718248E+02  0.10669271165E+03  0.91789063419E+02 0.  0.
         11    1    3    3    0    0  0.10378643861E+02 -0.45181000696E+02  0.21170803937E+03  0.21672409420E+03  0.00000000000E+00 0. -1.
        -12    1    3    3    0    0  0.20905480508E+00  0.23191981112E+02  0.22160694486E+02  0.32078155682E+02  0.00000000000E+00 0.  1.
        -11    1    4    4    0    0 -0.21119177578E+02 -0.47670543576E+02  0.10207354652E+02  0.53128998442E+02  0.00000000000E+00 0. -1.
         11    1    4    4    0    0 -0.13299308069E+02  0.41291928611E+02  0.31419363596E+02  0.53563713205E+02  0.00000000000E+00 0.  1.
          4    1    1    2  501    0  0.23830786981E+02  0.28367634549E+02  0.70302173666E+01  0.37710118725E+02  0.00000000000E+00 0. -1.
<scales pt_clust_5="13000.00000" pt_clust_6="13000.00000" pt_clust_7="13000.00000" pt_clust_8="13000.00000" pt_clust_9="37.04901"></scales>
<clustering>
<clus scale="   37.049">  2  9  1 -1</clus>
<clus scale="   81.316">  5  6 -1 -1</clus>
<clus scale="   84.363">  1  5  2 -1</clus>
<clus scale="   91.789">  7  8 -1 -1</clus>
<clus scale="   37.049">  2  5  1 -1</clus>
</clustering>
</event>
<event>
 9    1  0.3197504E-005  0.2900520E+03  0.7546771E-02  0.1106028E+00
          1   -1    0    0  502    0 -0.00000000000E+00  0.00000000000E+00  0.17005222488E+04  0.17005222488E+04  0.00000000000E+00 0. -1.
         21   -1    0    0  501  502  0.00000000000E+00 -0.00000000000E+00 -0.14357785274E+03  0.14357785274E+03  0.00000000000E+00 0. -1.
        -24    2    1    2    0    0  0.54237153267E+02 -0.16664056724E+03  0.19015698568E+03  0.27072617267E+03  0.80138841535E+02 0.  0.
         23    2    1    2    0    0 -0.26225429090E+03  0.31058005423E+03  0.12005087920E+04  0.12706557689E+04  0.90041324098E+02 0.  0.
         11    1    3    3    0    0  0.36797914231E+02 -0.56927835483E+02  0.26187475214E+02  0.72668072788E+02  0.00000000000E+00 0. -1.
        -12    1    3    3    0    0  0.17439239036E+02 -0.10971273176E+03  0.16396951047E+03  0.19805809989E+03  0.00000000000E+00 0.  1.
        -11    1    4    4    0    0 -0.14609861085E+03  0.23520278556E+03  0.84068000761E+03  0.88510340052E+03  0.00000000000E+00 0.  1.
         11    1    4    4    0    0 -0.11615568005E+03  0.75377268668E+02  0.35982878443E+03  0.38555236835E+03  0.00000000000E+00 0. -1.
          2    1    1    2  501    0  0.20801713763E+03 -0.14393948699E+03  0.16627861831E+03  0.30271815996E+03  0.00000000000E+00 0. -1.
<scales pt_clust_5="13000.00000" pt_clust_6="13000.00000" pt_clust_7="13000.00000" pt_clust_8="13000.00000" pt_clust_9="275.72222"></scales>
<clustering>
<clus scale="   80.139">  5  6 -1 -1</clus>
<clus scale="   90.041">  7  8 -1 -1</clus>
<clus scale="  192.699">  1  5  2 -1</clus>
<clus scale="  275.722">  2  9  1 -1</clus>
<clus scale="  275.722">  2  5  1 -1</clus>
</clustering>
</event>
<event>
 9    1  0.3197504E-005  0.9784057E+02  0.7546771E-02  0.1288479E+00
         21   -1    0    0  501  502  0.00000000000E+00  0.00000000000E+00  0.24076516719E+03  0.24076516719E+03  0.00000000000E+00 0. -1.
         -4   -1    0    0    0  501 -0.00000000000E+00 -0.00000000000E+00 -0.55239763624E+02  0.55239763624E+02  0.00000000000E+00 0.  1.
        -24    2    1    2    0    0 -0.20251279714E+02  0.11068131882E+02  0.40307255795E+02  0.97537864084E+02  0.85769121407E+02 0.  0.
         23    2    1    2    0    0  0.36590540081E+02 -0.34955917403E+02  0.12269937774E+03  0.16179701450E+03  0.92532982335E+02 0.  0.
         13    1    3    3    0    0  0.17375945567E+02 -0.26035758608E+02  0.37671334763E+00  0.31303771715E+02  0.00000000000E+00 0. -1.
        -14    1    3    3    0    0 -0.37627225281E+02  0.37103890489E+02  0.39930542448E+02  0.66234092369E+02  0.00000000000E+00 0.  1.
        -11    1    4    4    0    0  0.27358399203E+00 -0.35560305557E+02  0.18524340427E+01  0.35609573031E+02  0.00000000000E+00 0.  1.
         11    1    4    4    0    0  0.36316956089E+02  0.60438815476E+00  0.12084694370E+03  0.12618744147E+03  0.00000000000E+00 0. -1.
         -3    1    1    2    0  502 -0.16339260367E+02  0.23887785521E+02  0.22518770026E+02  0.36670052221E+02  0.00000000000E+00 0.  1.
<scales pt_clust_5="13000.00000" pt_clust_6="13000.00000" pt_clust_7="13000.00000" pt_clust_8="13000.00000" pt_clust_9="28.94130"></scales>
<clustering>
<clus scale="   28.941">  1  9  2 -1</clus>
<clus scale="   85.769">  5  6 -1 -1</clus>
<clus scale="   91.470">  2  5  1 -1</clus>
<clus scale="   92.533">  7  8 -1 -1</clus>
<clus scale="   28.941">  1  5  2 -1</clus>
</clustering>
</event>
<event>
 9    1  0.3197504E-005  0.9249829E+02  0.7546771E-02  0.1303033E+00
         21   -1    0    0  501  502  0.00000000000E+00  0.00000000000E+00  0.39491933395E+02  0.39491933395E+02  0.00000000000E+00 0. -1.
          1   -1    0    0  502    0 -0.00000000000E+00 -0.00000000000E+00 -0.67928708299E+03  0.67928708299E+03  0.00000000000E+00 0. -1.
         23    2    1    2    0    0 -0.25528134458E+02 -0.10389821658E+01 -0.46695369478E+03  0.47645013808E+03  0.91138443485E+02 0.  0.
        -24    2    1    2    0    0 -0.12236496154E+02  0.24557330322E+02 -0.17802110461E+03  0.19753927240E+03  0.81101517515E+02 0.  0.
         13    1    4    4    0    0 -0.45768419107E+02  0.33544704737E+01 -0.98925217006E+02  0.10905136047E+03  0.00000000000E+00 0. -1.
        -14    1    4    4    0    0  0.33531922953E+02  0.21202859848E+02 -0.79095887602E+02  0.88487911933E+02  0.00000000000E+00 0.  1.
        -11    1    3    3    0    0 -0.54488784948E+02 -0.21523305744E+02 -0.31595720157E+03  0.32134285989E+03  0.00000000000E+00 0. -1.
         11    1    3    3    0    0  0.28960650489E+02  0.20484323578E+02 -0.15099649320E+03  0.15510727819E+03  0.00000000000E+00 0.  1.
          2    1    1    2  501    0  0.37764630612E+02 -0.23518348156E+02  0.51796497867E+01  0.44789605906E+02  0.00000000000E+00 0. -1.
<scales pt_clust_5="13000.00000" pt_clust_6="13000.00000" pt_clust_7="13000.00000" pt_clust_8="13000.00000" pt_clust_9="44.48910"></scales>
<clustering>
<clus scale="   44.489">  1  9  2 -1</clus>
<clus scale="   81.102">  5  6 -1 -1</clus>
<clus scale="   82.627">  1  5  2 -1</clus>
<clus scale="   91.138">  7  8 -1 -1</clus>
<clus scale="   44.489">  1  5  2 -1</clus>
</clustering>
</event>
<event>
 9    1  0.3197504E-005  0.1112893E+03  0.7546771E-02  0.1262506E+00
          1   -1    0    0  502    0 -0.00000000000E+00  0.00000000000E+00  0.36605871037E+03  0.36605871037E+03  0.00000000000E+00 0. -1.
         21   -1    0    0  501  502  0.00000000000E+00 -0.00000000000E+00 -0.42784639230E+02  0.42784639230E+02  0.00000000000E+00 0. -1.
        -24    2    1    2    0    0  0.14483057180E+02 -0.74498335046E+02  0.15605634935E+03  0.19110031520E+03  0.80037400177E+02 0.  0.
         23    2    1    2    0    0 -0.22198067073E+02  0.44432332340E+02  0.10250751217E+03  0.14597328363E+03  0.91287584826E+02 0.  0.
         13    1    3    3    0    0 -0.13513925514E+02 -0.80062893885E+02  0.12352422487E+03  0.14782059156E+03  0.00000000000E+00 0. -1.
        -14    1    3    3    0    0  0.27996982693E+02  0.55645588387E+01  0.32532124481E+02  0.43279723639E+02  0.00000000000E+00 0.  1.
        -11    1    4    4    0    0 -0.46594026607E+02  0.29265041237E+02  0.10351441918E+03  0.11722918123E+03  0.00000000000E+00 0.  1.
         11    1    4    4    0    0  0.24395959534E+02  0.15167291103E+02 -0.10069070094E+01  0.28744102399E+02  0.00000000000E+00 0. -1.
          2    1    1    2  501    0  0.77150098928E+01  0.30066002706E+02  0.64710209623E+02  0.71769750771E+02  0.00000000000E+00 0. -1.
<scales pt_clust_5="13000.00000" pt_clust_6="13000.00000" pt_clust_7="13000.00000" pt_clust_8="13000.00000" pt_clust_9="31.04008"></scales>
<clustering>
<clus scale="   31.040">  2  9  1 -1</clus>
<clus scale="   80.037">  5  6 -1 -1</clus>
<clus scale="   91.288">  7  8 -1 -1</clus>
<clus scale="  102.264">  1  5  2 -1</clus>
<clus scale="   31.040">  2  5  1 -1</clus>
</clustering>
</event>
<event>
 9    1  0.3197504E-005  0.1124083E+03  0.7546771E-02  0.1269794E+00
          1   -1    0    0  502    0 -0.00000000000E+00  0.00000000000E+00  0.21979047645E+03  0.21979047645E+03  0.00000000000E+00 0. -1.
         21   -1    0    0  501  502  0.00000000000E+00 -0.00000000000E+00 -0.20054492665E+03  0.20054492665E+03  0.00000000000E+00 0. -1.
        -24    2    1    2    0    0  0.23529083787E+02  0.20438543474E+02  0.97959738056E+02  0.13043158404E+03  0.80280358689E+02 0.  0.
         23    2    1    2    0    0  0.11954280675E+02  0.61709325339E+02 -0.14257980498E+03  0.17996675297E+03  0.90044909486E+02 0.  0.
         11    1    3    3    0    0  0.40965778964E+02  0.26433885667E+02  0.10061300408E+03  0.11180304981E+03  0.00000000000E+00 0. -1.
        -12    1    3    3    0    0 -0.17436695177E+02 -0.59953421930E+01 -0.26532660239E+01  0.18628534223E+02  0.00000000000E+00 0.  1.
        -13    1    4    4    0    0 -0.78475772427E+00 -0.22452259305E+02 -0.16631677829E+02  0.27952325485E+02  0.00000000000E+00 0.  1.
         13    1    4    4    0    0  0.12739038400E+02  0.84161584645E+02 -0.12594812715E+03  0.15201442748E+03  0.00000000000E+00 0. -1.
          2    1    1    2  501    0 -0.35483364462E+02 -0.82147868813E+02  0.63865616721E+02  0.10993706610E+03  0.00000000000E+00 0. -1.
<scales pt_clust_5="13000.00000" pt_clust_6="13000.00000" pt_clust_7="13000.00000" pt_clust_8="13000.00000" pt_clust_9="67.28698"></scales>
<clustering>
<clus scale="   80.280">  5  6 -1 -1</clus>
<clus scale="   86.118">  1  5  2 -1</clus>
<clus scale="   67.287">  2  9  1 -1</clus>
<clus scale="   90.045">  7  8 -1 -1</clus>
<clus scale="   67.287">  2  5  1 -1</clus>
</clustering>
</event>
<event>
 9    1  0.3197504E-005  0.1010469E+03  0.7546771E-02  0.1284254E+00
         21   -1    0    0  501  502  0.00000000000E+00  0.00000000000E+00  0.33636678018E+03  0.33636678018E+03  0.00000000000E+00 0. -1.
         -2   -1    0    0    0  501 -0.00000000000E+00 -0.00000000000E+00 -0.68458139490E+02  0.68458139490E+02  0.00000000000E+00 0.  1.
        -24    2    1    2    0    0  0.56972586786E+02 -0.13384048874E+02  0.92115521810E+02  0.13544077840E+03  0.80211761512E+02 0.  0.
         23    2    1    2    0    0 -0.92348806359E+01 -0.59436325147E+02  0.13158058096E+03  0.17172942316E+03  0.92518029195E+02 0.  0.
         13    1    3    3    0    0 -0.14022773370E+02 -0.20505775170E+02  0.39987270820E+02  0.47075543714E+02  0.00000000000E+00 0. -1.
        -14    1    3    3    0    0  0.70995360156E+02  0.71217262967E+01  0.52128250989E+02  0.88365234681E+02  0.00000000000E+00 0.  1.
        -11    1    4    4    0    0 -0.15065240339E+02 -0.28251537696E+02 -0.42001349429E+01  0.32291670477E+02  0.00000000000E+00 0.  1.
         11    1    4    4    0    0  0.58303597032E+01 -0.31184787451E+02  0.13578071590E+03  0.13943775268E+03  0.00000000000E+00 0. -1.
         -1    1    1    2    0  502 -0.47737706150E+02  0.72820374021E+02  0.44212537928E+02  0.97654718120E+02  0.00000000000E+00 0.  1.
<scales pt_clust_5="13000.00000" pt_clust_6="13000.00000" pt_clust_7="13000.00000" pt_clust_8="13000.00000" pt_clust_9="87.07298"></scales>
<clustering>
<clus scale="   80.212">  5  6 -1 -1</clus>
<clus scale="   87.073">  1  9  2 -1</clus>
<clus scale="   89.916">  2  5  1 -1</clus>
<clus scale="   92.518">  7  8 -1 -1</clus>
<clus scale="   87.073">  1  5  2 -1</clus>
</clustering>
</event>
<event>
 9    1  0.3197504E-005  0.9504942E+02  0.7546771E-02  0.1302615E+00
         21   -1    0    0  501  502  0.00000000000E+00  0.00000000000E+00  0.18540443697E+03  0.18540443697E+03  0.00000000000E+00 0.  1.
          1   -1    0    0  502    0 -0.00000000000E+00 -0.00000000000E+00 -0.23614339466E+03  0.23614339466E+03  0.00000000000E+00 0. -1.
        -24    2    1    2    0    0 -0.12188132947E+02 -0.75172793021E+01 -0.17810886516E+03  0.19398315089E+03  0.75509171003E+02 0.  0.
         23    2    1    2    0    0 -0.25178852509E+02  0.35756898512E+02  0.14434066843E+03  0.17774726990E+03  0.94060262531E+02 0.  0.
         13    1    3    3    0    0 -0.17297552756E+02 -0.37326487903E+02 -0.65202652781E+02  0.77096419892E+02  0.00000000000E+00 0. -1.
        -14    1    3    3    0    0  0.51094198083E+01  0.29809208601E+02 -0.11290621238E+03  0.11688673100E+03  0.00000000000E+00 0.  1.
        -13    1    4    4    0    0 -0.54981383723E+02 -0.24461797300E+01  0.70694014379E+02  0.89591182716E+02  0.00000000000E+00 0.  1.
         13    1    4    4    0    0  0.29802531214E+02  0.38203078242E+02  0.73646654054E+02  0.88156087182E+02  0.00000000000E+00 0. -1.
          2    1    1    2  501    0  0.37366985457E+02 -0.28239619210E+02 -0.16970760968E+02  0.49817410843E+02  0.00000000000E+00 0. -1.
<scales pt_clust_5="13000.00000" pt_clust_6="13000.00000" pt_clust_7="13000.00000" pt_clust_8="13000.00000" pt_clust_9="46.83770"></scales>
<clustering>
<clus scale="   46.838">  1  9  2 -1</clus>
<clus scale="   75.509">  5  6 -1 -1</clus>
<clus scale="   76.738">  2  5  1 -1</clus>
<clus scale="   94.060">  7  8 -1 -1</clus>
<clus scale="   46.838">  1  5  2 -1</clus>
</clustering>
</event>
<event>
 9    1  0.3197504E-005  0.1142487E+03  0.7546771E-02  0.1256380E+00
         -4   -1    0    0    0  501 -0.00000000000E+00  0.00000000000E+00  0.30899932684E+03  0.30899932684E+03  0.00000000000E+00 0.  1.
         21   -1    0    0  501  502  0.00000000000E+00 -0.00000000000E+00 -0.19122094515E+03  0.19122094515E+03  0.00000000000E+00 0.  1.
        -24    2    1    2    0    0 -0.13387925320E+02  0.83483633342E+02  0.22832388920E+03  0.25646794413E+03  0.80593141182E+02 0.  0.
         23    2    1    2    0    0  0.54020313460E+02  0.10149477775E+02 -0.20832789172E+02  0.10786074499E+03  0.90436325888E+02 0.  0.
         11    1    3    3    0    0  0.22441252346E+02  0.32037398488E+02  0.32506625939E+02  0.50859467543E+02  0.00000000000E+00 0. -1.
        -12    1    3    3    0    0 -0.35829177666E+02  0.51446234854E+02  0.19581726326E+03  0.20560847659E+03  0.00000000000E+00 0.  1.
        -13    1    4    4    0    0  0.44034123717E+02  0.33159364958E+02  0.21079385683E+02  0.59015998142E+02  0.00000000000E+00 0.  1.
         13    1    4    4    0    0  0.99861897431E+01 -0.23009887183E+02 -0.41912174855E+02  0.48844746850E+02  0.00000000000E+00 0. -1.
         -3    1    1    2    0  502 -0.40632388140E+02 -0.93633111117E+02 -0.89712718334E+02  0.13589158287E+03  0.00000000000E+00 0.  1.
<scales pt_clust_5="13000.00000" pt_clust_6="13000.00000" pt_clust_7="13000.00000" pt_clust_8="13000.00000" pt_clust_9="102.06934"></scales>
<clustering>
<clus scale="   80.593">  5  6 -1 -1</clus>
<clus scale="   90.436">  7  8 -1 -1</clus>
<clus scale="  102.069">  2  9  1 -1</clus>
<clus scale="  106.627">  1  5  2 -1</clus>
<clus scale="  102.069">  2  5  1 -1</clus>
</clustering>
</event>
<event>
 9    1  0.3197504E-005  0.9151092E+02  0.7546771E-02  0.1301510E+00
         21   -1    0    0  501  502  0.00000000000E+00  0.00000000000E+00  0.36931527583E+02  0.36931527583E+02  0.00000000000E+00 0.  1.
         -4   -1    0    0    0  501 -0.00000000000E+00 -0.00000000000E+00 -0.36639715617E+03  0.36639715617E+03  0.00000000000E+00 0.  1.
        -24    2    1    2    0    0  0.24573104522E+02  0.16408746904E+02 -0.18503986396E+03  0.20503149055E+03  0.83217044039E+02 0.  0.
         23    2    1    2    0    0  0.67018402100E+01 -0.38606841044E+02 -0.11737884312E+03  0.15136731451E+03  0.87171487620E+02 0.  0.
         11    1    3    3    0    0 -0.19502814795E+02 -0.14085162663E+02 -0.19303176317E+02  0.30844192453E+02  0.00000000000E+00 0. -1.
        -12    1    3    3    0    0  0.44075919317E+02  0.30493909566E+02 -0.16573668765E+03  0.17418729809E+03  0.00000000000E+00 0.  1.
        -13    1    4    4    0    0  0.44885147247E+02 -0.26617593954E+02 -0.46142178939E+02  0.69658261739E+02  0.00000000000E+00 0.  1.
         13    1    4    4    0    0 -0.38183307037E+02 -0.11989247090E+02 -0.71236664179E+02  0.81709052775E+02  0.00000000000E+00 0. -1.
         -3    1    1    2    0  502 -0.31274944732E+02  0.22198094140E+02 -0.27046921509E+02  0.46929878697E+02  0.00000000000E+00 0.  1.
<scales pt_clust_5="13000.00000" pt_clust_6="13000.00000" pt_clust_7="13000.00000" pt_clust_8="13000.00000" pt_clust_9="38.35202"></scales>
<clustering>
<clus scale="   38.352">  1  9  2 -1</clus>
<clus scale="   83.217">  5  6 -1 -1</clus>
<clus scale="   87.171">  7  8 -1 -1</clus>
<clus scale="   87.752">  2  5  1 -1</clus>
<clus scale="   38.352">  1  5  2 -1</clus>
</clustering>
</event>
<event>
 9    1  0.3197504E-005  0.1139355E+03  0.7546771E-02  0.1259172E+00
          1   -1    0    0  502    0 -0.00000000000E+00  0.00000000000E+00  0.21168716365E+03  0.21168716365E+03  0.00000000000E+00 0. -1.
         21   -1    0    0  501  502  0.00000000000E+00 -0.00000000000E+00 -0.10004197514E+03  0.10004197514E+03  0.00000000000E+00 0. -1.
        -24    2    1    2    0    0  0.32594658470E+00 -0.58137515873E+02  0.61519946626E+02  0.11622562159E+03  0.79646809650E+02 0.  0.
         23    2    1    2    0    0 -0.40658012127E+02  0.71682952356E+02 -0.52597215236E+01  0.12566335303E+03  0.94721138162E+02 0.  0.
         11    1    3    3    0    0 -0.37009208400E+02 -0.14809034679E+02  0.15329595969E+02  0.42708143569E+02  0.00000000000E+00 0. -1.
        -12    1    3    3    0    0  0.37335154985E+02 -0.43328481194E+02  0.46190350657E+02  0.73517478018E+02  0.00000000000E+00 0.  1.
        -11    1    4    4    0    0 -0.61976441499E+00 -0.20373994077E+02 -0.14256092174E+02  0.24874081021E+02  0.00000000000E+00 0. -1.
         11    1    4    4    0    0 -0.40038247712E+02  0.92056946433E+02  0.89963706505E+01  0.10078927201E+03  0.00000000000E+00 0.  1.
          2    1    1    2  501    0  0.40332065542E+02 -0.13545436483E+02  0.55384963412E+02  0.69840164179E+02  0.00000000000E+00 0. -1.
<scales pt_clust_5="13000.00000" pt_clust_6="13000.00000" pt_clust_7="13000.00000" pt_clust_8="13000.00000" pt_clust_9="42.54593"></scales>
<clustering>
<clus scale="   42.546">  2  9  1 -1</clus>
<clus scale="   79.647">  5  6 -1 -1</clus>
<clus scale="   94.721">  7  8 -1 -1</clus>
<clus scale="  101.749">  1  5  2 -1</clus>
<clus scale="   42.546">  2  5  1 -1</clus>
</clustering>
</event>
<event>
 9    1  0.3197504E-005  0.1377177E+03  0.7546771E-02  0.1235890E+00
         21   -1    0    0  501  502  0.00000000000E+00  0.00000000000E+00  0.22377025056E+03  0.22377025056E+03  0.00000000000E+00 0.  1.
          3   -1    0    0  502    0 -0.00000000000E+00 -0.00000000000E+00 -0.16424063917E+03  0.16424063917E+03  0.00000000000E+00 0. -1.
        -24    2    1    2    0    0  0.28713701694E+02  0.33330838381E+02  0.52399967417E+02  0.10579997523E+03  0.80699793807E+02 0.  0.
         23    2    1    2    0    0 -0.35811621846E+02  0.88770756171E+02  0.63965982710E+02  0.14734227744E+03  0.91953142227E+02 0.  0.
         11    1    3    3    0    0  0.48901928880E+02 -0.41133008143E+01  0.32302344585E+02  0.58751675359E+02  0.00000000000E+00 0. -1.
        -12    1    3    3    0    0 -0.20188227186E+02  0.37444139195E+02  0.20097622832E+02  0.47048299868E+02  0.00000000000E+00 0.  1.
        -13    1    4    4    0    0 -0.54937157800E+02  0.18684625458E+02  0.41354686967E+02  0.71255993922E+02  0.00000000000E+00 0. -1.
         13    1    4    4    0    0  0.19125535954E+02  0.70086130713E+02  0.22611295743E+02  0.76086283514E+02  0.00000000000E+00 0.  1.
          4    1    1    2  501    0  0.70979201514E+01 -0.12210159455E+03 -0.56836338737E+02  0.13486863706E+03  0.00000000000E+00 0. -1.
<scales pt_clust_5="13000.00000" pt_clust_6="13000.00000" pt_clust_7="13000.00000" pt_clust_8="13000.00000" pt_clust_9="102.52220"></scales>
<clustering>
<clus scale="   80.700">  5  6 -1 -1</clus>
<clus scale="   91.912">  2  5  1 -1</clus>
<clus scale="   91.953">  7  8 -1 -1</clus>
<clus scale="  102.522">  1  9  2 -1</clus>
<clus scale="  102.522">  1  5  2 -1</clus>
</clustering>
</event>
<event>
 9    1  0.3197504E-005  0.2177670E+03  0.7546771E-02  0.1136225E+00
          1   -1    0    0  502    0 -0.00000000000E+00  0.00000000000E+00  0.17376848416E+04  0.17376848416E+04  0.00000000000E+00 0. -1.
         21   -1    0    0  501  502  0.00000000000E+00 -0.00000000000E+00 -0.38748710867E+02  0.38748710867E+02  0.00000000000E+00 0. -1.
         23    2    1    2    0    0  0.19274567876E+03  0.11622382720E+03  0.97519662424E+03  0.10049244708E+04  0.90586210143E+02 0.  0.
        -24    2    1    2    0    0 -0.12571674128E+03 -0.11962907541E+03  0.60980890694E+03  0.63927952483E+03  0.81826604256E+02 0.  0.
         13    1    4    4    0    0 -0.11327116325E+03 -0.78000097992E+02  0.53842505451E+03  0.55571207566E+03  0.00000000000E+00 0. -1.
        -14    1    4    4    0    0 -0.12445578035E+02 -0.41628977417E+02  0.71383852434E+02  0.83567449176E+02  0.00000000000E+00 0.  1.
        -13    1    3    3    0    0  0.18315930191E+03  0.76856440362E+02  0.73657077849E+03  0.76288318504E+03  0.00000000000E+00 0. -1.
         13    1    3    3    0    0  0.95863768559E+01  0.39367386841E+02  0.23862584576E+03  0.24204128580E+03  0.00000000000E+00 0.  1.
          2    1    1    2  501    0 -0.67028937483E+02  0.34052482059E+01  0.11393059952E+03  0.13222955677E+03  0.00000000000E+00 0. -1.
<scales pt_clust_5="13000.00000" pt_clust_6="13000.00000" pt_clust_7="13000.00000" pt_clust_8="13000.00000" pt_clust_9="67.11538"></scales>
<clustering>
<clus scale="   67.115">  2  9  1 -1</clus>
<clus scale="   81.827">  5  6 -1 -1</clus>
<clus scale="   90.586">  7  8 -1 -1</clus>
<clus scale="  214.271">  2  5  1 -1</clus>
<clus scale="   67.115">  2  5  1 -1</clus>
</clustering>
</event>
<event>
 9    1  0.3197504E-005  0.9707298E+02  0.7546771E-02  0.1291258E+00
          1   -1    0    0  502    0 -0.00000000000E+00  0.00000000000E+00  0.76001856468E+03  0.76001856468E+03  0.00000000000E+00 0. -1.
         21   -1    0    0  501  502  0.00000000000E+00 -0.00000000000E+00 -0.22158574571E+02  0.22158574571E+02  0.00000000000E+00 0.  1.
         23    2    1    2    0    0  0.17479797218E+02 -0.41654833884E+02  0.44687134447E+03  0.45766703417E+03  0.87888834149E+02 0.  0.
        -24    2    1    2    0    0  0.73045422498E+01  0.33819661021E+02  0.10068766317E+03  0.13244210319E+03  0.78776769258E+02 0.  0.
         11    1    4    4    0    0 -0.33834606540E+02  0.22853166234E+02  0.65612685763E+02  0.77279184388E+02  0.00000000000E+00 0. -1.
        -12    1    4    4    0    0  0.41139148790E+02  0.10966494787E+02  0.35074977403E+02  0.55162918803E+02  0.00000000000E+00 0.  1.
        -13    1    3    3    0    0  0.13053069123E+01 -0.65307747429E+02  0.36798851188E+03  0.37374102073E+03  0.00000000000E+00 0. -1.
         13    1    3    3    0    0  0.16174490305E+02  0.23652913545E+02  0.78882832582E+02  0.83926013440E+02  0.00000000000E+00 0.  1.
          2    1    1    2  501    0 -0.24784339467E+02  0.78351728636E+01  0.19030098248E+03  0.19206800189E+03  0.00000000000E+00 0. -1.
<scales pt_clust_5="13000.00000" pt_clust_6="13000.00000" pt_clust_7="13000.00000" pt_clust_8="13000.00000" pt_clust_9="25.99335"></scales>
<clustering>
<clus scale="   25.993">  2  9  1 -1</clus>
<clus scale="   78.777">  5  6 -1 -1</clus>
<clus scale="   87.889">  7  8 -1 -1</clus>
<clus scale="   88.907">  2  5  1 -1</clus>
<clus scale="   25.993">  2  5  1 -1</clus>
</clustering>
</event>
<event>
 9    1  0.3197504E-005  0.1733398E+03  0.7546771E-02  0.1199671E+00
          1   -1    0    0  502    0 -0.00000000000E+00  0.00000000000E+00  0.61139691519E+03  0.61139691519E+03  0.00000000000E+00 0. -1.
         21   -1    0    0  501  502  0.00000000000E+00 -0.00000000000E+00 -0.13149264164E+03  0.13149264164E+03  0.00000000000E+00 0. -1.
         23    2    1    2    0    0 -0.34096965444E+02  0.12485809823E+02 -0.54124712780E+02  0.11274896289E+03  0.92001878236E+02 0.  0.
        -24    2    1    2    0    0  0.11933357844E+03  0.10620906779E+03  0.22066018081E+03  0.28437512076E+03  0.81593044355E+02 0.  0.
         11    1    4    4    0    0  0.68841969330E+02  0.10886816988E+03  0.15688044256E+03  0.20298514333E+03  0.00000000000E+00 0. -1.
        -12    1    4    4    0    0  0.50491609114E+02 -0.26591020924E+01  0.63779738251E+02  0.81389977431E+02  0.00000000000E+00 0.  1.
        -11    1    3    3    0    0  0.77244703840E+01 -0.28203287300E+02  0.50160769173E+01  0.29669072868E+02  0.00000000000E+00 0.  1.
         11    1    3    3    0    0 -0.41821435828E+02  0.40689097122E+02 -0.59140789698E+02  0.83079890018E+02  0.00000000000E+00 0. -1.
          2    1    1    2  501    0 -0.85236613000E+02 -0.11869487761E+03  0.31336880552E+03  0.34576547318E+03  0.00000000000E+00 0. -1.
<scales pt_clust_5="13000.00000" pt_clust_6="13000.00000" pt_clust_7="13000.00000" pt_clust_8="13000.00000" pt_clust_9="152.93555"></scales>
<clustering>
<clus scale="   81.593">  5  6 -1 -1</clus>
<clus scale="   92.002">  7  8 -1 -1</clus>
<clus scale="   98.908">  1  7  2 -1</clus>
<clus scale="  152.936">  2  9  1 -1</clus>
<clus scale="  152.936">  2  5  1 -1</clus>
</clustering>
</event>
<event>
 9    1  0.3197504E-005  0.1248438E+03  0.7546771E-02  0.1240374E+00
          1   -1    0    0  502    0 -0.00000000000E+00  0.00000000000E+00  0.15420510693E+03  0.15420510693E+03  0.00000000000E+00 0. -1.
         21   -1    0    0  501  502  0.00000000000E+00 -0.00000000000E+00 -0.23916520685E+03  0.23916520685E+03  0.00000000000E+00 0. -1.
        -24    2    1    2    0    0  0.83176725469E+02  0.45927767408E+02 -0.19543272327E+02  0.12359791161E+03  0.76594887447E+02 0.  0.
         23    2    1    2    0    0 -0.31839458766E+01 -0.89288162550E+02 -0.10868730320E+03  0.16901872871E+03  0.93658354113E+02 0.  0.
         13    1    3    3    0    0  0.30178057003E+02  0.59411689650E+02 -0.17389669424E+02  0.68868458631E+02  0.00000000000E+00 0. -1.
        -14    1    3    3    0    0  0.52998668466E+02 -0.13483922242E+02 -0.21536029026E+01  0.54729452982E+02  0.00000000000E+00 0.  1.
        -13    1    4    4    0    0  0.13434479618E+02 -0.10410401755E+03 -0.10042896839E+03  0.14527253493E+03  0.00000000000E+00 0. -1.
         13    1    4    4    0    0 -0.16618425495E+02  0.14815854999E+02 -0.82583348050E+01  0.23746193780E+02  0.00000000000E+00 0.  1.
          2    1    1    2  501    0 -0.79992779593E+02  0.43360395142E+02  0.43270475607E+02  0.10075367345E+03  0.00000000000E+00 0. -1.
<scales pt_clust_5="13000.00000" pt_clust_6="13000.00000" pt_clust_7="13000.00000" pt_clust_8="13000.00000" pt_clust_9="90.98888"></scales>
<clustering>
<clus scale="   76.595">  5  6 -1 -1</clus>
<clus scale="   90.989">  2  9  1 -1</clus>
<clus scale="   93.658">  7  8 -1 -1</clus>
<clus scale="  112.609">  1  5  2 -1</clus>
<clus scale="   90.989">  2  5  1 -1</clus>
</clustering>
</event>
<event>
 9    1  0.3197504E-005  0.1425314E+03  0.7546771E-02  0.1212308E+00
         21   -1    0    0  501  502  0.00000000000E+00  0.00000000000E+00  0.15199264542E+03  0.15199264542E+03  0.00000000000E+00 0. -1.
         -4   -1    0    0    0  501 -0.00000000000E+00 -0.00000000000E+00 -0.31394443476E+03  0.31394443476E+03  0.00000000000E+00 0.  1.
        -24    2    1    2    0    0  0.40275563737E+02 -0.10846743952E+03 -0.11453613722E+03  0.18155225827E+03  0.80345437226E+02 0.  0.
         23    2    1    2    0    0 -0.13063429201E+03  0.33565150733E+02 -0.26967737905E+02  0.16524973120E+03  0.91587538353E+02 0.  0.
         13    1    3    3    0    0  0.46158229429E+02 -0.23822742101E+02 -0.23208197558E+02  0.56892228108E+02  0.00000000000E+00 0. -1.
        -14    1    3    3    0    0 -0.58826656916E+01 -0.84644697417E+02 -0.91327939667E+02  0.12466003016E+03  0.00000000000E+00 0.  1.
        -11    1    4    4    0    0 -0.43389006350E+02 -0.11411626731E+02  0.27867524776E+02  0.52815054992E+02  0.00000000000E+00 0. -1.
         11    1    4    4    0    0 -0.87245285660E+02  0.44976777463E+02 -0.54835262681E+02  0.11243467621E+03  0.00000000000E+00 0.  1.
         -3    1    1    2    0  502  0.90358728274E+02  0.74902288786E+02 -0.20447914210E+02  0.11913509070E+03  0.00000000000E+00 0.  1.
<scales pt_clust_5="13000.00000" pt_clust_6="13000.00000" pt_clust_7="13000.00000" pt_clust_8="13000.00000" pt_clust_9="117.36717"></scales>
<clustering>
<clus scale="   80.345">  5  6 -1 -1</clus>
<clus scale="   91.588">  7  8 -1 -1</clus>
<clus scale="  117.367">  1  9  2 -1</clus>
<clus scale="  135.581">  2  5  1 -1</clus>
<clus scale="  117.367">  1  5  2 -1</clus>
</clustering>
</event>
<event>
 9    1  0.3197504E-005  0.9284234E+02  0.7546771E-02  0.1311825E+00
         21   -1    0    0  501  502  0.00000000000E+00  0.00000000000E+00  0.19666113317E+03  0.19666113317E+03  0.00000000000E+00 0.  1.
          3   -1    0    0  502    0 -0.00000000000E+00 -0.00000000000E+00 -0.91253074056E+02  0.91253074056E+02  0.00000000000E+00 0. -1.
        -24    2    1    2    0    0  0.20849503707E+02  0.89989030114E+01 -0.18231084778E+02  0.72032602799E+02  0.65883543875E+02 0.  0.
         23    2    1    2    0    0 -0.29721500950E+02  0.25649211373E+02  0.14429869459E+03  0.17457759493E+03  0.90077598375E+02 0.  0.
         13    1    3    3    0    0  0.42074984501E+02  0.18561652385E+02 -0.83361952191E+01  0.46736831416E+02  0.00000000000E+00 0. -1.
        -14    1    3    3    0    0 -0.21225480794E+02 -0.95627493736E+01 -0.98948895587E+01  0.25295771384E+02  0.00000000000E+00 0.  1.
        -11    1    4    4    0    0  0.25943623362E+02  0.10270408662E+02  0.12289799328E+02  0.30489212105E+02  0.00000000000E+00 0. -1.
         11    1    4    4    0    0 -0.55665124313E+02  0.15378802711E+02  0.13200889526E+03  0.14408838282E+03  0.00000000000E+00 0.  1.
          4    1    1    2  501    0  0.88719972430E+01 -0.34648114384E+02 -0.20659550697E+02  0.41304009496E+02  0.00000000000E+00 0. -1.
<scales pt_clust_5="13000.00000" pt_clust_6="13000.00000" pt_clust_7="13000.00000" pt_clust_8="13000.00000" pt_clust_9="35.76598"></scales>
<clustering>
<clus scale="   35.766">  1  9  2 -1</clus>
<clus scale="   65.884">  5  6 -1 -1</clus>
<clus scale="   69.616">  2  5  1 -1</clus>
<clus scale="   90.078">  7  8 -1 -1</clus>
<clus scale="   35.766">  1  5  2 -1</clus>
</clustering>
</event>
<event>
 9    1  0.3197504E-005  0.1472140E+03  0.7546771E-02  0.1206530E+00
          1   -1    0    0  502    0 -0.00000000000E+00  0.00000000000E+00  0.52373868346E+03  0.52373868346E+03  0.00000000000E+00 0. -1.
         21   -1    0    0  501  502  0.00000000000E+00 -0.00000000000E+00 -0.81046392359E+02  0.81046392359E+02  0.00000000000E+00 0. -1.
        -24    2    1    2    0    0  0.90423365764E+02 -0.79706222604E+02  0.33282435070E+03  0.36323736960E+03  0.81485405172E+02 0.  0.
         23    2    1    2    0    0 -0.24673497376E+02  0.98325180017E+02  0.40970805053E+02  0.14450892002E+03  0.94485970390E+02 0.  0.
         11    1    3    3    0    0  0.10413473176E+03 -0.65983458589E+02  0.25801608592E+03  0.28595482118E+03  0.00000000000E+00 0. -1.
        -12    1    3    3    0    0 -0.13711365995E+02 -0.13722764014E+02  0.74808264787E+02  0.77282548418E+02  0.00000000000E+00 0.  1.
        -13    1    4    4    0    0 -0.12211119825E+02  0.21830176643E+02  0.59739871283E+02  0.64765116233E+02  0.00000000000E+00 0.  1.
         13    1    4    4    0    0 -0.12462377550E+02  0.76495003373E+02 -0.18769066230E+02  0.79743803787E+02  0.00000000000E+00 0. -1.
          2    1    1    2  501    0 -0.65749868388E+02 -0.18618957413E+02  0.68897135347E+02  0.97038786201E+02  0.00000000000E+00 0. -1.
<scales pt_clust_5="13000.00000" pt_clust_6="13000.00000" pt_clust_7="13000.00000" pt_clust_8="13000.00000" pt_clust_9="68.33528"></scales>
<clustering>
<clus scale="   68.335">  2  9  1 -1</clus>
<clus scale="   81.485">  5  6 -1 -1</clus>
<clus scale="   94.486">  7  8 -1 -1</clus>
<clus scale="  139.227">  1  5  2 -1</clus>
<clus scale="   68.335">  2  5  1 -1</clus>
</clustering>
</event>
<event>
 9    1  0.3197504E-005  0.1713420E+03  0.7546771E-02  0.1206064E+00
          1   -1    0    0  502    0 -0.00000000000E+00  0.00000000000E+00  0.72665235673E+03  0.72665235673E+03  0.00000000000E+00 0. -1.
         21   -1    0    0  501  502  0.00000000000E+00 -0.00000000000E+00 -0.30188580946E+03  0.30188580946E+03  0.00000000000E+00 0. -1.
        -24    2    1    2    0    0 -0.38725429317E+02 -0.19806431157E+02  0.11019166804E+02  0.89871622529E+02  0.77868690165E+02 0.  0.
         23    2    1    2    0    0 -0.82345297355E+02  0.11832135361E+03 -0.22412029128E+03  0.28197904000E+03  0.92204030938E+02 0.  0.
         11    1    3    3    0    0 -0.26035797224E+02 -0.49087382629E+02 -0.15166155417E+01  0.55585375713E+02  0.00000000000E+00 0. -1.
        -12    1    3    3    0    0 -0.12689632092E+02  0.29280951472E+02  0.12535782345E+02  0.34286246816E+02  0.00000000000E+00 0.  1.
        -13    1    4    4    0    0 -0.38052537253E+02  0.10791165184E+03 -0.10832993588E+03  0.15756996922E+03  0.00000000000E+00 0.  1.
         13    1    4    4    0    0 -0.44292760102E+02  0.10409701776E+02 -0.11579035540E+03  0.12440907078E+03  0.00000000000E+00 0. -1.
          2    1    1    2  501    0  0.12107072667E+03 -0.98514922456E+02  0.63786767175E+03  0.65668750366E+03  0.00000000000E+00 0. -1.
<scales pt_clust_5="13000.00000" pt_clust_6="13000.00000" pt_clust_7="13000.00000" pt_clust_8="13000.00000" pt_clust_9="144.41781"></scales>
<clustering>
<clus scale="   77.869">  5  6 -1 -1</clus>
<clus scale="   89.194">  1  5  2 -1</clus>
<clus scale="   92.204">  7  8 -1 -1</clus>
<clus scale="  144.418">  2  9  1 -1</clus>
<clus scale="  144.418">  2  5  1 -1</clus>
</clustering>
</event>
<event>
 9    1  0.3197504E-005  0.9317877E+02  0.7546771E-02  0.1302155E+00
         21   -1    0    0  501  502  0.00000000000E+00  0.00000000000E+00  0.51597042669E+02  0.51597042669E+02  0.00000000000E+00 0.  1.
         -2   -1    0    0    0  501 -0.00000000000E+00 -0.00000000000E+00 -0.33355773170E+03  0.33355773170E+03  0.00000000000E+00 0.  1.
         23    2    1    2    0    0  0.84268908279E+01 -0.20660482247E+02 -0.16486789615E+03  0.18954151714E+03  0.90811318257E+02 0.  0.
        -24    2    1    2    0    0 -0.37934218202E+02 -0.77194891669E+01 -0.20531329229E+02  0.90731316890E+02  0.79448354050E+02 0.  0.
         11    1    4    4    0    0 -0.11030635453E+02 -0.40480382735E+02 -0.23759348268E+02  0.48216625089E+02  0.00000000000E+00 0. -1.
        -12    1    4    4    0    0 -0.26903582749E+02  0.32760893568E+02  0.32280190390E+01  0.42514691802E+02  0.00000000000E+00 0.  1.
        -11    1    3    3    0    0  0.10255237399E+02  0.35679445298E+02 -0.63613889992E+02  0.73654054273E+02  0.00000000000E+00 0.  1.
         11    1    3    3    0    0 -0.18283465712E+01 -0.56339927545E+02 -0.10125400616E+03  0.11588746287E+03  0.00000000000E+00 0. -1.
         -1    1    1    2    0  502  0.29507327374E+02  0.28379971414E+02 -0.96561463655E+02  0.10488194034E+03  0.00000000000E+00 0.  1.
<scales pt_clust_5="13000.00000" pt_clust_6="13000.00000" pt_clust_7="13000.00000" pt_clust_8="13000.00000" pt_clust_9="40.94028"></scales>
<clustering>
<clus scale="   40.940">  1  9  2 -1</clus>
<clus scale="   79.448">  5  6 -1 -1</clus>
<clus scale="   82.144">  1  5  2 -1</clus>
<clus scale="   90.811">  7  8 -1 -1</clus>
<clus scale="   40.940">  1  5  2 -1</clus>
</clustering>
</event>
<event>
 9    1  0.3197504E-005  0.2454872E+03  0.7546771E-02  0.1129159E+00
         21   -1    0    0  501  502  0.00000000000E+00  0.00000000000E+00  0.81947520116E+02  0.81947520116E+02  0.00000000000E+00 0.  1.
          1   -1    0    0  502    0 -0.00000000000E+00 -0.00000000000E+00 -0.15676735712E+04  0.15676735712E+04  0.00000000000E+00 0. -1.
        -24    2    1    2    0    0  0.15334882162E+03  0.39029707322E+02 -0.64309998650E+03  0.66721773432E+03  0.81010698128E+02 0.  0.
         23    2    1    2    0    0 -0.21011520892E+03 -0.21814810427E+03 -0.49983413799E+03  0.59149143879E+03  0.91054710163E+02 0.  0.
         11    1    3    3    0    0  0.34225617644E+02  0.29714193209E+02 -0.83549586278E+02  0.95051878195E+02  0.00000000000E+00 0. -1.
        -12    1    3    3    0    0  0.11912320398E+03  0.93155141128E+01 -0.55955040022E+03  0.57216585613E+03  0.00000000000E+00 0.  1.
        -13    1    4    4    0    0 -0.20173548558E+03 -0.16172110055E+03 -0.42364862074E+03  0.49631549881E+03  0.00000000000E+00 0.  1.
         13    1    4    4    0    0 -0.83797233457E+01 -0.56427003719E+02 -0.76185517247E+02  0.95175939976E+02  0.00000000000E+00 0. -1.
          2    1    1    2  501    0  0.56766387300E+02  0.17911839695E+03 -0.34279192657E+03  0.39091191818E+03  0.00000000000E+00 0. -1.
<scales pt_clust_5="13000.00000" pt_clust_6="13000.00000" pt_clust_7="13000.00000" pt_clust_8="13000.00000" pt_clust_9="227.97592"></scales>
<clustering>
<clus scale="   81.011">  5  6 -1 -1</clus>
<clus scale="   91.055">  7  8 -1 -1</clus>
<clus scale="  177.769">  2  5  1 -1</clus>
<clus scale="  227.976">  1  9  2 -1</clus>
<clus scale="  227.976">  1  5  2 -1</clus>
</clustering>
</event>
<event>
 9    1  0.3197504E-005  0.9909091E+02  0.7546771E-02  0.1285676E+00
         21   -1    0    0  501  502  0.00000000000E+00  0.00000000000E+00  0.84887712708E+02  0.84887712708E+02  0.00000000000E+00 0. -1.
         -4   -1    0    0    0  501 -0.00000000000E+00 -0.00000000000E+00 -0.20683300083E+03  0.20683300083E+03  0.00000000000E+00 0.  1.
        -24    2    1    2    0    0  0.35387449353E+02 -0.45253781034E+02 -0.86730028601E+02  0.13297095762E+03  0.82819088618E+02 0.  0.
         23    2    1    2    0    0  0.15886387992E+02  0.22995258414E+02 -0.26878404140E+01  0.94077650500E+02  0.89789869164E+02 0.  0.
         11    1    3    3    0    0  0.58046619886E+02 -0.18813335671E+02 -0.34206636994E+02  0.69953167860E+02  0.00000000000E+00 0. -1.
        -12    1    3    3    0    0 -0.22659170533E+02 -0.26440445363E+02 -0.52523391607E+02  0.63017789759E+02  0.00000000000E+00 0.  1.
        -11    1    4    4    0    0 -0.50484038990E+01  0.55066479083E+02  0.28977859151E+01  0.55373284748E+02  0.00000000000E+00 0. -1.
         11    1    4    4    0    0  0.20934791891E+02 -0.32071220670E+02 -0.55856263291E+01  0.38704365752E+02  0.00000000000E+00 0.  1.
         -3    1    1    2    0  502 -0.51273837345E+02  0.22258522621E+02 -0.32527419104E+02  0.64672105415E+02  0.00000000000E+00 0.  1.
<scales pt_clust_5="13000.00000" pt_clust_6="13000.00000" pt_clust_7="13000.00000" pt_clust_8="13000.00000" pt_clust_9="55.89679"></scales>
<clustering>
<clus scale="   55.897">  1  9  2 -1</clus>
<clus scale="   82.819">  5  6 -1 -1</clus>
<clus scale="   89.790">  7  8 -1 -1</clus>
<clus scale="   92.821">  2  5  1 -1</clus>
<clus scale="   55.897">  1  5  2 -1</clus>
</clustering>
</event>
<event>
 9    1  0.3197504E-005  0.2229635E+03  0.7546771E-02  0.1132608E+00
         21   -1    0    0  501  502  0.00000000000E+00  0.00000000000E+00  0.49536405061E+03  0.49536405061E+03  0.00000000000E+00 0. -1.
          1   -1    0    0  502    0 -0.00000000000E+00 -0.00000000000E+00 -0.22302795424E+03  0.22302795424E+03  0.00000000000E+00 0. -1.
        -24    2    1    2    0    0  0.34194436855E+01  0.21127191848E+03 -0.11716677379E+03  0.25442202904E+03  0.79718252912E+02 0.  0.
         23    2    1    2    0    0  0.52261088429E+01 -0.16979195662E+03  0.23797143990E+03  0.30662606213E+03  0.92371613743E+02 0.  0.
         11    1    3    3    0    0  0.14098224854E+02  0.16250909626E+03 -0.49752927195E+02  0.17053832436E+03  0.00000000000E+00 0. -1.
        -12    1    3    3    0    0 -0.10678781169E+02  0.48762822225E+02 -0.67413846599E+02  0.83883704686E+02  0.00000000000E+00 0.  1.
        -11    1    4    4    0    0  0.40521702993E+02 -0.35113250597E+02  0.56399310580E+02  0.77819220086E+02  0.00000000000E+00 0.  1.
         11    1    4    4    0    0 -0.35295594150E+02 -0.13467870602E+03  0.18157212932E+03  0.22880684205E+03  0.00000000000E+00 0. -1.
          2    1    1    2  501    0 -0.86455525283E+01 -0.41479961861E+02  0.15153143026E+03  0.15734391368E+03  0.00000000000E+00 0. -1.
<scales pt_clust_5="13000.00000" pt_clust_6="13000.00000" pt_clust_7="13000.00000" pt_clust_8="13000.00000" pt_clust_9="42.37137"></scales>
<clustering>
<clus scale="   42.371">  1  9  2 -1</clus>
<clus scale="   79.718">  5  6 -1 -1</clus>
<clus scale="   92.372">  7  8 -1 -1</clus>
<clus scale="  218.026">  2  5  1 -1</clus>
<clus scale="   42.371">  1  5  2 -1</clus>
</clustering>
</event>
<event>
 9    1  0.3197504E-005  0.1320269E+03  0.7546771E-02  0.1237296E+00
          1   -1    0    0  502    0 -0.00000000000E+00  0.00000000000E+00  0.95618983887E+03  0.95618983887E+03  0.00000000000E+00 0. -1.
         21   -1    0    0  501  502  0.00000000000E+00 -0.00000000000E+00 -0.32234558270E+02  0.32234558270E+02  0.00000000000E+00 0.  1.
        -24    2    1    2    0    0 -0.28802856538E+02  0.28323953671E+02  0.71802436916E+03  0.72540503375E+03  0.94982195138E+02 0.  0.
         23    2    1    2    0    0 -0.22942212281E+01 -0.10901111915E+02  0.16731223723E+03  0.21046476646E+03  0.12719251354E+03 0.  0.
         11    1    3    3    0    0 -0.46339900427E+02 -0.19576831760E+02  0.28733419112E+03  0.29170460418E+03  0.00000000000E+00 0. -1.
        -12    1    3    3    0    0  0.17537043889E+02  0.47900785431E+02  0.43069017804E+03  0.43370042958E+03  0.00000000000E+00 0.  1.
        -13    1    4    4    0    0  0.23780246121E+00  0.54074395328E+02  0.39179164853E+02  0.66776520863E+02  0.00000000000E+00 0.  1.
         13    1    4    4    0    0 -0.25320236893E+01 -0.64975507242E+02  0.12813307238E+03  0.14368824560E+03  0.00000000000E+00 0. -1.
          2    1    1    2  501    0  0.31097077766E+02 -0.17422841756E+02  0.38618674213E+02  0.52554596929E+02  0.00000000000E+00 0. -1.
<scales pt_clust_5="13000.00000" pt_clust_6="13000.00000" pt_clust_7="13000.00000" pt_clust_8="13000.00000" pt_clust_9="35.64525"></scales>
<clustering>
<clus scale="   35.645">  2  9  1 -1</clus>
<clus scale="   94.982">  5  6 -1 -1</clus>
<clus scale="  101.365">  1  5  2 -1</clus>
<clus scale="  127.193">  7  8 -1 -1</clus>
<clus scale="   35.645">  2  5  1 -1</clus>
</clustering>
</event>
<event>
 9    1  0.3197504E-005  0.9410205E+02  0.7546771E-02  0.1298353E+00
          3   -1    0    0  502    0 -0.00000000000E+00  0.00000000000E+00  0.29748292616E+03  0.29748292616E+03  0.00000000000E+00 0. -1.
         21   -1    0    0  501  502  0.00000000000E+00 -0.00000000000E+00 -0.76920595051E+02  0.76920595051E+02  0.00000000000E+00 0. -1.
         23    2    1    2    0    0  0.30988016830E+02  0.75593206650E+01  0.17679005218E+03  0.20213535946E+03  0.92663803486E+02 0.  0.
        -24    2    1    2    0    0  0.16058345864E+02  0.33017686485E+02  0.58115140721E+02  0.10850632805E+03  0.83953651224E+02 0.  0.
         11    1    4    4    0    0  0.29351408228E+02 -0.20877421788E+02  0.25381276842E+02  0.44063376172E+02  0.00000000000E+00 0. -1.
        -12    1    4    4    0    0 -0.13293062364E+02  0.53895108273E+02  0.32733863878E+02  0.64442951881E+02  0.00000000000E+00 0.  1.
        -13    1    3    3    0    0  0.63542595029E+02  0.92588245273E+01  0.13141233036E+03  0.14626205176E+03  0.00000000000E+00 0. -1.
         13    1    3    3    0    0 -0.32554578200E+02 -0.16995038623E+01  0.45377721820E+02  0.55873307694E+02  0.00000000000E+00 0.  1.
          4    1    1    2  501    0 -0.47046362694E+02 -0.40577007150E+02 -0.14342861796E+02  0.63761833698E+02  0.00000000000E+00 0. -1.
<scales pt_clust_5="13000.00000" pt_clust_6="13000.00000" pt_clust_7="13000.00000" pt_clust_8="13000.00000" pt_clust_9="62.12772"></scales>
<clustering>
<clus scale="   62.128">  2  9  1 -1</clus>
<clus scale="   83.954">  5  6 -1 -1</clus>
<clus scale="   85.538">  2  5  1 -1</clus>
<clus scale="   92.664">  7  8 -1 -1</clus>
<clus scale="   62.128">  2  5  1 -1</clus>
</clustering>
</event>
<event>
 9    1  0.3197504E-005  0.1536584E+03  0.7546771E-02  0.1213492E+00
         -2   -1    0    0    0  501 -0.00000000000E+00  0.00000000000E+00  0.18875229960E+03  0.18875229960E+03  0.00000000000E+00 0.  1.
         21   -1    0    0  501  502  0.00000000000E+00 -0.00000000000E+00 -0.43853251142E+03  0.43853251142E+03  0.00000000000E+00 0.  1.
        -24    2    1    2    0    0 -0.60270402603E+02 -0.33054767759E+02  0.56151682484E+02  0.11953229010E+03  0.80061337919E+02 0.  0.
         23    2    1    2    0    0  0.23379124946E+02 -0.88928021942E+02  0.41696277634E+02  0.13750110191E+03  0.93344506470E+02 0.  0.
         13    1    3    3    0    0 -0.19380205115E+02  0.17621319372E+02 -0.87299316913E+01  0.27610051684E+02  0.00000000000E+00 0. -1.
        -14    1    3    3    0    0 -0.40890197489E+02 -0.50676087130E+02  0.64881614175E+02  0.91922238417E+02  0.00000000000E+00 0.  1.
        -11    1    4    4    0    0  0.33913417301E+02 -0.33508642356E+02 -0.21922201646E+02  0.52474107049E+02  0.00000000000E+00 0. -1.
         11    1    4    4    0    0 -0.10534292355E+02 -0.55419379587E+02  0.63618479280E+02  0.85026994861E+02  0.00000000000E+00 0.  1.
         -1    1    1    2    0  502  0.36891277657E+02  0.12198278970E+03 -0.34762817194E+03  0.37025141901E+03  0.00000000000E+00 0.  1.
<scales pt_clust_5="13000.00000" pt_clust_6="13000.00000" pt_clust_7="13000.00000" pt_clust_8="13000.00000" pt_clust_9="122.05612"></scales>
<clustering>
<clus scale="   80.061">  5  6 -1 -1</clus>
<clus scale="   93.345">  7  8 -1 -1</clus>
<clus scale="  105.522">  1  5  2 -1</clus>
<clus scale="  122.056">  2  9  1 -1</clus>
<clus scale="  122.056">  2  5  1 -1</clus>
</clustering>
</event>
<event>
 9    1  0.3197504E-005  0.1760662E+03  0.7546771E-02  0.1190617E+00
         21   -1    0    0  501  502  0.00000000000E+00  0.00000000000E+00  0.13011495929E+03  0.13011495929E+03  0.00000000000E+00 0. -1.
          1   -1    0    0  502    0 -0.00000000000E+00 -0.00000000000E+00 -0.69287129826E+03  0.69287129826E+03  0.00000000000E+00 0. -1.
         23    2    1    2    0    0  0.44549554918E+02  0.38185584386E+02  0.47395932227E+02  0.12446258608E+03  0.99003834489E+02 0.  0.
        -24    2    1    2    0    0 -0.89232342914E+02  0.12359271727E+03 -0.28982807884E+03  0.33689353080E+03  0.79116148972E+02 0.  0.
         11    1    4    4    0    0 -0.84324569192E+02  0.11758445898E+03 -0.29429428443E+03  0.32794186041E+03  0.00000000000E+00 0. -1.
        -12    1    4    4    0    0 -0.49077737217E+01  0.60082582892E+01  0.44662055821E+01  0.89516703957E+01  0.00000000000E+00 0.  1.
        -13    1    3    3    0    0  0.21008868453E+02  0.67222931656E+02  0.50930486631E+02  0.86914955920E+02  0.00000000000E+00 0. -1.
         13    1    3    3    0    0  0.23540686465E+02 -0.29037347270E+02 -0.35345544041E+01  0.37547630159E+02  0.00000000000E+00 0.  1.
          2    1    1    2  501    0  0.44682787995E+02 -0.16177830165E+03 -0.32032419236E+03  0.36163014067E+03  0.00000000000E+00 0. -1.
<scales pt_clust_5="13000.00000" pt_clust_6="13000.00000" pt_clust_7="13000.00000" pt_clust_8="13000.00000" pt_clust_9="157.28944"></scales>
<clustering>
<clus scale="   79.116">  5  6 -1 -1</clus>
<clus scale="   99.004">  7  8 -1 -1</clus>
<clus scale="  115.085">  2  7  1 -1</clus>
<clus scale="  157.289">  1  9  2 -1</clus>
<clus scale="  157.289">  1  5  2 -1</clus>
</clustering>
</event>
<event>
 9    1  0.3197504E-005  0.1037804E+03  0.7546771E-02  0.1274921E+00
         21   -1    0    0  501  502  0.00000000000E+00  0.00000000000E+00  0.18284312125E+03  0.18284312125E+03  0.00000000000E+00 0.  1.
         -2   -1    0    0    0  501 -0.00000000000E+00 -0.00000000000E+00 -0.10807335758E+03  0.10807335758E+03  0.00000000000E+00 0.  1.
        -24    2    1    2    0    0 -0.30030926962E+02 -0.50151702958E+02  0.17639860524E+02  0.10166830145E+03  0.81291013992E+02 0.  0.
         23    2    1    2    0    0  0.73663663012E+02  0.19513868455E+01  0.47858822718E+02  0.12357444549E+03  0.86890928794E+02 0.  0.
         11    1    3    3    0    0  0.26045905992E+02 -0.24339925837E+02 -0.48291760503E+01  0.35974187274E+02  0.00000000000E+00 0. -1.
        -12    1    3    3    0    0 -0.56076832954E+02 -0.25811777121E+02  0.22469036574E+02  0.65694114172E+02  0.00000000000E+00 0.  1.
        -11    1    4    4    0    0  0.89310100932E+02  0.16489210893E+02  0.46852933623E+02  0.10219288426E+03  0.00000000000E+00 0.  1.
         11    1    4    4    0    0 -0.15646437921E+02 -0.14537824048E+02  0.10058890952E+01  0.21381561227E+02  0.00000000000E+00 0. -1.
         -1    1    1    2    0  502 -0.43632736050E+02  0.48200316113E+02  0.92710804337E+01  0.65673731895E+02  0.00000000000E+00 0.  1.
<scales pt_clust_5="13000.00000" pt_clust_6="13000.00000" pt_clust_7="13000.00000" pt_clust_8="13000.00000" pt_clust_9="65.01608"></scales>
<clustering>
<clus scale="   65.016">  1  9  2 -1</clus>
<clus scale="   81.291">  5  6 -1 -1</clus>
<clus scale="   86.891">  7  8 -1 -1</clus>
<clus scale="   99.139">  2  5  1 -1</clus>
<clus scale="   65.016">  1  5  2 -1</clus>
</clustering>
</event>
<event>
 9    1  0.3197504E-005  0.1463813E+03  0.7546771E-02  0.1225509E+00
         21   -1    0    0  501  502  0.00000000000E+00  0.00000000000E+00  0.19542527304E+03  0.19542527304E+03  0.00000000000E+00 0.  1.
         -2   -1    0    0    0  501 -0.00000000000E+00 -0.00000000000E+00 -0.18335098720E+03  0.18335098720E+03  0.00000000000E+00 0.  1.
         23    2    1    2    0    0 -0.14948177344E+02  0.22279294467E+02 -0.37163830970E+02  0.10183819565E+03  0.90939830615E+02 0.  0.
        -24    2    1    2    0    0  0.13298723906E+03 -0.13432942101E+02  0.30463824571E+02  0.15708835833E+03  0.76698487788E+02 0.  0.
         13    1    4    4    0    0  0.21161964292E+02  0.27752757766E+02  0.83471635090E+01  0.35884807858E+02  0.00000000000E+00 0. -1.
        -14    1    4    4    0    0  0.11182527477E+03 -0.41185699868E+02  0.22116661062E+02  0.12120355047E+03  0.00000000000E+00 0.  1.
        -11    1    3    3    0    0  0.11387307903E+02 -0.23405627240E+02 -0.41436416221E+02  0.48933329715E+02  0.00000000000E+00 0. -1.
         11    1    3    3    0    0 -0.26335485247E+02  0.45684921707E+02  0.42725852503E+01  0.52904865932E+02  0.00000000000E+00 0.  1.
         -1    1    1    2    0  502 -0.11803906172E+03 -0.88463523653E+01  0.18774292232E+02  0.11984970626E+03  0.00000000000E+00 0.  1.
<scales pt_clust_5="13000.00000" pt_clust_6="13000.00000" pt_clust_7="13000.00000" pt_clust_8="13000.00000" pt_clust_9="124.67888"></scales>
<clustering>
<clus scale="   76.698">  5  6 -1 -1</clus>
<clus scale="   90.940">  7  8 -1 -1</clus>
<clus scale="   94.815">  2  7  1 -1</clus>
<clus scale="  124.679">  1  9  2 -1</clus>
<clus scale="  124.679">  1  5  2 -1</clus>
</clustering>
</event>
<event>
 9    1  0.3197504E-005  0.1488943E+03  0.7546771E-02  0.1228347E+00
         21   -1    0    0  501  502  0.00000000000E+00  0.00000000000E+00  0.80836409413E+02  0.80836409413E+02  0.00000000000E+00 0.  1.
         -2   -1    0    0    0  501 -0.00000000000E+00 -0.00000000000E+00 -0.38955963551E+03  0.38955963551E+03  0.00000000000E+00 0.  1.
        -24    2    1    2    0    0 -0.99925259247E+01 -0.27755313430E+02 -0.87409845888E+02  0.12188283824E+03  0.79653858037E+02 0.  0.
         23    2    1    2    0    0  0.11509940416E+03 -0.26978682362E+02 -0.10693127370E+03  0.18381186353E+03  0.91524760267E+02 0.  0.
         11    1    3    3    0    0 -0.15639436069E+02  0.20090745946E+02 -0.62838809641E+02  0.67800781930E+02  0.00000000000E+00 0. -1.
        -12    1    3    3    0    0  0.56469101444E+01 -0.47846059376E+02 -0.24571036247E+02  0.54082056306E+02  0.00000000000E+00 0.  1.
        -11    1    4    4    0    0  0.11420033239E+03  0.32863802151E+01 -0.63027947163E+02  0.13048003042E+03  0.00000000000E+00 0. -1.
         11    1    4    4    0    0  0.89907176240E+00 -0.30265062577E+02 -0.43903326536E+02  0.53331833118E+02  0.00000000000E+00 0.  1.
         -1    1    1    2    0  502 -0.10510687823E+03  0.54733995792E+02 -0.11438210650E+03  0.16470134315E+03  0.00000000000E+00 0.  1.
<scales pt_clust_5="13000.00000" pt_clust_6="13000.00000" pt_clust_7="13000.00000" pt_clust_8="13000.00000" pt_clust_9="117.44249"></scales>
<clustering>
<clus scale="   79.654">  5  6 -1 -1</clus>
<clus scale="   84.941">  2  5  1 -1</clus>
<clus scale="   91.525">  7  8 -1 -1</clus>
<clus scale="  117.442">  1  9  2 -1</clus>
<clus scale="  117.442">  1  5  2 -1</clus>
</clustering>
</event>
<event>
 9    1  0.3197504E-005  0.1617455E+03  0.7546771E-02  0.1211503E+00
          1   -1    0    0  502    0 -0.00000000000E+00  0.00000000000E+00  0.10223187302E+04  0.10223187302E+04  0.00000000000E+00 0. -1.
         21   -1    0    0  501  502  0.00000000000E+00 -0.00000000000E+00 -0.12246565549E+03  0.12246565549E+03  0.00000000000E+00 0.  1.
        -24    2    1    2    0    0  0.15675831055E+02 -0.39129101126E+02 -0.31872778812E+02  0.99616670247E+02  0.84443997583E+02 0.  0.
         23    2    1    2    0    0  0.10192278084E+02 -0.12957535828E+03  0.80095998931E+02  0.17660351923E+03  0.88768113385E+02 0.  0.
         13    1    3    3    0    0  0.50148131984E+02 -0.25175892531E+02 -0.11740888858E+02  0.57328083671E+02  0.00000000000E+00 0. -1.
        -14    1    3    3    0    0 -0.34472300929E+02 -0.13953208595E+02 -0.20131889954E+02  0.42288586576E+02  0.00000000000E+00 0.  1.
        -11    1    4    4    0    0  0.48072848450E+02 -0.51737055817E+02  0.31508183046E+02  0.77333610426E+02  0.00000000000E+00 0. -1.
         11    1    4    4    0    0 -0.37880570365E+02 -0.77838302468E+02  0.48587815885E+02  0.99269908808E+02  0.00000000000E+00 0.  1.
          2    1    1    2  501    0 -0.25868109139E+02  0.16870445941E+03  0.85162985457E+03  0.86856419618E+03  0.00000000000E+00 0. -1.
<scales pt_clust_5="13000.00000" pt_clust_6="13000.00000" pt_clust_7="13000.00000" pt_clust_8="13000.00000" pt_clust_9="135.21038"></scales>
<clustering>
<clus scale="   84.444">  5  6 -1 -1</clus>
<clus scale="   88.768">  7  8 -1 -1</clus>
<clus scale="   94.380">  1  5  2 -1</clus>
<clus scale="  135.210">  2  9  1 -1</clus>
<clus scale="  135.210">  2  5  1 -1</clus>
</clustering>
</event>
<event>
 9    1  0.3197504E-005  0.9860790E+02  0.7546771E-02  0.1290442E+00
         21   -1    0    0  501  502  0.00000000000E+00  0.00000000000E+00  0.14229492533E+03  0.14229492533E+03  0.00000000000E+00 0.  1.
         -2   -1    0    0    0  501 -0.00000000000E+00 -0.00000000000E+00 -0.17161603803E+03  0.17161603803E+03  0.00000000000E+00 0.  1.
        -24    2    1    2    0    0 -0.72532551463E+01 -0.36965765984E+02 -0.61460457474E+01  0.89272653885E+02  0.80701643653E+02 0.  0.
         23    2    1    2    0    0  0.54535221654E+02 -0.15777702325E+02  0.51927200412E+02  0.12140164752E+03  0.93908996306E+02 0.  0.
         13    1    3    3    0    0  0.17607236154E+02  0.19571818105E+02 -0.78992408989E+01  0.27485793343E+02  0.00000000000E+00 0. -1.
        -14    1    3    3    0    0 -0.24860491300E+02 -0.56537584089E+02  0.17531951515E+01  0.61786860541E+02  0.00000000000E+00 0.  1.
        -11    1    4    4    0    0 -0.15562750542E+02 -0.33364517522E+02  0.11383267570E+02  0.38535295697E+02  0.00000000000E+00 0. -1.
         11    1    4    4    0    0  0.70097972195E+02  0.17586815196E+02  0.40543932842E+02  0.82866351826E+02  0.00000000000E+00 0.  1.
         -1    1    1    2    0  502 -0.47281966508E+02  0.52743468309E+02 -0.75102267370E+02  0.10323666195E+03  0.00000000000E+00 0.  1.
<scales pt_clust_5="13000.00000" pt_clust_6="13000.00000" pt_clust_7="13000.00000" pt_clust_8="13000.00000" pt_clust_9="70.83405"></scales>
<clustering>
<clus scale="   70.834">  1  9  2 -1</clus>
<clus scale="   80.702">  5  6 -1 -1</clus>
<clus scale="   86.124">  2  5  1 -1</clus>
<clus scale="   93.909">  7  8 -1 -1</clus>
<clus scale="   70.834">  1  5  2 -1</clus>
</clustering>
</event>
<event>
 9    1  0.3197504E-005  0.1201557E+03  0.7546771E-02  0.1246652E+00
          1   -1    0    0  502    0 -0.00000000000E+00  0.00000000000E+00  0.77188376484E+03  0.77188376484E+03  0.00000000000E+00 0. -1.
         21   -1    0    0  501  502  0.00000000000E+00 -0.00000000000E+00 -0.64559297018E+02  0.64559297018E+02  0.00000000000E+00 0. -1.
        -24    2    1    2    0    0 -0.95760743810E+02  0.11028750373E+02  0.61282366423E+03  0.62550751659E+03  0.80094047680E+02 0.  0.
         23    2    1    2    0    0  0.12084207194E+02  0.13960379107E+02  0.78028090895E+02  0.12206727401E+03  0.92038666701E+02 0.  0.
         11    1    3    3    0    0 -0.98836837325E+02 -0.11383632971E+01  0.39000063717E+03  0.40233134762E+03  0.00000000000E+00 0. -1.
        -12    1    3    3    0    0  0.30760935142E+01  0.12167113670E+02  0.22282302706E+03  0.22317616897E+03  0.00000000000E+00 0.  1.
        -13    1    4    4    0    0 -0.38338927891E+02 -0.20603171519E+01  0.19131382281E+02  0.42896714170E+02  0.00000000000E+00 0.  1.
         13    1    4    4    0    0  0.50423135085E+02  0.16020696259E+02  0.58896708614E+02  0.79170559844E+02  0.00000000000E+00 0. -1.
          2    1    1    2  501    0  0.83676536617E+02 -0.24989129480E+02  0.16472712692E+02  0.88868271254E+02  0.00000000000E+00 0. -1.
<scales pt_clust_5="13000.00000" pt_clust_6="13000.00000" pt_clust_7="13000.00000" pt_clust_8="13000.00000" pt_clust_9="87.32823"></scales>
<clustering>
<clus scale="   80.094">  5  6 -1 -1</clus>
<clus scale="   87.328">  2  9  1 -1</clus>
<clus scale="   92.039">  7  8 -1 -1</clus>
<clus scale="  111.271">  1  5  2 -1</clus>
<clus scale="   87.328">  2  5  1 -1</clus>
</clustering>
</event>
<event>
 9    1  0.3197504E-005  0.1523350E+03  0.7546771E-02  0.1198808E+00
         21   -1    0    0  501  502  0.00000000000E+00  0.00000000000E+00  0.92118153301E+02  0.92118153301E+02  0.00000000000E+00 0. -1.
          3   -1    0    0  502    0 -0.00000000000E+00 -0.00000000000E+00 -0.63759680209E+03  0.63759680209E+03  0.00000000000E+00 0. -1.
         23    2    1    2    0    0 -0.90696341476E+02  0.96132224613E+02 -0.20527450372E+03  0.26165509792E+03  0.94119803555E+02 0.  0.
        -24    2    1    2    0    0  0.14376863510E+03  0.42543491206E+02 -0.20428800387E+03  0.26676201857E+03  0.83360763815E+02 0.  0.
         11    1    4    4    0    0  0.74895866902E+02  0.51037718774E+02 -0.16162449042E+03  0.18530168785E+03  0.00000000000E+00 0. -1.
        -12    1    4    4    0    0  0.68872768201E+02 -0.84942275682E+01 -0.42663513457E+02  0.81460330727E+02  0.00000000000E+00 0.  1.
        -11    1    3    3    0    0 -0.32480729077E+02  0.28950915292E+02 -0.15180643030E+03  0.15791879412E+03  0.00000000000E+00 0.  1.
         11    1    3    3    0    0 -0.58215612398E+02  0.67181309321E+02 -0.53468073425E+02  0.10373630379E+03  0.00000000000E+00 0. -1.
          4    1    1    2  501    0 -0.53072293628E+02 -0.13867571582E+03 -0.13591614119E+03  0.20129783890E+03  0.00000000000E+00 0. -1.
<scales pt_clust_5="13000.00000" pt_clust_6="13000.00000" pt_clust_7="13000.00000" pt_clust_8="13000.00000" pt_clust_9="148.48442"></scales>
<clustering>
<clus scale="   83.361">  5  6 -1 -1</clus>
<clus scale="   94.120">  7  8 -1 -1</clus>
<clus scale="  148.484">  1  9  2 -1</clus>
<clus scale="  148.484">  1  5  2 -1</clus>
<clus scale="  148.484">  1  5  2 -1</clus>
</clustering>
</event>
<event>
 9    1  0.3197504E-005  0.9433985E+02  0.7546771E-02  0.1298266E+00
         21   -1    0    0  501  502  0.00000000000E+00  0.00000000000E+00  0.85659941844E+02  0.85659941844E+02  0.00000000000E+00 0. -1.
          1   -1    0    0  502    0 -0.00000000000E+00 -0.00000000000E+00 -0.71482716536E+03  0.71482716536E+03  0.00000000000E+00 0. -1.
        -24    2    1    2    0    0 -0.14979199471E+02 -0.23320317682E+02 -0.62852311755E+03  0.63420608231E+03  0.80048934504E+02 0.  0.
         23    2    1    2    0    0  0.18304109177E+02  0.53381892667E+02  0.41887089441E+02  0.11409236810E+03  0.89876989929E+02 0.  0.
         13    1    3    3    0    0  0.64674531793E+01 -0.43287052274E+02 -0.20247310679E+03  0.20714959768E+03  0.00000000000E+00 0. -1.
        -14    1    3    3    0    0 -0.21446652651E+02  0.19966734592E+02 -0.42605001076E+03  0.42705648463E+03  0.00000000000E+00 0.  1.
        -11    1    4    4    0    0  0.46421294446E+02  0.56529377849E+02  0.44596652099E+02  0.85670114488E+02  0.00000000000E+00 0. -1.
         11    1    4    4    0    0 -0.28117185269E+02 -0.31474851824E+01 -0.27095626578E+01  0.28422253609E+02  0.00000000000E+00 0.  1.
          2    1    1    2  501    0 -0.33249097059E+01 -0.30061574985E+02 -0.42531195408E+02  0.52188656794E+02  0.00000000000E+00 0. -1.
<scales pt_clust_5="13000.00000" pt_clust_6="13000.00000" pt_clust_7="13000.00000" pt_clust_8="13000.00000" pt_clust_9="30.24490"></scales>
<clustering>
<clus scale="   30.245">  1  9  2 -1</clus>
<clus scale="   80.049">  5  6 -1 -1</clus>
<clus scale="   85.029">  2  5  1 -1</clus>
<clus scale="   89.877">  7  8 -1 -1</clus>
<clus scale="   30.245">  1  5  2 -1</clus>
</clustering>
</event>
<event>
 9    1  0.3197504E-005  0.8123272E+02  0.7546771E-02  0.1325756E+00
         -2   -1    0    0    0  501 -0.00000000000E+00  0.00000000000E+00  0.26305215531E+03  0.26305215531E+03  0.00000000000E+00 0.  1.
         21   -1    0    0  501  502  0.00000000000E+00 -0.00000000000E+00 -0.76043164721E+02  0.76043164721E+02  0.00000000000E+00 0.  1.
        -24    2    1    2    0    0  0.10962285434E+02 -0.86557744837E+01  0.13523946730E+03  0.15815308439E+03  0.80793505019E+02 0.  0.
         23    2    1    2    0    0  0.34383001064E+02 -0.23128753298E+02  0.77817390578E+02  0.11974629946E+03  0.81033943302E+02 0.  0.
         13    1    3    3    0    0  0.34690865758E+02  0.17685643246E+02  0.37008987962E+02  0.53720604371E+02  0.00000000000E+00 0. -1.
        -14    1    3    3    0    0 -0.23728580324E+02 -0.26341417730E+02  0.98230479340E+02  0.10443248002E+03  0.00000000000E+00 0.  1.
        -13    1    4    4    0    0  0.38047387773E+02 -0.48749790831E+02  0.68385858434E+02  0.92199628286E+02  0.00000000000E+00 0.  1.
         13    1    4    4    0    0 -0.36643867090E+01  0.25621037533E+02  0.94315321440E+01  0.27546671175E+02  0.00000000000E+00 0. -1.
         -1    1    1    2    0  502 -0.45345286498E+02  0.31784527782E+02 -0.26047867292E+02  0.61195936175E+02  0.00000000000E+00 0.  1.
<scales pt_clust_5="13000.00000" pt_clust_6="13000.00000" pt_clust_7="13000.00000" pt_clust_8="13000.00000" pt_clust_9="55.37555"></scales>
<clustering>
<clus scale="   55.376">  2  9  1 -1</clus>
<clus scale="   80.794">  5  6 -1 -1</clus>
<clus scale="   80.993">  1  5  2 -1</clus>
<clus scale="   81.034">  7  8 -1 -1</clus>
<clus scale="   55.376">  2  5  1 -1</clus>
</clustering>
</event>
<event>
 9    1  0.3197504E-005  0.9835823E+02  0.7546771E-02  0.1290286E+00
         21   -1    0    0  501  502  0.00000000000E+00  0.00000000000E+00  0.25575651846E+02  0.25575651846E+02  0.00000000000E+00 0.  1.
          3   -1    0    0  502    0 -0.00000000000E+00 -0.00000000000E+00 -0.56365329353E+03  0.56365329353E+03  0.00000000000E+00 0. -1.
         23    2    1    2    0    0 -0.57273387591E+01 -0.33206090709E+02 -0.25989984712E+03  0.27771446063E+03  0.91880053529E+02 0.  0.
        -24    2    1    2    0    0 -0.35864451637E+02  0.30254551119E+02 -0.22952529401E+03  0.24743910395E+03  0.79640773606E+02 0.  0.
         11    1    4    4    0    0 -0.45664177974E+02  0.26686254771E+02 -0.23093579438E+03  0.23691499419E+03  0.00000000000E+00 0. -1.
        -12    1    4    4    0    0  0.97997263376E+01  0.35682963481E+01  0.14105003708E+01  0.10524109768E+02  0.00000000000E+00 0.  1.
        -13    1    3    3    0    0  0.14817965563E+01  0.32112233021E+02 -0.84391934334E+02  0.90307196896E+02  0.00000000000E+00 0.  1.
         13    1    3    3    0    0 -0.72091353155E+01 -0.65318323730E+02 -0.17550791279E+03  0.18740726373E+03  0.00000000000E+00 0. -1.
          4    1    1    2  501    0  0.41591790396E+02  0.29515395907E+01 -0.48652500547E+02  0.64075380793E+02  0.00000000000E+00 0. -1.
<scales pt_clust_5="13000.00000" pt_clust_6="13000.00000" pt_clust_7="13000.00000" pt_clust_8="13000.00000" pt_clust_9="41.69639"></scales>
<clustering>
<clus scale="   41.696">  1  9  2 -1</clus>
<clus scale="   79.641">  5  6 -1 -1</clus>
<clus scale="   87.035">  1  5  2 -1</clus>
<clus scale="   91.880">  7  8 -1 -1</clus>
<clus scale="   41.696">  1  5  2 -1</clus>
</clustering>
</event>
<event>
 9    1  0.3197504E-005  0.9700903E+02  0.7546771E-02  0.1293138E+00
         21   -1    0    0  501  502  0.00000000000E+00  0.00000000000E+00  0.36306667304E+02  0.36306667304E+02  0.00000000000E+00 0. -1.
          3   -1    0    0  502    0 -0.00000000000E+00 -0.00000000000E+00 -0.51113992885E+03  0.51113992885E+03  0.00000000000E+00 0. -1.
         23    2    1    2    0    0 -0.27654800750E+02 -0.25508186537E+02 -0.20661097758E+03  0.22903293807E+03  0.91392204704E+02 0.  0.
        -24    2    1    2    0    0  0.37996908983E+02 -0.45862809626E+02 -0.15190078122E+03  0.18155069634E+03  0.79621891503E+02 0.  0.
         13    1    4    4    0    0  0.49721155523E+01 -0.25842455073E+02 -0.15971009317E+01  0.26364846835E+02  0.00000000000E+00 0. -1.
        -14    1    4    4    0    0  0.33024793431E+02 -0.20020354553E+02 -0.15030368029E+03  0.15518584950E+03  0.00000000000E+00 0.  1.
        -11    1    3    3    0    0  0.32255666784E+02 -0.32354709304E+01 -0.46959122669E+02  0.57061856907E+02  0.00000000000E+00 0.  1.
         11    1    3    3    0    0 -0.59910467535E+02 -0.22272715606E+02 -0.15965185491E+03  0.17197108116E+03  0.00000000000E+00 0. -1.
          4    1    1    2  501    0 -0.10342108233E+02  0.71370996163E+02 -0.11632150274E+03  0.13686296174E+03  0.00000000000E+00 0. -1.
<scales pt_clust_5="13000.00000" pt_clust_6="13000.00000" pt_clust_7="13000.00000" pt_clust_8="13000.00000" pt_clust_9="72.11642"></scales>
<clustering>
<clus scale="   72.116">  1  9  2 -1</clus>
<clus scale="   79.622">  5  6 -1 -1</clus>
<clus scale="   86.011">  1  5  2 -1</clus>
<clus scale="   91.392">  7  8 -1 -1</clus>
<clus scale="   72.116">  1  5  2 -1</clus>
</clustering>
</event>
<event>
 9    1  0.3197504E-005  0.1126217E+03  0.7546771E-02  0.1259899E+00
         -2   -1    0    0    0  501 -0.00000000000E+00  0.00000000000E+00  0.57865015049E+03  0.57865015049E+03  0.00000000000E+00 0.  1.
         21   -1    0    0  501  502  0.00000000000E+00 -0.00000000000E+00 -0.13518972663E+03  0.13518972663E+03  0.00000000000E+00 0.  1.
        -24    2    1    2    0    0  0.34198691573E+02 -0.57749860956E+02  0.51981175578E+03  0.53037229177E+03  0.81153616603E+02 0.  0.
         23    2    1    2    0    0 -0.36404004428E+02  0.27001868155E+02 -0.16634515448E+01  0.10266794463E+03  0.92106391531E+02 0.  0.
         11    1    3    3    0    0 -0.12059765896E+02 -0.36942627038E+02  0.96476973754E+02  0.10400962509E+03  0.00000000000E+00 0. -1.
        -12    1    3    3    0    0  0.46258457470E+02 -0.20807233918E+02  0.42333478202E+03  0.42636266668E+03  0.00000000000E+00 0.  1.
        -13    1    4    4    0    0  0.24395417128E+02 -0.12951717443E+02 -0.10142019284E+02  0.29423526585E+02  0.00000000000E+00 0.  1.
         13    1    4    4    0    0 -0.60799421555E+02  0.39953585597E+02  0.84785677391E+01  0.73244418043E+02  0.00000000000E+00 0. -1.
         -1    1    1    2    0  502  0.22053128545E+01  0.30747992802E+02 -0.74687880377E+02  0.80799640725E+02  0.00000000000E+00 0.  1.
<scales pt_clust_5="13000.00000" pt_clust_6="13000.00000" pt_clust_7="13000.00000" pt_clust_8="13000.00000" pt_clust_9="30.82698"></scales>
<clustering>
<clus scale="   30.827">  2  9  1 -1</clus>
<clus scale="   81.154">  5  6 -1 -1</clus>
<clus scale="   92.106">  7  8 -1 -1</clus>
<clus scale="  103.856">  1  5  2 -1</clus>
<clus scale="   30.827">  2  5  1 -1</clus>
</clustering>
</event>
<event>
 9    1  0.3197504E-005  0.9281829E+02  0.7546771E-02  0.1303852E+00
         21   -1    0    0  501  502  0.00000000000E+00  0.00000000000E+00  0.52096658163E+02  0.52096658163E+02  0.00000000000E+00 0.  1.
          1   -1    0    0  502    0 -0.00000000000E+00 -0.00000000000E+00 -0.33320218994E+03  0.33320218994E+03  0.00000000000E+00 0. -1.
         23    2    1    2    0    0  0.76176303191E+01 -0.50705987635E+01 -0.51810127311E+02  0.10517802842E+03  0.91073536814E+02 0.  0.
        -24    2    1    2    0    0  0.26529140134E+02  0.22614978355E+02 -0.55864180935E+02  0.10249144012E+03  0.78539519120E+02 0.  0.
         13    1    4    4    0    0  0.30607541024E+02  0.47890590863E+02 -0.24205185407E+02  0.61775571721E+02  0.00000000000E+00 0. -1.
        -14    1    4    4    0    0 -0.40784008905E+01 -0.25275612509E+02 -0.31658995528E+02  0.40715868397E+02  0.00000000000E+00 0.  1.
        -11    1    3    3    0    0  0.44986901082E+02 -0.44983333654E+01 -0.53126537589E+01  0.45522308399E+02  0.00000000000E+00 0.  1.
         11    1    3    3    0    0 -0.37369270763E+02 -0.57226539813E+00 -0.46497473552E+02  0.59655720025E+02  0.00000000000E+00 0. -1.
          2    1    1    2  501    0 -0.34146770453E+02 -0.17544379591E+02 -0.17343122353E+03  0.17762937956E+03  0.00000000000E+00 0. -1.
<scales pt_clust_5="13000.00000" pt_clust_6="13000.00000" pt_clust_7="13000.00000" pt_clust_8="13000.00000" pt_clust_9="38.39022"></scales>
<clustering>
<clus scale="   38.390">  1  9  2 -1</clus>
<clus scale="   78.540">  5  6 -1 -1</clus>
<clus scale="   80.556">  1  5  2 -1</clus>
<clus scale="   91.074">  7  8 -1 -1</clus>
<clus scale="   38.390">  1  5  2 -1</clus>
</clustering>
</event>
<event>
 9    1  0.3197504E-005  0.1497813E+03  0.7546771E-02  0.1203057E+00
         21   -1    0    0  501  502  0.00000000000E+00  0.00000000000E+00  0.31423372513E+03  0.31423372513E+03  0.00000000000E+00 0. -1.
         -2   -1    0    0    0  501 -0.00000000000E+00 -0.00000000000E+00 -0.28985624522E+03  0.28985624522E+03  0.00000000000E+00 0.  1.
         23    2    1    2    0    0 -0.11307096380E+03  0.13573678533E+02 -0.22660306509E+03  0.27050766356E+03  0.94107169401E+02 0.  0.
        -24    2    1    2    0    0  0.13252365387E+03 -0.33192046325E+02  0.11928978506E+03  0.19902472150E+03  0.81954598252E+02 0.  0.
         11    1    4    4    0    0  0.86972642501E+02 -0.52997042977E+02  0.49171584692E+02  0.11309629459E+03  0.00000000000E+00 0. -1.
        -12    1    4    4    0    0  0.45551011366E+02  0.19804996653E+02  0.70118200369E+02  0.85928426914E+02  0.00000000000E+00 0.  1.
        -13    1    3    3    0    0 -0.28141178946E+02  0.17565013715E+02 -0.55072022268E+01  0.33627145815E+02  0.00000000000E+00 0. -1.
         13    1    3    3    0    0 -0.84929784855E+02 -0.39913351821E+01 -0.22109586286E+03  0.23688051774E+03  0.00000000000E+00 0.  1.
         -1    1    1    2    0  502 -0.19452690065E+02  0.19618367792E+02  0.13169075994E+03  0.13455758529E+03  0.00000000000E+00 0.  1.
<scales pt_clust_5="13000.00000" pt_clust_6="13000.00000" pt_clust_7="13000.00000" pt_clust_8="13000.00000" pt_clust_9="27.62766"></scales>
<clustering>
<clus scale="   27.628">  1  9  2 -1</clus>
<clus scale="   81.955">  5  6 -1 -1</clus>
<clus scale="   94.107">  7  8 -1 -1</clus>
<clus scale="  142.460">  1  5  2 -1</clus>
<clus scale="   27.628">  1  5  2 -1</clus>
</clustering>
</event>
<event>
 9    1  0.3197504E-005  0.1619492E+03  0.7546771E-02  0.1189884E+00
          1   -1    0    0  502    0 -0.00000000000E+00  0.00000000000E+00  0.37335262356E+03  0.37335262356E+03  0.00000000000E+00 0. -1.
         21   -1    0    0  501  502  0.00000000000E+00 -0.00000000000E+00 -0.26678457982E+03  0.26678457982E+03  0.00000000000E+00 0. -1.
        -24    2    1    2    0    0 -0.12611036040E+03 -0.10669779834E+02  0.85531136255E+02  0.18776882500E+03  0.10919656208E+03 0.  0.
         23    2    1    2    0    0  0.92824307382E+02 -0.53214072873E+02 -0.18604183654E+03  0.23311803246E+03  0.91018473539E+02 0.  0.
         11    1    3    3    0    0 -0.80355588013E+02 -0.45513900060E+02  0.91431855982E+02  0.12995506882E+03  0.00000000000E+00 0. -1.
        -12    1    3    3    0    0 -0.45754772384E+02  0.34844120227E+02 -0.59007197265E+01  0.57813756179E+02  0.00000000000E+00 0.  1.
        -13    1    4    4    0    0  0.33626859555E+02  0.13611377285E+02 -0.13240493951E+02  0.38617948614E+02  0.00000000000E+00 0.  1.
         13    1    4    4    0    0  0.59197447827E+02 -0.66825450158E+02 -0.17280134259E+03  0.19450008385E+03  0.00000000000E+00 0. -1.
          2    1    1    2  501    0  0.33286053015E+02  0.63883852707E+02  0.20707874402E+03  0.21925034592E+03  0.00000000000E+00 0. -1.
<scales pt_clust_5="13000.00000" pt_clust_6="13000.00000" pt_clust_7="13000.00000" pt_clust_8="13000.00000" pt_clust_9="72.03550"></scales>
<clustering>
<clus scale="   72.035">  2  9  1 -1</clus>
<clus scale="   91.018">  7  8 -1 -1</clus>
<clus scale="  109.197">  5  6 -1 -1</clus>
<clus scale="  150.293">  2  7  1 -1</clus>
<clus scale="   72.035">  2  5  1 -1</clus>
</clustering>
</event>
<event>
 9    1  0.3197504E-005  0.1784951E+03  0.7546771E-02  0.1188361E+00
         21   -1    0    0  501  502  0.00000000000E+00  0.00000000000E+00  0.73937920548E+02  0.73937920548E+02  0.00000000000E+00 0.  1.
          1   -1    0    0  502    0 -0.00000000000E+00 -0.00000000000E+00 -0.11801621190E+04  0.11801621190E+04  0.00000000000E+00 0. -1.
         23    2    1    2    0    0  0.19423668171E+02 -0.67830562733E+02 -0.12448375785E+03  0.17022162380E+03  0.92200494117E+02 0.  0.
        -24    2    1    2    0    0  0.13938642278E+03  0.25670147642E+02 -0.87000810591E+03  0.88517698093E+03  0.80849563285E+02 0.  0.
         11    1    4    4    0    0  0.14607342772E+03  0.12671369821E+02 -0.82264940396E+03  0.83561357799E+03  0.00000000000E+00 0. -1.
        -12    1    4    4    0    0 -0.66870049360E+01  0.12998777821E+02 -0.47358701953E+02  0.49563402935E+02  0.00000000000E+00 0.  1.
        -13    1    3    3    0    0  0.48033818170E+02 -0.67705390575E+02 -0.11095909157E+03  0.13857556640E+03  0.00000000000E+00 0.  1.
         13    1    3    3    0    0 -0.28610149999E+02 -0.12517215774E+00 -0.13524666274E+02  0.31646057398E+02  0.00000000000E+00 0. -1.
          2    1    1    2  501    0 -0.15881009095E+03  0.42160415091E+02 -0.11173233473E+03  0.19870143485E+03  0.00000000000E+00 0. -1.
<scales pt_clust_5="13000.00000" pt_clust_6="13000.00000" pt_clust_7="13000.00000" pt_clust_8="13000.00000" pt_clust_9="159.13470"></scales>
<clustering>
<clus scale="   80.850">  5  6 -1 -1</clus>
<clus scale="   92.200">  7  8 -1 -1</clus>
<clus scale="  116.100">  2  7  1 -1</clus>
<clus scale="  159.135">  1  9  2 -1</clus>
<clus scale="  159.135">  1  5  2 -1</clus>
</clustering>
</event>
<event>
 9    1  0.3197504E-005  0.1168715E+03  0.7546771E-02  0.1258136E+00
         21   -1    0    0  501  502  0.00000000000E+00  0.00000000000E+00  0.50314949803E+02  0.50314949803E+02  0.00000000000E+00 0. -1.
          3   -1    0    0  502    0 -0.00000000000E+00 -0.00000000000E+00 -0.11238604796E+04  0.11238604796E+04  0.00000000000E+00 0. -1.
        -24    2    1    2    0    0 -0.11178561833E+02 -0.50019973936E+02 -0.41035391896E+03  0.42148283154E+03  0.81427762067E+02 0.  0.
         23    2    1    2    0    0 -0.62854353387E+02 -0.40079655412E+02 -0.43298873202E+02  0.12192653829E+03  0.86222037792E+02 0.  0.
         13    1    3    3    0    0 -0.43629102681E+02 -0.16393862828E+02 -0.15376873616E+03  0.16067694781E+03  0.00000000000E+00 0. -1.
        -14    1    3    3    0    0  0.32450540849E+02 -0.33626111109E+02 -0.25658518281E+03  0.26080588372E+03  0.00000000000E+00 0.  1.
        -11    1    4    4    0    0 -0.84636104265E+02 -0.32228281005E+02 -0.31098006243E+02  0.95754990648E+02  0.00000000000E+00 0. -1.
         11    1    4    4    0    0  0.21781750878E+02 -0.78513744066E+01 -0.12200866959E+02  0.26171547641E+02  0.00000000000E+00 0.  1.
          4    1    1    2  501    0  0.74032915219E+02  0.90099629348E+02 -0.61989273767E+03  0.63076605962E+03  0.00000000000E+00 0. -1.
<scales pt_clust_5="13000.00000" pt_clust_6="13000.00000" pt_clust_7="13000.00000" pt_clust_8="13000.00000" pt_clust_9="78.89679"></scales>
<clustering>
<clus scale="   81.428">  5  6 -1 -1</clus>
<clus scale="   86.222">  7  8 -1 -1</clus>
<clus scale="   96.216">  2  5  1 -1</clus>
<clus scale="   78.897">  1  9  2 -1</clus>
<clus scale="   78.897">  1  5  2 -1</clus>
</clustering>
</event>
<event>
 9    1  0.3197504E-005  0.1221844E+03  0.7546771E-02  0.1242364E+00
          1   -1    0    0  502    0 -0.00000000000E+00  0.00000000000E+00  0.37886481931E+03  0.37886481931E+03  0.00000000000E+00 0. -1.
         21   -1    0    0  501  502  0.00000000000E+00 -0.00000000000E+00 -0.10755184095E+03  0.10755184095E+03  0.00000000000E+00 0. -1.
         23    2    1    2    0    0 -0.47721925163E+02  0.76466062251E+02  0.11523900879E+03  0.17264619907E+03  0.91663733768E+02 0.  0.
        -24    2    1    2    0    0  0.10832916318E+03  0.21708073482E+02  0.23775238912E+02  0.13823028812E+03  0.79598382643E+02 0.  0.
         13    1    4    4    0    0  0.95757707100E+02  0.41277820891E+02  0.37979026166E+02  0.11097658940E+03  0.00000000000E+00 0. -1.
        -14    1    4    4    0    0  0.12571456079E+02 -0.19569747408E+02 -0.14203787254E+02  0.27253698720E+02  0.00000000000E+00 0.  1.
        -11    1    3    3    0    0 -0.17083931599E+02  0.30170533007E+02 -0.96370762332E+01  0.35986039225E+02  0.00000000000E+00 0. -1.
         11    1    3    3    0    0 -0.30637993565E+02  0.46295529244E+02  0.12487608502E+03  0.13666015984E+03  0.00000000000E+00 0.  1.
          2    1    1    2  501    0 -0.60607238016E+02 -0.98174135733E+02  0.13229873066E+03  0.17554017307E+03  0.00000000000E+00 0. -1.
<scales pt_clust_5="13000.00000" pt_clust_6="13000.00000" pt_clust_7="13000.00000" pt_clust_8="13000.00000" pt_clust_9="115.37509"></scales>
<clustering>
<clus scale="   79.598">  5  6 -1 -1</clus>
<clus scale="   91.664">  7  8 -1 -1</clus>
<clus scale="  115.375">  2  9  1 -1</clus>
<clus scale="  115.375">  2  5  1 -1</clus>
<clus scale="  115.375">  2  5  1 -1</clus>
</clustering>
</event>
<event>
 9    1  0.3197504E-005  0.1451648E+03  0.7546771E-02  0.1210662E+00
         21   -1    0    0  501  502  0.00000000000E+00  0.00000000000E+00  0.12260056622E+03  0.12260056622E+03  0.00000000000E+00 0. -1.
         -2   -1    0    0    0  501 -0.00000000000E+00 -0.00000000000E+00 -0.24208947070E+03  0.24208947070E+03  0.00000000000E+00 0.  1.
        -24    2    1    2    0    0 -0.57657565840E+02  0.96014883389E+02 -0.13616581132E+03  0.19436812042E+03  0.81820445690E+02 0.  0.
         23    2    1    2    0    0  0.62491227199E+02 -0.61246313872E+02  0.21195481888E+02  0.13492932929E+03  0.10050080105E+03 0.  0.
         13    1    3    3    0    0 -0.13155586026E+02  0.85580857919E+02 -0.11511775510E+03  0.14404600038E+03  0.00000000000E+00 0. -1.
        -14    1    3    3    0    0 -0.44501979814E+02  0.10434025470E+02 -0.21048056220E+02  0.50322120042E+02  0.00000000000E+00 0.  1.
        -11    1    4    4    0    0  0.35009537505E+02 -0.93420464923E+01 -0.37324945379E+02  0.52020122035E+02  0.00000000000E+00 0.  1.
         11    1    4    4    0    0  0.27481689694E+02 -0.51904267379E+02  0.58520427267E+02  0.82909207258E+02  0.00000000000E+00 0. -1.
         -1    1    1    2    0  502 -0.48336613588E+01 -0.34768569517E+02 -0.45185750427E+01  0.35392587201E+02  0.00000000000E+00 0.  1.
<scales pt_clust_5="13000.00000" pt_clust_6="13000.00000" pt_clust_7="13000.00000" pt_clust_8="13000.00000" pt_clust_9="35.10296"></scales>
<clustering>
<clus scale="   35.103">  1  9  2 -1</clus>
<clus scale="   81.820">  5  6 -1 -1</clus>
<clus scale="  100.501">  7  8 -1 -1</clus>
<clus scale="  132.917">  2  5  1 -1</clus>
<clus scale="   35.103">  1  5  2 -1</clus>
</clustering>
</event>
<event>
 9    1  0.3197504E-005  0.1405684E+03  0.7546771E-02  0.1214769E+00
          1   -1    0    0  502    0 -0.00000000000E+00  0.00000000000E+00  0.44918320374E+03  0.44918320374E+03  0.00000000000E+00 0. -1.
         21   -1    0    0  501  502  0.00000000000E+00 -0.00000000000E+00 -0.63231385839E+02  0.63231385839E+02  0.00000000000E+00 0. -1.
        -24    2    1    2    0    0  0.83287285887E+02  0.46853893738E+02  0.22030200395E+03  0.25345019109E+03  0.81067669693E+02 0.  0.
         23    2    1    2    0    0 -0.11945481518E+03 -0.58090379431E+02  0.13417337692E+03  0.20971894312E+03  0.91299479623E+02 0.  0.
         13    1    3    3    0    0  0.31278660816E+02  0.61104547713E+02  0.14900247507E+03  0.16405443594E+03  0.00000000000E+00 0. -1.
        -14    1    3    3    0    0  0.52008625071E+02 -0.14250653975E+02  0.71299528880E+02  0.89395755151E+02  0.00000000000E+00 0.  1.
        -11    1    4    4    0    0 -0.12792737997E+03 -0.39104398515E+02  0.90965485305E+02  0.16176924320E+03  0.00000000000E+00 0. -1.
         11    1    4    4    0    0  0.84725647851E+01 -0.18985980916E+02  0.43207891613E+02  0.47949699926E+02  0.00000000000E+00 0.  1.
          2    1    1    2  501    0  0.36167529294E+02  0.11236485692E+02  0.31476437033E+02  0.49245455367E+02  0.00000000000E+00 0. -1.
<scales pt_clust_5="13000.00000" pt_clust_6="13000.00000" pt_clust_7="13000.00000" pt_clust_8="13000.00000" pt_clust_9="37.87280"></scales>
<clustering>
<clus scale="   37.873">  2  9  1 -1</clus>
<clus scale="   81.068">  5  6 -1 -1</clus>
<clus scale="   91.299">  7  8 -1 -1</clus>
<clus scale="  134.149">  1  5  2 -1</clus>
<clus scale="   37.873">  2  5  1 -1</clus>
</clustering>
</event>
<event>
 9    1  0.3197504E-005  0.9258917E+02  0.7546771E-02  0.1303576E+00
          1   -1    0    0  502    0 -0.00000000000E+00  0.00000000000E+00  0.14563305305E+03  0.14563305305E+03  0.00000000000E+00 0. -1.
         21   -1    0    0  501  502  0.00000000000E+00 -0.00000000000E+00 -0.50080482452E+03  0.50080482452E+03  0.00000000000E+00 0. -1.
        -24    2    1    2    0    0 -0.39281900826E+01  0.16006350500E+02  0.12039747272E+03  0.14542547813E+03  0.79883567261E+02 0.  0.
         23    2    1    2    0    0 -0.44585095657E+02 -0.24933319604E+02 -0.26735103040E+03  0.28703096515E+03  0.91108179194E+02 0.  0.
         11    1    3    3    0    0  0.14948939426E+02  0.28454330820E+02  0.11844581756E+03  0.12272950513E+03  0.00000000000E+00 0. -1.
        -12    1    3    3    0    0 -0.18877129509E+02 -0.12447980320E+02  0.19516551611E+01  0.22695973000E+02  0.00000000000E+00 0.  1.
        -13    1    4    4    0    0 -0.72514706761E+01 -0.48584296799E+02 -0.74904937961E+02  0.89575484667E+02  0.00000000000E+00 0. -1.
         13    1    4    4    0    0 -0.37333624981E+02  0.23650977195E+02 -0.19244609244E+03  0.19745548048E+03  0.00000000000E+00 0.  1.
          2    1    1    2  501    0  0.48513285740E+02  0.89269691040E+01 -0.20821821379E+03  0.21398143430E+03  0.00000000000E+00 0. -1.
<scales pt_clust_5="13000.00000" pt_clust_6="13000.00000" pt_clust_7="13000.00000" pt_clust_8="13000.00000" pt_clust_9="49.32778"></scales>
<clustering>
<clus scale="   49.328">  2  9  1 -1</clus>
<clus scale="   79.884">  5  6 -1 -1</clus>
<clus scale="   81.569">  1  5  2 -1</clus>
<clus scale="   91.108">  7  8 -1 -1</clus>
<clus scale="   49.328">  2  5  1 -1</clus>
</clustering>
</event>
<event>
 9    1  0.3197504E-005  0.1182155E+03  0.7546771E-02  0.1269456E+00
         -2   -1    0    0    0  501 -0.00000000000E+00  0.00000000000E+00  0.35140767464E+03  0.35140767464E+03  0.00000000000E+00 0.  1.
         21   -1    0    0  501  502  0.00000000000E+00 -0.00000000000E+00 -0.91749417451E+02  0.91749417451E+02  0.00000000000E+00 0.  1.
        -24    2    1    2    0    0  0.12976191648E+02 -0.14213161212E+02  0.23526007011E+03  0.24678241121E+03  0.71999044413E+02 0.  0.
         23    2    1    2    0    0 -0.55078316398E+02 -0.49223593532E+02  0.24942016949E+02  0.12023594887E+03  0.91531394038E+02 0.  0.
         11    1    3    3    0    0  0.30163090584E+02  0.12826121943E+02  0.17954298737E+03  0.18251028944E+03  0.00000000000E+00 0. -1.
        -12    1    3    3    0    0 -0.17186898936E+02 -0.27039283155E+02  0.55717082737E+02  0.64272121774E+02  0.00000000000E+00 0.  1.
        -13    1    4    4    0    0 -0.22246236932E+02 -0.60396011964E+02  0.46498036454E+02  0.79401767694E+02  0.00000000000E+00 0.  1.
         13    1    4    4    0    0 -0.32832079465E+02  0.11172418433E+02 -0.21556019505E+02  0.40834181179E+02  0.00000000000E+00 0. -1.
         -1    1    1    2    0  502  0.42102124750E+02  0.63436754744E+02 -0.54382986305E+00  0.76138732008E+02  0.00000000000E+00 0.  1.
<scales pt_clust_5="13000.00000" pt_clust_6="13000.00000" pt_clust_7="13000.00000" pt_clust_8="13000.00000" pt_clust_9="74.81252"></scales>
<clustering>
<clus scale="   71.999">  5  6 -1 -1</clus>
<clus scale="   74.527">  1  5  2 -1</clus>
<clus scale="   74.813">  2  9  1 -1</clus>
<clus scale="   91.531">  7  8 -1 -1</clus>
<clus scale="   74.813">  2  5  1 -1</clus>
</clustering>
</event>
<event>
 9    1  0.3197504E-005  0.1044867E+03  0.7546771E-02  0.1275624E+00
         21   -1    0    0  501  502  0.00000000000E+00  0.00000000000E+00  0.50769709934E+02  0.50769709934E+02  0.00000000000E+00 0. -1.
          1   -1    0    0  502    0 -0.00000000000E+00 -0.00000000000E+00 -0.44813707591E+03  0.44813707591E+03  0.00000000000E+00 0. -1.
         23    2    1    2    0    0  0.47953777714E+01 -0.22830064890E+02 -0.16226336898E+03  0.18787525665E+03  0.91779647193E+02 0.  0.
        -24    2    1    2    0    0 -0.56049903746E+01  0.76750542893E+02 -0.23111294672E+03  0.25695748826E+03  0.81804002827E+02 0.  0.
         11    1    4    4    0    0  0.78173957083E+01  0.87121155371E+02 -0.14621783674E+03  0.17038445695E+03  0.00000000000E+00 0. -1.
        -12    1    4    4    0    0 -0.13422386083E+02 -0.10370612478E+02 -0.84895109986E+02  0.86573031314E+02  0.00000000000E+00 0.  1.
        -13    1    3    3    0    0 -0.42472249690E+02 -0.11869716747E+02 -0.96969229897E+02  0.10652611753E+03  0.00000000000E+00 0.  1.
         13    1    3    3    0    0  0.47267627462E+02 -0.10960348144E+02 -0.65294139078E+02  0.81349139118E+02  0.00000000000E+00 0. -1.
          2    1    1    2  501    0  0.80961260327E+00 -0.53920478003E+02 -0.39910502763E+01  0.54074040934E+02  0.00000000000E+00 0. -1.
<scales pt_clust_5="13000.00000" pt_clust_6="13000.00000" pt_clust_7="13000.00000" pt_clust_8="13000.00000" pt_clust_9="53.92656"></scales>
<clustering>
<clus scale="   53.927">  1  9  2 -1</clus>
<clus scale="   81.804">  5  6 -1 -1</clus>
<clus scale="   91.780">  7  8 -1 -1</clus>
<clus scale="   95.843">  1  5  2 -1</clus>
<clus scale="   53.927">  1  5  2 -1</clus>
</clustering>
</event>
<event>
 9    1  0.3197504E-005  0.2611593E+03  0.7546771E-02  0.1121966E+00
          1   -1    0    0  502    0 -0.00000000000E+00  0.00000000000E+00  0.12811672447E+04  0.12811672447E+04  0.00000000000E+00 0. -1.
         21   -1    0    0  501  502  0.00000000000E+00 -0.00000000000E+00 -0.20097781526E+03  0.20097781526E+03  0.00000000000E+00 0. -1.
        -24    2    1    2    0    0  0.10839759351E+03  0.11359826328E+03  0.60774069907E+02  0.18660035506E+03  0.80446263035E+02 0.  0.
         23    2    1    2    0    0  0.21349213984E+03 -0.10436606710E+03  0.32012057029E+02  0.25695743573E+03  0.92364399220E+02 0.  0.
         13    1    3    3    0    0  0.77279049292E+02  0.28786305904E+02  0.47840952766E+02  0.95338657577E+02  0.00000000000E+00 0. -1.
        -14    1    3    3    0    0  0.31118544220E+02  0.84811957380E+02  0.12933117141E+02  0.91261697486E+02  0.00000000000E+00 0.  1.
        -11    1    4    4    0    0  0.23173241820E+02 -0.42430273680E+02  0.29818746592E+02  0.56802155851E+02  0.00000000000E+00 0.  1.
         11    1    4    4    0    0  0.19031889802E+03 -0.61935793416E+02  0.21933104368E+01  0.20015527987E+03  0.00000000000E+00 0. -1.
          2    1    1    2  501    0 -0.32188973336E+03 -0.92321961876E+01  0.98740330247E+03  0.10385872691E+04  0.00000000000E+00 0. -1.
<scales pt_clust_5="13000.00000" pt_clust_6="13000.00000" pt_clust_7="13000.00000" pt_clust_8="13000.00000" pt_clust_9="244.28067"></scales>
<clustering>
<clus scale="   80.446">  5  6 -1 -1</clus>
<clus scale="   92.364">  7  8 -1 -1</clus>
<clus scale="  176.426">  1  5  2 -1</clus>
<clus scale="  244.281">  2  9  1 -1</clus>
<clus scale="  244.281">  2  5  1 -1</clus>
</clustering>
</event>
<event>
 9    1  0.3197504E-005  0.1974098E+03  0.7546771E-02  0.1152276E+00
          1   -1    0    0  502    0 -0.00000000000E+00  0.00000000000E+00  0.17304044162E+04  0.17304044162E+04  0.00000000000E+00 0. -1.
         21   -1    0    0  501  502  0.00000000000E+00 -0.00000000000E+00 -0.58110173066E+02  0.58110173066E+02  0.00000000000E+00 0.  1.
        -24    2    1    2    0    0 -0.16886927626E+03  0.76133296610E+02  0.11050790582E+04  0.11240523728E+04  0.89335886728E+02 0.  0.
         23    2    1    2    0    0  0.14019111803E+03 -0.74078819710E+02  0.59607332852E+03  0.62372586794E+03  0.92678607328E+02 0.  0.
         13    1    3    3    0    0 -0.15373838272E+03  0.90999101317E+02  0.10488359267E+04  0.10639422578E+04  0.00000000000E+00 0. -1.
        -14    1    3    3    0    0 -0.15130893547E+02 -0.14865804707E+02  0.56243131507E+02  0.60110115046E+02  0.00000000000E+00 0.  1.
        -13    1    4    4    0    0  0.92649584328E+02  0.26963966487E+01  0.27534250719E+03  0.29052489101E+03  0.00000000000E+00 0.  1.
         13    1    4    4    0    0  0.47541533705E+02 -0.76775216358E+02  0.32073082133E+03  0.33320097693E+03  0.00000000000E+00 0. -1.
          2    1    1    2  501    0  0.28678158229E+02 -0.20544769000E+01 -0.28858143612E+02  0.40736348480E+02  0.00000000000E+00 0. -1.
<scales pt_clust_5="13000.00000" pt_clust_6="13000.00000" pt_clust_7="13000.00000" pt_clust_8="13000.00000" pt_clust_9="28.75165"></scales>
<clustering>
<clus scale="   28.752">  2  9  1 -1</clus>
<clus scale="   89.336">  5  6 -1 -1</clus>
<clus scale="   92.679">  7  8 -1 -1</clus>
<clus scale="  195.863">  1  5  2 -1</clus>
<clus scale="   28.752">  2  5  1 -1</clus>
</clustering>
</event>
<event>
 9    1  0.3197504E-005  0.4904708E+03  0.7546771E-02  0.1070064E+00
         -2   -1    0    0    0  501 -0.00000000000E+00  0.00000000000E+00  0.55744427012E+03  0.55744427012E+03  0.00000000000E+00 0.  1.
         21   -1    0    0  501  502  0.00000000000E+00 -0.00000000000E+00 -0.55702227768E+03  0.55702227768E+03  0.00000000000E+00 0. -1.
         23    2    1    2    0    0  0.62057806277E+01 -0.43561824826E+02  0.84097541578E+02  0.13336782085E+03  0.93693302024E+02 0.  0.
        -24    2    1    2    0    0 -0.10203398791E+03 -0.45299662686E+03 -0.54054003033E+02  0.47451134333E+03  0.81377521892E+02 0.  0.
         11    1    4    4    0    0 -0.10659353386E+02 -0.22384789294E+03 -0.13525891934E+02  0.22450935557E+03  0.00000000000E+00 0. -1.
        -12    1    4    4    0    0 -0.91374634527E+02 -0.22914873392E+03 -0.40528111099E+02  0.25000198775E+03  0.00000000000E+00 0.  1.
        -11    1    3    3    0    0 -0.30632645225E+02 -0.44923913846E+02  0.79360853406E+02  0.96201154058E+02  0.00000000000E+00 0.  1.
         11    1    3    3    0    0  0.36838425852E+02  0.13620890201E+01  0.47366881715E+01  0.37166666795E+02  0.00000000000E+00 0. -1.
         -1    1    1    2    0  502  0.95828207286E+02  0.49655845168E+03 -0.29621546098E+02  0.50658738362E+03  0.00000000000E+00 0.  1.
<scales pt_clust_5="13000.00000" pt_clust_6="13000.00000" pt_clust_7="13000.00000" pt_clust_8="13000.00000" pt_clust_9="483.67301"></scales>
<clustering>
<clus scale="   81.378">  5  6 -1 -1</clus>
<clus scale="   93.693">  7  8 -1 -1</clus>
<clus scale="  103.511">  1  7  2 -1</clus>
<clus scale="  483.673">  2  9  1 -1</clus>
<clus scale="  483.673">  2  5  1 -1</clus>
</clustering>
</event>
<event>
 9    1  0.3197504E-005  0.1267951E+03  0.7546771E-02  0.1235616E+00
         21   -1    0    0  501  502  0.00000000000E+00  0.00000000000E+00  0.50041202919E+02  0.50041202919E+02  0.00000000000E+00 0. -1.
          1   -1    0    0  502    0 -0.00000000000E+00 -0.00000000000E+00 -0.47420417287E+03  0.47420417287E+03  0.00000000000E+00 0. -1.
        -24    2    1    2    0    0  0.86567717921E+02 -0.40595492884E+02 -0.27470616710E+03  0.30127223943E+03  0.78482610659E+02 0.  0.
         23    2    1    2    0    0 -0.73968373590E+02  0.83622219016E+01 -0.70657464386E+02  0.13690884076E+03  0.90610740850E+02 0.  0.
         11    1    3    3    0    0  0.86048392809E+02 -0.52548458089E+01 -0.21831809674E+03  0.23472266758E+03  0.00000000000E+00 0. -1.
        -12    1    3    3    0    0  0.51932511211E+00 -0.35340647075E+02 -0.56388070363E+02  0.66549571851E+02  0.00000000000E+00 0.  1.
        -13    1    4    4    0    0 -0.21356538130E+02 -0.38711407971E+02 -0.13960696817E+02  0.46363518887E+02  0.00000000000E+00 0.  1.
         13    1    4    4    0    0 -0.52611835460E+02  0.47073629873E+02 -0.56696767568E+02  0.90545321870E+02  0.00000000000E+00 0. -1.
          2    1    1    2  501    0 -0.12599344331E+02  0.32233270983E+02 -0.78799338458E+02  0.86064295601E+02  0.00000000000E+00 0. -1.
<scales pt_clust_5="13000.00000" pt_clust_6="13000.00000" pt_clust_7="13000.00000" pt_clust_8="13000.00000" pt_clust_9="34.60821"></scales>
<clustering>
<clus scale="   34.608">  1  9  2 -1</clus>
<clus scale="   78.483">  5  6 -1 -1</clus>
<clus scale="   90.611">  7  8 -1 -1</clus>
<clus scale="  118.432">  2  5  1 -1</clus>
<clus scale="   34.608">  1  5  2 -1</clus>
</clustering>
</event>
<event>
 9    1  0.3197504E-005  0.3993928E+03  0.7546771E-02  0.1044193E+00
          1   -1    0    0  502    0 -0.00000000000E+00  0.00000000000E+00  0.15974835827E+04  0.15974835827E+04  0.00000000000E+00 0. -1.
         21   -1    0    0  501  502  0.00000000000E+00 -0.00000000000E+00 -0.21324205225E+03  0.21324205225E+03  0.00000000000E+00 0. -1.
         23    2    1    2    0    0 -0.36006402788E+03  0.16597907274E+03  0.11493603920E+04  0.12193179913E+04  0.92259939023E+02 0.  0.
        -24    2    1    2    0    0  0.26358711690E+03 -0.26587054132E+03  0.96009696433E+02  0.39501167312E+03  0.81553952448E+02 0.  0.
         13    1    4    4    0    0  0.10569216965E+03 -0.14474168737E+03  0.77122141405E+02  0.19511231505E+03  0.00000000000E+00 0. -1.
        -14    1    4    4    0    0  0.15789494724E+03 -0.12112885395E+03  0.18887555028E+02  0.19989935808E+03  0.00000000000E+00 0.  1.
        -13    1    3    3    0    0 -0.20837027186E+02  0.51125265102E+01  0.20543873620E+02  0.29704719702E+02  0.00000000000E+00 0.  1.
         13    1    3    3    0    0 -0.33922700069E+03  0.16086654623E+03  0.11288165184E+04  0.11896132716E+04  0.00000000000E+00 0. -1.
          2    1    1    2  501    0  0.96476910981E+02  0.99891468581E+02  0.13887144201E+03  0.19639597056E+03  0.00000000000E+00 0. -1.
<scales pt_clust_5="13000.00000" pt_clust_6="13000.00000" pt_clust_7="13000.00000" pt_clust_8="13000.00000" pt_clust_9="138.87440"></scales>
<clustering>
<clus scale="   81.554">  5  6 -1 -1</clus>
<clus scale="   92.260">  7  8 -1 -1</clus>
<clus scale="  138.874">  2  9  1 -1</clus>
<clus scale="  397.056">  2  5  1 -1</clus>
<clus scale="  138.874">  2  5  1 -1</clus>
</clustering>
</event>
<event>
 9    1  0.3197504E-005  0.3105576E+03  0.7546771E-02  0.1090044E+00
          1   -1    0    0  502    0 -0.00000000000E+00  0.00000000000E+00  0.80801008427E+03  0.80801008427E+03  0.00000000000E+00 0. -1.
         21   -1    0    0  501  502  0.00000000000E+00 -0.00000000000E+00 -0.28470890403E+03  0.28470890403E+03  0.00000000000E+00 0. -1.
        -24    2    1    2    0    0  0.93108088735E+01  0.22426172483E+03  0.28452766972E+02  0.23974135335E+03  0.79286469013E+02 0.  0.
         23    2    1    2    0    0  0.29317594954E+03 -0.91021727502E+02  0.94795461321E+02  0.33404266768E+03  0.91439772950E+02 0.  0.
         13    1    3    3    0    0  0.36904739101E+02  0.16104764231E+03  0.39525526051E+02  0.16988399004E+03  0.00000000000E+00 0. -1.
        -14    1    3    3    0    0 -0.27593930227E+02  0.63214082524E+02 -0.11072759079E+02  0.69857363308E+02  0.00000000000E+00 0.  1.
        -11    1    4    4    0    0  0.26023307236E+03 -0.80981812644E+02  0.11305741397E+03  0.29506149322E+03  0.00000000000E+00 0. -1.
         11    1    4    4    0    0  0.32942877181E+02 -0.10039914858E+02 -0.18261952652E+02  0.38981174456E+02  0.00000000000E+00 0.  1.
          2    1    1    2  501    0 -0.30248675841E+03 -0.13323999733E+03  0.40005295195E+03  0.51893496728E+03  0.00000000000E+00 0. -1.
<scales pt_clust_5="13000.00000" pt_clust_6="13000.00000" pt_clust_7="13000.00000" pt_clust_8="13000.00000" pt_clust_9="296.79095"></scales>
<clustering>
<clus scale="   79.286">  5  6 -1 -1</clus>
<clus scale="   91.440">  7  8 -1 -1</clus>
<clus scale="  238.047">  1  5  2 -1</clus>
<clus scale="  296.791">  2  9  1 -1</clus>
<clus scale="  296.791">  2  5  1 -1</clus>
</clustering>
</event>
<event>
 9    1  0.3197504E-005  0.1538005E+03  0.7546771E-02  0.1199709E+00
         21   -1    0    0  501  502  0.00000000000E+00  0.00000000000E+00  0.66155242508E+02  0.66155242508E+02  0.00000000000E+00 0. -1.
          1   -1    0    0  502    0 -0.00000000000E+00 -0.00000000000E+00 -0.86375231809E+03  0.86375231809E+03  0.00000000000E+00 0. -1.
         23    2    1    2    0    0  0.20573886300E+02 -0.10587828900E+03 -0.39417947657E+03  0.41880133390E+03  0.91562004416E+02 0.  0.
        -24    2    1    2    0    0 -0.11486554916E+03 -0.34163759356E+02 -0.16181520048E+03  0.21636157115E+03  0.79163839760E+02 0.  0.
         11    1    4    4    0    0 -0.12550122853E+03 -0.27352355087E+02 -0.15699033824E+03  0.20284150460E+03  0.00000000000E+00 0. -1.
        -12    1    4    4    0    0  0.10635679364E+02 -0.68114042688E+01 -0.48248622395E+01  0.13520066541E+02  0.00000000000E+00 0.  1.
        -13    1    3    3    0    0  0.52060132724E+02 -0.92147016017E+02 -0.32015763481E+03  0.33719762915E+03  0.00000000000E+00 0. -1.
         13    1    3    3    0    0 -0.31486246424E+02 -0.13731272987E+02 -0.74021841757E+02  0.81603704749E+02  0.00000000000E+00 0.  1.
          2    1    1    2  501    0  0.94291662863E+02  0.14004204836E+03 -0.24160239854E+03  0.29474465555E+03  0.00000000000E+00 0. -1.
<scales pt_clust_5="13000.00000" pt_clust_6="13000.00000" pt_clust_7="13000.00000" pt_clust_8="13000.00000" pt_clust_9="131.86246"></scales>
<clustering>
<clus scale="   79.164">  5  6 -1 -1</clus>
<clus scale="   91.562">  7  8 -1 -1</clus>
<clus scale="  141.482">  2  7  1 -1</clus>
<clus scale="  131.862">  1  9  2 -1</clus>
<clus scale="  131.862">  1  5  2 -1</clus>
</clustering>
</event>
<event>
 9    1  0.3197504E-005  0.1623465E+03  0.7546771E-02  0.1203429E+00
         21   -1    0    0  501  502  0.00000000000E+00  0.00000000000E+00  0.66207678191E+03  0.66207678191E+03  0.00000000000E+00 0.  1.
         -4   -1    0    0    0  501 -0.00000000000E+00 -0.00000000000E+00 -0.11673876602E+03  0.11673876602E+03  0.00000000000E+00 0.  1.
         23    2    1    2    0    0  0.41667171186E+02  0.48467475249E+02  0.13293868860E+03  0.17317355022E+03  0.90725598696E+02 0.  0.
        -24    2    1    2    0    0  0.10898448532E+02 -0.14725696285E+03  0.45558604703E+03  0.48569367551E+03  0.80847454478E+02 0.  0.
         11    1    4    4    0    0  0.22318054747E+02 -0.87695461071E+01  0.32612302457E+02  0.40479164741E+02  0.00000000000E+00 0. -1.
        -12    1    4    4    0    0 -0.11419606215E+02 -0.13848741674E+03  0.42297374457E+03  0.44521451077E+03  0.00000000000E+00 0.  1.
        -11    1    3    3    0    0  0.54892093513E+02 -0.26424629707E+01  0.46991873170E+02  0.72307404081E+02  0.00000000000E+00 0. -1.
         11    1    3    3    0    0 -0.13224922327E+02  0.51109938220E+02  0.85946815428E+02  0.10086614614E+03  0.00000000000E+00 0.  1.
         -3    1    1    2    0  502 -0.52565619719E+02  0.98789487597E+02 -0.43186719743E+02  0.11994832220E+03  0.00000000000E+00 0.  1.
<scales pt_clust_5="13000.00000" pt_clust_6="13000.00000" pt_clust_7="13000.00000" pt_clust_8="13000.00000" pt_clust_9="140.78389"></scales>
<clustering>
<clus scale="   80.847">  5  6 -1 -1</clus>
<clus scale="   90.726">  7  8 -1 -1</clus>
<clus scale="  110.979">  2  7  1 -1</clus>
<clus scale="  140.784">  1  9  2 -1</clus>
<clus scale="  140.784">  1  5  2 -1</clus>
</clustering>
</event>
<event>
 9    1  0.3197504E-005  0.9098566E+02  0.7546771E-02  0.1307060E+00
         -2   -1    0    0    0  501 -0.00000000000E+00  0.00000000000E+00  0.10695712583E+03  0.10695712583E+03  0.00000000000E+00 0.  1.
         21   -1    0    0  501  502  0.00000000000E+00 -0.00000000000E+00 -0.13892762452E+03  0.13892762452E+03  0.00000000000E+00 0.  1.
        -24    2    1    2    0    0 -0.83385395068E+01  0.75406119286E+01  0.40699690014E+02  0.90872681975E+02  0.80467306981E+02 0.  0.
         23    2    1    2    0    0 -0.22609849930E+02 -0.32138644091E+00 -0.23554982512E+02  0.96512294831E+02  0.90821127770E+02 0.  0.
         13    1    3    3    0    0  0.43160106053E+01  0.27857603397E+02  0.55838788723E+02  0.62551133808E+02  0.00000000000E+00 0. -1.
        -14    1    3    3    0    0 -0.12654550112E+02 -0.20316991469E+02 -0.15139098709E+02  0.28321548167E+02  0.00000000000E+00 0.  1.
        -11    1    4    4    0    0 -0.46077806639E+02  0.53655102501E+00  0.17437357062E+02  0.49269803866E+02  0.00000000000E+00 0.  1.
         11    1    4    4    0    0  0.23467956710E+02 -0.85793746592E+00 -0.40992339574E+02  0.47242490965E+02  0.00000000000E+00 0. -1.
         -1    1    1    2    0  502  0.30948389436E+02 -0.72192254877E+01 -0.49115206197E+02  0.58499773548E+02  0.00000000000E+00 0.  1.
<scales pt_clust_5="13000.00000" pt_clust_6="13000.00000" pt_clust_7="13000.00000" pt_clust_8="13000.00000" pt_clust_9="31.77924"></scales>
<clustering>
<clus scale="   31.779">  2  9  1 -1</clus>
<clus scale="   80.467">  5  6 -1 -1</clus>
<clus scale="   80.653">  1  5  2 -1</clus>
<clus scale="   90.821">  7  8 -1 -1</clus>
<clus scale="   31.779">  2  5  1 -1</clus>
</clustering>
</event>
<event>
 9    1  0.3197504E-005  0.9574283E+02  0.7546771E-02  0.1298962E+00
         -4   -1    0    0    0  501 -0.00000000000E+00  0.00000000000E+00  0.31761080462E+03  0.31761080462E+03  0.00000000000E+00 0.  1.
         21   -1    0    0  501  502  0.00000000000E+00 -0.00000000000E+00 -0.71575894586E+02  0.71575894586E+02  0.00000000000E+00 0. -1.
        -24    2    1    2    0    0 -0.15305362574E+02 -0.12207195249E+02  0.18543969194E+03  0.20180552070E+03  0.77164234569E+02 0.  0.
         23    2    1    2    0    0  0.43150668276E+02 -0.25910891789E+02  0.83583385537E+02  0.13487588877E+03  0.93123404936E+02 0.  0.
         13    1    3    3    0    0 -0.25529060803E+02 -0.38518051428E+02  0.77453637058E+02  0.90191125533E+02  0.00000000000E+00 0. -1.
        -14    1    3    3    0    0  0.10223698230E+02  0.26310856179E+02  0.10798605488E+03  0.11161439516E+03  0.00000000000E+00 0.  1.
        -11    1    4    4    0    0 -0.37598496675E+01 -0.51955975002E+02  0.38135658106E+02  0.64559183910E+02  0.00000000000E+00 0. -1.
         11    1    4    4    0    0  0.46910517944E+02  0.26045083213E+02  0.45447727431E+02  0.70316704857E+02  0.00000000000E+00 0.  1.
         -3    1    1    2    0  502 -0.27845305702E+02  0.38118087038E+02 -0.22988167441E+02  0.52505289747E+02  0.00000000000E+00 0.  1.
<scales pt_clust_5="13000.00000" pt_clust_6="13000.00000" pt_clust_7="13000.00000" pt_clust_8="13000.00000" pt_clust_9="47.20540"></scales>
<clustering>
<clus scale="   47.205">  2  9  1 -1</clus>
<clus scale="   77.164">  5  6 -1 -1</clus>
<clus scale="   80.306">  1  5  2 -1</clus>
<clus scale="   93.123">  7  8 -1 -1</clus>
<clus scale="   47.205">  2  5  1 -1</clus>
</clustering>
</event>
<event>
 9    1  0.3197504E-005  0.9686396E+02  0.7546771E-02  0.1291037E+00
         21   -1    0    0  501  502  0.00000000000E+00  0.00000000000E+00  0.53588518938E+02  0.53588518938E+02  0.00000000000E+00 0.  1.
         -4   -1    0    0    0  501 -0.00000000000E+00 -0.00000000000E+00 -0.37056558896E+03  0.37056558896E+03  0.00000000000E+00 0.  1.
         23    2    1    2    0    0  0.31764964799E+01 -0.18374937859E+02 -0.94209267879E+02  0.13179072017E+03  0.90253417099E+02 0.  0.
        -24    2    1    2    0    0 -0.65088423344E+02 -0.30071083820E+02 -0.14618656944E+03  0.18261463417E+03  0.82685056648E+02 0.  0.
         11    1    4    4    0    0 -0.42655933848E+02  0.13343342101E+02 -0.23374798672E+02  0.50437631624E+02  0.00000000000E+00 0. -1.
        -12    1    4    4    0    0 -0.22432489496E+02 -0.43414425921E+02 -0.12281177076E+03  0.13217700254E+03  0.00000000000E+00 0.  1.
        -11    1    3    3    0    0  0.33702450109E+02 -0.18406181357E+02 -0.65336129478E+01  0.38952929975E+02  0.00000000000E+00 0. -1.
         11    1    3    3    0    0 -0.30525953629E+02  0.31243497461E-01 -0.87675654931E+02  0.92837790197E+02  0.00000000000E+00 0.  1.
         -3    1    1    2    0  502  0.61911926864E+02  0.48446021679E+02 -0.76581232706E+02  0.10974875356E+03  0.00000000000E+00 0.  1.
<scales pt_clust_5="13000.00000" pt_clust_6="13000.00000" pt_clust_7="13000.00000" pt_clust_8="13000.00000" pt_clust_9="78.61364"></scales>
<clustering>
<clus scale="   78.614">  1  9  2 -1</clus>
<clus scale="   82.685">  5  6 -1 -1</clus>
<clus scale="   89.854">  1  5  2 -1</clus>
<clus scale="   90.253">  7  8 -1 -1</clus>
<clus scale="   78.614">  1  5  2 -1</clus>
</clustering>
</event>
<event>
 9    1  0.3197504E-005  0.9193035E+02  0.7546771E-02  0.1306754E+00
         21   -1    0    0  501  502  0.00000000000E+00  0.00000000000E+00  0.84813455819E+02  0.84813455819E+02  0.00000000000E+00 0.  1.
         -2   -1    0    0    0  501 -0.00000000000E+00 -0.00000000000E+00 -0.34363858987E+03  0.34363858987E+03  0.00000000000E+00 0.  1.
        -24    2    1    2    0    0  0.47505237876E+00 -0.14786774852E+02 -0.19216403094E+03  0.20802971360E+03  0.78297334370E+02 0.  0.
         23    2    1    2    0    0  0.28119590947E+02 -0.40857450751E+02 -0.10427895235E+03  0.14742208516E+03  0.91646759963E+02 0.  0.
         13    1    3    3    0    0 -0.25266911835E+02 -0.25792535706E+02 -0.16541269215E+03  0.16930750265E+03  0.00000000000E+00 0. -1.
        -14    1    3    3    0    0  0.25741964214E+02  0.11005760854E+02 -0.26751338795E+02  0.38722210951E+02  0.00000000000E+00 0.  1.
        -11    1    4    4    0    0 -0.19829249976E+02 -0.49513799377E+02 -0.39530389033E+02  0.66388757636E+02  0.00000000000E+00 0. -1.
         11    1    4    4    0    0  0.47948840922E+02  0.86563486262E+01 -0.64748563317E+02  0.81033327520E+02  0.00000000000E+00 0.  1.
         -1    1    1    2    0  502 -0.28594643325E+02  0.55644225604E+02  0.37617849241E+02  0.73000246927E+02  0.00000000000E+00 0.  1.
<scales pt_clust_5="13000.00000" pt_clust_6="13000.00000" pt_clust_7="13000.00000" pt_clust_8="13000.00000" pt_clust_9="62.56144"></scales>
<clustering>
<clus scale="   62.561">  1  9  2 -1</clus>
<clus scale="   78.297">  5  6 -1 -1</clus>
<clus scale="   78.629">  2  5  1 -1</clus>
<clus scale="   91.647">  7  8 -1 -1</clus>
<clus scale="   62.561">  1  5  2 -1</clus>
</clustering>
</event>
<event>
 9    1  0.3197504E-005  0.1505691E+03  0.7546771E-02  0.1201669E+00
         21   -1    0    0  501  502  0.00000000000E+00  0.00000000000E+00  0.35816062721E+02  0.35816062721E+02  0.00000000000E+00 0. -1.
          1   -1    0    0  502    0 -0.00000000000E+00 -0.00000000000E+00 -0.84454751708E+03  0.84454751708E+03  0.00000000000E+00 0. -1.
        -24    2    1    2    0    0  0.11591209428E+03 -0.23468702759E+02 -0.43842311158E+03  0.46091761264E+03  0.79017892050E+02 0.  0.
         23    2    1    2    0    0 -0.12846990945E+03 -0.13553096250E+02 -0.30968738350E+03  0.34731266675E+03  0.89619244243E+02 0.  0.
         11    1    3    3    0    0  0.10857541300E+03 -0.46460535336E+02 -0.36456601964E+03  0.38321741131E+03  0.00000000000E+00 0. -1.
        -12    1    3    3    0    0  0.73366812822E+01  0.22991832578E+02 -0.73857091939E+02  0.77700201333E+02  0.00000000000E+00 0.  1.
        -13    1    4    4    0    0 -0.12446788442E+03 -0.38448570640E+02 -0.27632770739E+03  0.30549557887E+03  0.00000000000E+00 0. -1.
         13    1    4    4    0    0 -0.40020250326E+01  0.24895474390E+02 -0.33359676107E+02  0.41817087888E+02  0.00000000000E+00 0.  1.
          2    1    1    2  501    0  0.12557815169E+02  0.37021799009E+02 -0.60620959283E+02  0.72133300410E+02  0.00000000000E+00 0. -1.
<scales pt_clust_5="13000.00000" pt_clust_6="13000.00000" pt_clust_7="13000.00000" pt_clust_8="13000.00000" pt_clust_9="39.09364"></scales>
<clustering>
<clus scale="   39.094">  1  9  2 -1</clus>
<clus scale="   79.018">  5  6 -1 -1</clus>
<clus scale="   89.619">  7  8 -1 -1</clus>
<clus scale="  144.510">  2  5  1 -1</clus>
<clus scale="   39.094">  1  5  2 -1</clus>
</clustering>
</event>
<event>
 9    1  0.3197504E-005  0.1113490E+03  0.7546771E-02  0.1262661E+00
         21   -1    0    0  501  502  0.00000000000E+00  0.00000000000E+00  0.50631219075E+03  0.50631219075E+03  0.00000000000E+00 0.  1.
         -4   -1    0    0    0  501 -0.00000000000E+00 -0.00000000000E+00 -0.38082192596E+02  0.38082192596E+02  0.00000000000E+00 0.  1.
         23    2    1    2    0    0  0.63397103168E+02 -0.15180021730E+01  0.91439559324E+02  0.14744427278E+03  0.96732225993E+02 0.  0.
        -24    2    1    2    0    0 -0.33635972762E+02 -0.82588846070E+01  0.30403634955E+03  0.31773855898E+03  0.85557595657E+02 0.  0.
         13    1    4    4    0    0 -0.62026432867E+02 -0.65853536007E+00  0.22575582296E+03  0.23412262523E+03  0.00000000000E+00 0. -1.
        -14    1    4    4    0    0  0.28390460105E+02 -0.76003492470E+01  0.78280526595E+02  0.83615933754E+02  0.00000000000E+00 0.  1.
        -11    1    3    3    0    0  0.35296974953E+02 -0.41973622458E+01  0.10869556652E+03  0.11436004753E+03  0.00000000000E+00 0. -1.
         11    1    3    3    0    0  0.28100128216E+02  0.26793600728E+01 -0.17256007193E+02  0.33084225250E+02  0.00000000000E+00 0.  1.
         -3    1    1    2    0  502 -0.29761130407E+02  0.97768867801E+01  0.72754089277E+02  0.79211551586E+02  0.00000000000E+00 0.  1.
<scales pt_clust_5="13000.00000" pt_clust_6="13000.00000" pt_clust_7="13000.00000" pt_clust_8="13000.00000" pt_clust_9="31.32591"></scales>
<clustering>
<clus scale="   31.326">  1  9  2 -1</clus>
<clus scale="   85.558">  5  6 -1 -1</clus>
<clus scale="   96.732">  7  8 -1 -1</clus>
<clus scale="  101.792">  1  5  2 -1</clus>
<clus scale="   31.326">  1  5  2 -1</clus>
</clustering>
</event>
<event>
 9    1  0.3197504E-005  0.2160783E+03  0.7546771E-02  0.1137655E+00
         21   -1    0    0  501  502  0.00000000000E+00  0.00000000000E+00  0.84821577981E+02  0.84821577981E+02  0.00000000000E+00 0.  1.
          1   -1    0    0  502    0 -0.00000000000E+00 -0.00000000000E+00 -0.16776366955E+04  0.16776366955E+04  0.00000000000E+00 0. -1.
         23    2    1    2    0    0 -0.16477870373E+03  0.75885448591E+02 -0.10998112470E+04  0.11184179210E+04  0.91450776107E+02 0.  0.
        -24    2    1    2    0    0  0.21294199266E+03 -0.18474805893E+03 -0.37870689108E+03  0.47901135552E+03  0.80974266566E+02 0.  0.
         13    1    4    4    0    0  0.32796122428E+02 -0.50713983865E+02 -0.13352345201E+03  0.14654694143E+03  0.00000000000E+00 0. -1.
        -14    1    4    4    0    0  0.18014587023E+03 -0.13403407507E+03 -0.24518343908E+03  0.33246441409E+03  0.00000000000E+00 0.  1.
        -11    1    3    3    0    0 -0.17315639172E+03  0.56674871052E+02 -0.98362147947E+03  0.10003531336E+04  0.00000000000E+00 0. -1.
         11    1    3    3    0    0  0.83776879931E+01  0.19210577539E+02 -0.11618976758E+03  0.11806478745E+03  0.00000000000E+00 0.  1.
          2    1    1    2  501    0 -0.48163288929E+02  0.10886261034E+03 -0.11429697940E+03  0.16502899694E+03  0.00000000000E+00 0. -1.
<scales pt_clust_5="13000.00000" pt_clust_6="13000.00000" pt_clust_7="13000.00000" pt_clust_8="13000.00000" pt_clust_9="119.04104"></scales>
<clustering>
<clus scale="   80.974">  5  6 -1 -1</clus>
<clus scale="   91.451">  7  8 -1 -1</clus>
<clus scale="  119.041">  1  9  2 -1</clus>
<clus scale="  211.857">  1  5  2 -1</clus>
<clus scale="  119.041">  1  5  2 -1</clus>
</clustering>
</event>
<event>
 9    1  0.3197504E-005  0.9175334E+02  0.7546771E-02  0.1302815E+00
         21   -1    0    0  501  502  0.00000000000E+00  0.00000000000E+00  0.30990148046E+03  0.30990148046E+03  0.00000000000E+00 0. -1.
         -2   -1    0    0    0  501 -0.00000000000E+00 -0.00000000000E+00 -0.36635524818E+02  0.36635524818E+02  0.00000000000E+00 0.  1.
        -24    2    1    2    0    0 -0.37199658997E+02 -0.28440165412E+00  0.97471211073E+02  0.13192001559E+03  0.80736348759E+02 0.  0.
         23    2    1    2    0    0  0.10098698781E+02 -0.14177841799E+02  0.14912448271E+03  0.17393626455E+03  0.87822080745E+02 0.  0.
         13    1    3    3    0    0 -0.10345320471E+01 -0.36546758044E+02  0.51094686449E+02  0.62828359547E+02  0.00000000000E+00 0. -1.
        -14    1    3    3    0    0 -0.36165126950E+02  0.36262356390E+02  0.46376524624E+02  0.69091656041E+02  0.00000000000E+00 0.  1.
        -11    1    4    4    0    0 -0.29992589452E+02  0.20093360594E+02  0.71368990104E+02  0.79980193239E+02  0.00000000000E+00 0.  1.
         11    1    4    4    0    0  0.40091288233E+02 -0.34271202393E+02  0.77755492604E+02  0.93956071308E+02  0.00000000000E+00 0. -1.
         -1    1    1    2    0  502  0.27100960215E+02  0.14462243453E+02  0.26670261858E+02  0.40680725139E+02  0.00000000000E+00 0.  1.
<scales pt_clust_5="13000.00000" pt_clust_6="13000.00000" pt_clust_7="13000.00000" pt_clust_8="13000.00000" pt_clust_9="30.71839"></scales>
<clustering>
<clus scale="   30.718">  1  9  2 -1</clus>
<clus scale="   80.736">  5  6 -1 -1</clus>
<clus scale="   84.996">  2  5  1 -1</clus>
<clus scale="   87.822">  7  8 -1 -1</clus>
<clus scale="   30.718">  1  5  2 -1</clus>
</clustering>
</event>
<event>
 9    1  0.3197504E-005  0.1110733E+03  0.7546771E-02  0.1273899E+00
         21   -1    0    0  501  502  0.00000000000E+00  0.00000000000E+00  0.36523663145E+03  0.36523663145E+03  0.00000000000E+00 0.  1.
          1   -1    0    0  502    0 -0.00000000000E+00 -0.00000000000E+00 -0.66044450616E+02  0.66044450616E+02  0.00000000000E+00 0. -1.
        -24    2    1    2    0    0  0.18108660771E+02 -0.60574810014E+02 -0.87372151772E+01  0.81604802691E+02  0.50850503341E+02 0.  0.
         23    2    1    2    0    0  0.61965448425E+01  0.77461355605E+02  0.16335039581E+03  0.20209922919E+03  0.90122626723E+02 0.  0.
         13    1    3    3    0    0  0.18589445692E+02 -0.45335519468E+02 -0.28468849626E+02  0.56668794019E+02  0.00000000000E+00 0. -1.
        -14    1    3    3    0    0 -0.48078492090E+00 -0.15239290546E+02  0.19731634448E+02  0.24936008672E+02  0.00000000000E+00 0.  1.
        -13    1    4    4    0    0  0.35848365248E+02  0.47232395870E+01  0.78755627328E+02  0.86659466413E+02  0.00000000000E+00 0. -1.
         13    1    4    4    0    0 -0.29651820406E+02  0.72738116018E+02  0.84594768477E+02  0.11543976277E+03  0.00000000000E+00 0.  1.
          2    1    1    2  501    0 -0.24305205614E+02 -0.16886545591E+02  0.14457900021E+03  0.14757705019E+03  0.00000000000E+00 0. -1.
<scales pt_clust_5="13000.00000" pt_clust_6="13000.00000" pt_clust_7="13000.00000" pt_clust_8="13000.00000" pt_clust_9="29.59558"></scales>
<clustering>
<clus scale="   29.596">  1  9  2 -1</clus>
<clus scale="   50.851">  5  6 -1 -1</clus>
<clus scale="   82.468">  2  5  1 -1</clus>
<clus scale="   90.123">  7  8 -1 -1</clus>
<clus scale="   29.596">  1  5  2 -1</clus>
</clustering>
</event>
<event>
 9    1  0.3197504E-005  0.1442326E+03  0.7546771E-02  0.1209332E+00
         21   -1    0    0  501  502  0.00000000000E+00  0.00000000000E+00  0.18827241338E+03  0.18827241338E+03  0.00000000000E+00 0. -1.
          1   -1    0    0  502    0 -0.00000000000E+00 -0.00000000000E+00 -0.15670896014E+03  0.15670896014E+03  0.00000000000E+00 0. -1.
         23    2    1    2    0    0  0.37311949788E+02  0.11850394439E+03 -0.59675059448E+02  0.16429400660E+03  0.89420587406E+02 0.  0.
        -24    2    1    2    0    0 -0.27584531330E+02 -0.85641258526E+02  0.76007049807E+02  0.14318301712E+03  0.81418506745E+02 0.  0.
         13    1    4    4    0    0  0.77735089834E+01 -0.38766101465E+02  0.74624594407E+02  0.84451572840E+02  0.00000000000E+00 0. -1.
        -14    1    4    4    0    0 -0.35358040313E+02 -0.46875157061E+02  0.13824553998E+01  0.58731444280E+02  0.00000000000E+00 0.  1.
        -13    1    3    3    0    0 -0.19461399927E+02  0.10751568937E+02  0.95539557409E+01  0.24199594873E+02  0.00000000000E+00 0.  1.
         13    1    3    3    0    0  0.56773349715E+02  0.10775237545E+03 -0.69229015189E+02  0.14009441173E+03  0.00000000000E+00 0. -1.
          2    1    1    2  501    0 -0.97274184579E+01 -0.32862685862E+02  0.15231462886E+02  0.37504349796E+02  0.00000000000E+00 0. -1.
<scales pt_clust_5="13000.00000" pt_clust_6="13000.00000" pt_clust_7="13000.00000" pt_clust_8="13000.00000" pt_clust_9="34.27213"></scales>
<clustering>
<clus scale="   34.272">  1  9  2 -1</clus>
<clus scale="   81.419">  5  6 -1 -1</clus>
<clus scale="   89.421">  7  8 -1 -1</clus>
<clus scale="  139.413">  1  5  2 -1</clus>
<clus scale="   34.272">  1  5  2 -1</clus>
</clustering>
</event>
<event>
 9    1  0.3197504E-005  0.1814595E+03  0.7546771E-02  0.1167567E+00
          3   -1    0    0  502    0 -0.00000000000E+00  0.00000000000E+00  0.54863559783E+03  0.54863559783E+03  0.00000000000E+00 0. -1.
         21   -1    0    0  501  502  0.00000000000E+00 -0.00000000000E+00 -0.70625937775E+02  0.70625937775E+02  0.00000000000E+00 0. -1.
        -24    2    1    2    0    0 -0.88747257100E+02  0.13761701950E+03  0.25095516092E+03  0.31041960798E+03  0.81039006207E+02 0.  0.
         23    2    1    2    0    0  0.91354910285E+02 -0.11683503735E+03  0.15247970173E+03  0.23138167302E+03  0.91056430746E+02 0.  0.
         13    1    3    3    0    0 -0.29926848942E+02  0.93350750614E+02  0.88524390263E+02  0.13208537617E+03  0.00000000000E+00 0. -1.
        -14    1    3    3    0    0 -0.58820408157E+02  0.44266268883E+02  0.16243077066E+03  0.17833423180E+03  0.00000000000E+00 0.  1.
        -13    1    4    4    0    0  0.35978925348E+02 -0.11243482198E+03  0.11114754785E+03  0.16214144954E+03  0.00000000000E+00 0. -1.
         13    1    4    4    0    0  0.55375984938E+02 -0.44002153679E+01  0.41332153881E+02  0.69240223480E+02  0.00000000000E+00 0.  1.
          4    1    1    2  501    0 -0.26076531855E+01 -0.20781982145E+02  0.74574797403E+02  0.77460254614E+02  0.00000000000E+00 0. -1.
<scales pt_clust_5="13000.00000" pt_clust_6="13000.00000" pt_clust_7="13000.00000" pt_clust_8="13000.00000" pt_clust_9="20.94495"></scales>
<clustering>
<clus scale="   20.945">  2  9  1 -1</clus>
<clus scale="   81.039">  5  6 -1 -1</clus>
<clus scale="   91.056">  7  8 -1 -1</clus>
<clus scale="  176.645">  1  5  2 -1</clus>
<clus scale="   20.945">  2  5  1 -1</clus>
</clustering>
</event>
<event>
 9    1  0.3197504E-005  0.1108049E+03  0.7546771E-02  0.1261128E+00
         -2   -1    0    0    0  501 -0.00000000000E+00  0.00000000000E+00  0.67503140541E+03  0.67503140541E+03  0.00000000000E+00 0.  1.
         21   -1    0    0  501  502  0.00000000000E+00 -0.00000000000E+00 -0.32785990983E+02  0.32785990983E+02  0.00000000000E+00 0. -1.
        -24    2    1    2    0    0 -0.40656241962E+02 -0.47448839300E+02  0.28604958836E+03  0.30387434858E+03  0.81307627950E+02 0.  0.
         23    2    1    2    0    0  0.16343522679E+02  0.89451142609E+02  0.16975457843E+03  0.21128884821E+03  0.86935279570E+02 0.  0.
         11    1    3    3    0    0  0.20900599673E+02 -0.24998860037E+02  0.57208497024E+02  0.65837604768E+02  0.00000000000E+00 0. -1.
        -12    1    3    3    0    0 -0.61556841635E+02 -0.22449979263E+02  0.22884109134E+03  0.23803674382E+03  0.00000000000E+00 0.  1.
        -13    1    4    4    0    0 -0.58541666678E+01  0.20269400033E+02  0.12320932300E+03  0.12500262845E+03  0.00000000000E+00 0.  1.
         13    1    4    4    0    0  0.22197689347E+02  0.69181742576E+02  0.46545255429E+02  0.86286219764E+02  0.00000000000E+00 0. -1.
         -1    1    1    2    0  502  0.24312719283E+02 -0.42002303310E+02  0.18644124764E+03  0.19265419960E+03  0.00000000000E+00 0.  1.
<scales pt_clust_5="13000.00000" pt_clust_6="13000.00000" pt_clust_7="13000.00000" pt_clust_8="13000.00000" pt_clust_9="48.53148"></scales>
<clustering>
<clus scale="   48.531">  2  9  1 -1</clus>
<clus scale="   81.308">  5  6 -1 -1</clus>
<clus scale="   86.935">  7  8 -1 -1</clus>
<clus scale="  106.447">  1  5  2 -1</clus>
<clus scale="   48.531">  2  5  1 -1</clus>
</clustering>
</event>
<event>
 9    1  0.3197504E-005  0.1012747E+03  0.7546771E-02  0.1283174E+00
         -2   -1    0    0    0  501 -0.00000000000E+00  0.00000000000E+00  0.96729562294E+02  0.96729562294E+02  0.00000000000E+00 0.  1.
         21   -1    0    0  501  502  0.00000000000E+00 -0.00000000000E+00 -0.36138577993E+03  0.36138577993E+03  0.00000000000E+00 0.  1.
         23    2    1    2    0    0 -0.37805808388E+02  0.13373911608E+02 -0.16865439832E+03  0.19609651940E+03  0.91659141312E+02 0.  0.
        -24    2    1    2    0    0  0.41556873430E+02  0.43929985480E+02 -0.15171242672E+03  0.18200958031E+03  0.80336850514E+02 0.  0.
         13    1    4    4    0    0  0.78422469813E+01  0.51726522038E+02 -0.13244302239E+03  0.14240185427E+03  0.00000000000E+00 0. -1.
        -14    1    4    4    0    0  0.33714626449E+02 -0.77965365583E+01 -0.19269404327E+02  0.39607726039E+02  0.00000000000E+00 0.  1.
        -13    1    3    3    0    0 -0.55148335031E+02 -0.15997234377E+02 -0.63807098635E+02  0.85840527728E+02  0.00000000000E+00 0. -1.
         13    1    3    3    0    0  0.17342526643E+02  0.29371145985E+02 -0.10484729969E+03  0.11025599167E+03  0.00000000000E+00 0.  1.
         -1    1    1    2    0  502 -0.37510650417E+01 -0.57303897088E+02  0.55710607407E+02  0.80009242516E+02  0.00000000000E+00 0.  1.
<scales pt_clust_5="13000.00000" pt_clust_6="13000.00000" pt_clust_7="13000.00000" pt_clust_8="13000.00000" pt_clust_9="57.42657"></scales>
<clustering>
<clus scale="   57.427">  2  9  1 -1</clus>
<clus scale="   80.337">  5  6 -1 -1</clus>
<clus scale="   91.155">  2  5  1 -1</clus>
<clus scale="   91.659">  7  8 -1 -1</clus>
<clus scale="   57.427">  2  5  1 -1</clus>
</clustering>
</event>
<event>
 9    1  0.3197504E-005  0.1133751E+03  0.7546771E-02  0.1257853E+00
         -4   -1    0    0    0  501 -0.00000000000E+00  0.00000000000E+00  0.57347268303E+02  0.57347268303E+02  0.00000000000E+00 0.  1.
         21   -1    0    0  501  502  0.00000000000E+00 -0.00000000000E+00 -0.45607095568E+03  0.45607095568E+03  0.00000000000E+00 0. -1.
         23    2    1    2    0    0  0.58477310546E+02 -0.53443164349E+02 -0.53556157350E+02  0.13184943087E+03  0.90775782928E+02 0.  0.
        -24    2    1    2    0    0  0.35117350246E+01  0.58548311123E+02 -0.20492460653E+03  0.22815177357E+03  0.81356624829E+02 0.  0.
         13    1    4    4    0    0  0.12264249001E+02  0.63636015821E+02 -0.20776433026E+03  0.21763724691E+03  0.00000000000E+00 0. -1.
        -14    1    4    4    0    0 -0.87525139766E+01 -0.50877046978E+01  0.28397237332E+01  0.10514526660E+02  0.00000000000E+00 0.  1.
        -13    1    3    3    0    0  0.24897469323E+02 -0.61203966259E+02 -0.67695831736E+02  0.94596697083E+02  0.00000000000E+00 0.  1.
         13    1    3    3    0    0  0.33579841223E+02  0.77608019100E+01  0.14139674386E+02  0.37252733787E+02  0.00000000000E+00 0. -1.
         -3    1    1    2    0  502 -0.61989045571E+02 -0.51051467742E+01 -0.14024292350E+03  0.15341701954E+03  0.00000000000E+00 0.  1.
<scales pt_clust_5="13000.00000" pt_clust_6="13000.00000" pt_clust_7="13000.00000" pt_clust_8="13000.00000" pt_clust_9="62.19891"></scales>
<clustering>
<clus scale="   62.199">  2  9  1 -1</clus>
<clus scale="   81.357">  5  6 -1 -1</clus>
<clus scale="   90.776">  7  8 -1 -1</clus>
<clus scale="  105.984">  2  5  1 -1</clus>
<clus scale="   62.199">  2  5  1 -1</clus>
</clustering>
</event>
<event>
 9    1  0.3197504E-005  0.1019490E+03  0.7546771E-02  0.1281557E+00
         21   -1    0    0  501  502  0.00000000000E+00  0.00000000000E+00  0.34535949308E+02  0.34535949308E+02  0.00000000000E+00 0.  1.
          1   -1    0    0  502    0 -0.00000000000E+00 -0.00000000000E+00 -0.50775958914E+03  0.50775958914E+03  0.00000000000E+00 0. -1.
        -24    2    1    2    0    0  0.28977861504E+02  0.48240159226E+02 -0.31200901882E+03  0.32723375436E+03  0.81027604826E+02 0.  0.
         23    2    1    2    0    0 -0.23117194497E+02 -0.11886416753E+01 -0.10536429404E+03  0.14179888936E+03  0.92029739842E+02 0.  0.
         11    1    3    3    0    0  0.54318781180E+02  0.47759708694E+02 -0.24977107074E+03  0.26003289704E+03  0.00000000000E+00 0. -1.
        -12    1    3    3    0    0 -0.25340919676E+02  0.48045053188E+00 -0.62237948081E+02  0.67200857317E+02  0.00000000000E+00 0.  1.
        -13    1    4    4    0    0 -0.26920186926E+02  0.41858261680E+02 -0.42112401693E+02  0.65194055798E+02  0.00000000000E+00 0.  1.
         13    1    4    4    0    0  0.38029924298E+01 -0.43046903356E+02 -0.63251892344E+02  0.76604833562E+02  0.00000000000E+00 0. -1.
          2    1    1    2  501    0 -0.58606670076E+01 -0.47051517551E+02 -0.55850326973E+02  0.73262894732E+02  0.00000000000E+00 0. -1.
<scales pt_clust_5="13000.00000" pt_clust_6="13000.00000" pt_clust_7="13000.00000" pt_clust_8="13000.00000" pt_clust_9="47.41511"></scales>
<clustering>
<clus scale="   47.415">  1  9  2 -1</clus>
<clus scale="   81.028">  5  6 -1 -1</clus>
<clus scale="   92.030">  7  8 -1 -1</clus>
<clus scale="   92.139">  2  5  1 -1</clus>
<clus scale="   47.415">  1  5  2 -1</clus>
</clustering>
</event>
<event>
 9    1  0.3197504E-005  0.1302729E+03  0.7546771E-02  0.1231469E+00
          1   -1    0    0  502    0 -0.00000000000E+00  0.00000000000E+00  0.73984249677E+02  0.73984249677E+02  0.00000000000E+00 0. -1.
         21   -1    0    0  501  502  0.00000000000E+00 -0.00000000000E+00 -0.74221641632E+03  0.74221641632E+03  0.00000000000E+00 0.  1.
         23    2    1    2    0    0 -0.58488176228E+02  0.69151274341E+02 -0.17304492747E+02  0.13296030252E+03  0.95792646254E+02 0.  0.
        -24    2    1    2    0    0  0.29215616347E+02 -0.64843609615E+02 -0.64407959620E+03  0.65287039631E+03  0.79642841433E+02 0.  0.
         11    1    4    4    0    0 -0.23332600868E+02 -0.31025550784E+02 -0.15376057975E+03  0.15858534280E+03  0.00000000000E+00 0. -1.
        -12    1    4    4    0    0  0.52548217216E+02 -0.33818058831E+02 -0.49031901644E+03  0.49428505351E+03  0.00000000000E+00 0.  1.
        -11    1    3    3    0    0 -0.31514012183E+02  0.28634271390E+02 -0.56301982851E+02  0.70590139076E+02  0.00000000000E+00 0.  1.
         11    1    3    3    0    0 -0.26974164045E+02  0.40517002951E+02  0.38997490103E+02  0.62370163447E+02  0.00000000000E+00 0. -1.
          2    1    1    2  501    0  0.29272559881E+02 -0.43076647259E+01 -0.68480776972E+01  0.30369967163E+02  0.00000000000E+00 0. -1.
<scales pt_clust_5="13000.00000" pt_clust_6="13000.00000" pt_clust_7="13000.00000" pt_clust_8="13000.00000" pt_clust_9="29.58783"></scales>
<clustering>
<clus scale="   29.588">  2  9  1 -1</clus>
<clus scale="   79.643">  5  6 -1 -1</clus>
<clus scale="   95.793">  7  8 -1 -1</clus>
<clus scale="  118.902">  2  5  1 -1</clus>
<clus scale="   29.588">  2  5  1 -1</clus>
</clustering>
</event>
<event>
 9    1  0.3197504E-005  0.1446027E+03  0.7546771E-02  0.1209639E+00
         21   -1    0    0  501  502  0.00000000000E+00  0.00000000000E+00  0.30666562372E+03  0.30666562372E+03  0.00000000000E+00 0.  1.
         -4   -1    0    0    0  501 -0.00000000000E+00 -0.00000000000E+00 -0.16107071868E+03  0.16107071868E+03  0.00000000000E+00 0.  1.
        -24    2    1    2    0    0  0.58007465522E+02  0.77501455856E+02 -0.33512540890E+01  0.12557227166E+03  0.79911343308E+02 0.  0.
         23    2    1    2    0    0 -0.16507976666E+03 -0.53525506479E+02  0.11417175435E+03  0.22706158142E+03  0.91681312490E+02 0.  0.
         13    1    3    3    0    0  0.34831360783E+02  0.74994495940E+02 -0.31976336213E+02  0.88655987913E+02  0.00000000000E+00 0. -1.
        -14    1    3    3    0    0  0.23176104739E+02  0.25069599158E+01  0.28625082124E+02  0.36916283745E+02  0.00000000000E+00 0.  1.
        -11    1    4    4    0    0 -0.68170967916E+02 -0.55552466388E+02  0.16533694291E+02  0.89480279589E+02  0.00000000000E+00 0.  1.
         11    1    4    4    0    0 -0.96908798743E+02  0.20269599091E+01  0.97638060063E+02  0.13758130183E+03  0.00000000000E+00 0. -1.
         -3    1    1    2    0  502  0.10707230114E+03 -0.23975949377E+02  0.34774404776E+02  0.11510248932E+03  0.00000000000E+00 0.  1.
<scales pt_clust_5="13000.00000" pt_clust_6="13000.00000" pt_clust_7="13000.00000" pt_clust_8="13000.00000" pt_clust_9="109.72391"></scales>
<clustering>
<clus scale="   79.911">  5  6 -1 -1</clus>
<clus scale="   91.681">  7  8 -1 -1</clus>
<clus scale="  109.724">  1  9  2 -1</clus>
<clus scale="  137.442">  2  5  1 -1</clus>
<clus scale="  109.724">  1  5  2 -1</clus>
</clustering>
</event>
<event>
 9    1  0.3197504E-005  0.8835268E+02  0.7546771E-02  0.1311025E+00
         21   -1    0    0  501  502  0.00000000000E+00  0.00000000000E+00  0.40539388886E+02  0.40539388886E+02  0.00000000000E+00 0. -1.
          1   -1    0    0  502    0 -0.00000000000E+00 -0.00000000000E+00 -0.41391610103E+03  0.41391610103E+03  0.00000000000E+00 0. -1.
         23    2    1    2    0    0  0.20189418897E+02  0.26863921271E+02 -0.12335125214E+03  0.15479440934E+03  0.87272532094E+02 0.  0.
        -24    2    1    2    0    0 -0.56778798314E+01  0.31839957669E+02 -0.76383510811E+02  0.11579086360E+03  0.80790235463E+02 0.  0.
         11    1    4    4    0    0  0.33119172931E+02  0.69787380406E+01 -0.10587038286E+02  0.35463612054E+02  0.00000000000E+00 0. -1.
        -12    1    4    4    0    0 -0.38797052762E+02  0.24861219628E+02 -0.65796472526E+02  0.80327251548E+02  0.00000000000E+00 0.  1.
        -11    1    3    3    0    0 -0.12322057178E+02  0.33543988133E+02 -0.10622370010E+02  0.37280919752E+02  0.00000000000E+00 0. -1.
         11    1    3    3    0    0  0.32511476074E+02 -0.66800668615E+01 -0.11272888213E+03  0.11751348959E+03  0.00000000000E+00 0.  1.
          2    1    1    2  501    0 -0.14511539065E+02 -0.58703878940E+02 -0.17364194920E+03  0.18387021697E+03  0.00000000000E+00 0. -1.
<scales pt_clust_5="13000.00000" pt_clust_6="13000.00000" pt_clust_7="13000.00000" pt_clust_8="13000.00000" pt_clust_9="60.47093"></scales>
<clustering>
<clus scale="   60.471">  1  9  2 -1</clus>
<clus scale="   80.790">  5  6 -1 -1</clus>
<clus scale="   81.956">  1  5  2 -1</clus>
<clus scale="   87.273">  7  8 -1 -1</clus>
<clus scale="   60.471">  1  5  2 -1</clus>
</clustering>
</event>
<event>
 9    1  0.3197504E-005  0.9802050E+02  0.7546771E-02  0.1289553E+00
         -2   -1    0    0    0  501 -0.00000000000E+00  0.00000000000E+00  0.28309699137E+03  0.28309699137E+03  0.00000000000E+00 0.  1.
         21   -1    0    0  501  502  0.00000000000E+00 -0.00000000000E+00 -0.86677227102E+02  0.86677227102E+02  0.00000000000E+00 0.  1.
        -24    2    1    2    0    0  0.18729511528E+02 -0.37320130574E+02  0.20395908551E+03  0.22335075657E+03  0.80886742742E+02 0.  0.
         23    2    1    2    0    0 -0.37265093350E+02 -0.65660575382E+01 -0.10365782463E+02  0.98699734223E+02  0.90567034817E+02 0.  0.
         13    1    3    3    0    0  0.30261863993E+02 -0.26066362934E+02  0.33493601305E+02  0.52125397047E+02  0.00000000000E+00 0. -1.
        -14    1    3    3    0    0 -0.11532352465E+02 -0.11253767640E+02  0.17046548420E+03  0.17122535952E+03  0.00000000000E+00 0.  1.
        -11    1    4    4    0    0 -0.64557304258E+02 -0.10957042857E+02  0.73117818633E+01  0.65887513804E+02  0.00000000000E+00 0.  1.
         11    1    4    4    0    0  0.27292210908E+02  0.43909853193E+01 -0.17677564326E+02  0.32812220419E+02  0.00000000000E+00 0. -1.
         -1    1    1    2    0  502  0.18535581822E+02  0.43886188112E+02  0.28264612226E+01  0.47723727678E+02  0.00000000000E+00 0.  1.
<scales pt_clust_5="13000.00000" pt_clust_6="13000.00000" pt_clust_7="13000.00000" pt_clust_8="13000.00000" pt_clust_9="47.63995"></scales>
<clustering>
<clus scale="   47.640">  2  9  1 -1</clus>
<clus scale="   80.887">  5  6 -1 -1</clus>
<clus scale="   89.153">  1  5  2 -1</clus>
<clus scale="   90.567">  7  8 -1 -1</clus>
<clus scale="   47.640">  2  5  1 -1</clus>
</clustering>
</event>
<event>
 9    1  0.3197504E-005  0.1042058E+03  0.7546771E-02  0.1275564E+00
          1   -1    0    0  502    0 -0.00000000000E+00  0.00000000000E+00  0.36336644167E+02  0.36336644167E+02  0.00000000000E+00 0. -1.
         21   -1    0    0  501  502  0.00000000000E+00 -0.00000000000E+00 -0.67360632778E+03  0.67360632778E+03  0.00000000000E+00 0. -1.
         23    2    1    2    0    0  0.22779149211E+02  0.51754143642E+02 -0.11684371673E+03  0.15855279549E+03  0.91044790045E+02 0.  0.
        -24    2    1    2    0    0  0.43498853768E+02 -0.48804448442E+02 -0.22163687370E+03  0.24532417608E+03  0.82383391052E+02 0.  0.
         11    1    4    4    0    0  0.54272675002E+02 -0.43774779421E+01 -0.15685431552E+03  0.16603602579E+03  0.00000000000E+00 0. -1.
        -12    1    4    4    0    0 -0.10773821235E+02 -0.44426970500E+02 -0.64782558179E+02  0.79288150288E+02  0.00000000000E+00 0.  1.
        -11    1    3    3    0    0 -0.30760603172E+02  0.64110527262E+01 -0.61973552425E+02  0.69484080945E+02  0.00000000000E+00 0.  1.
         11    1    3    3    0    0  0.53539752384E+02  0.45343090916E+02 -0.54870164303E+02  0.89068714540E+02  0.00000000000E+00 0. -1.
          2    1    1    2  501    0 -0.66278002979E+02 -0.29496952007E+01 -0.29878909319E+03  0.30606600038E+03  0.00000000000E+00 0. -1.
<scales pt_clust_5="13000.00000" pt_clust_6="13000.00000" pt_clust_7="13000.00000" pt_clust_8="13000.00000" pt_clust_9="66.34361"></scales>
<clustering>
<clus scale="   66.344">  2  9  1 -1</clus>
<clus scale="   82.383">  5  6 -1 -1</clus>
<clus scale="   91.045">  7  8 -1 -1</clus>
<clus scale="   96.730">  2  5  1 -1</clus>
<clus scale="   66.344">  2  5  1 -1</clus>
</clustering>
</event>
<event>
 9    1  0.3197504E-005  0.9300288E+02  0.7546771E-02  0.1302443E+00
         -4   -1    0    0    0  501 -0.00000000000E+00  0.00000000000E+00  0.21689061104E+03  0.21689061104E+03  0.00000000000E+00 0.  1.
         21   -1    0    0  501  502  0.00000000000E+00 -0.00000000000E+00 -0.16681011123E+03  0.16681011123E+03  0.00000000000E+00 0. -1.
        -24    2    1    2    0    0  0.69178235218E+01  0.15438920005E+02  0.16337900029E+03  0.18292678067E+03  0.80518897258E+02 0.  0.
         23    2    1    2    0    0  0.37857232195E+02 -0.22780463486E+02 -0.30105870220E+02  0.10601256970E+03  0.91543333816E+02 0.  0.
         13    1    3    3    0    0  0.18812674517E+02 -0.29152497968E+02  0.53696486959E+02  0.63930411949E+02  0.00000000000E+00 0. -1.
        -14    1    3    3    0    0 -0.11894850995E+02  0.44591417973E+02  0.10968251333E+03  0.11899636872E+03  0.00000000000E+00 0.  1.
        -11    1    4    4    0    0  0.37547149227E+01  0.33460894547E+02 -0.20818780602E+02  0.39587257720E+02  0.00000000000E+00 0.  1.
         11    1    4    4    0    0  0.34102517272E+02 -0.56241358034E+02 -0.92870896179E+01  0.66425311978E+02  0.00000000000E+00 0. -1.
         -3    1    1    2    0  502 -0.44775055717E+02  0.73415434812E+01 -0.83192630259E+02  0.94761371900E+02  0.00000000000E+00 0.  1.
<scales pt_clust_5="13000.00000" pt_clust_6="13000.00000" pt_clust_7="13000.00000" pt_clust_8="13000.00000" pt_clust_9="45.37294"></scales>
<clustering>
<clus scale="   45.373">  2  9  1 -1</clus>
<clus scale="   80.519">  5  6 -1 -1</clus>
<clus scale="   82.174">  1  5  2 -1</clus>
<clus scale="   91.543">  7  8 -1 -1</clus>
<clus scale="   45.373">  2  5  1 -1</clus>
</clustering>
</event>
<event>
 9    1  0.3197504E-005  0.1225678E+03  0.7546771E-02  0.1240742E+00
         21   -1    0    0  501  502  0.00000000000E+00  0.00000000000E+00  0.10161512641E+03  0.10161512641E+03  0.00000000000E+00 0.  1.
          1   -1    0    0  502    0 -0.00000000000E+00 -0.00000000000E+00 -0.40089158417E+03  0.40089158417E+03  0.00000000000E+00 0. -1.
         23    2    1    2    0    0 -0.50505230719E+02 -0.50191843194E+02 -0.24649449701E+03  0.27215594858E+03  0.90770721240E+02 0.  0.
        -24    2    1    2    0    0  0.79495733017E+02  0.86182772090E+02 -0.90583837305E+02  0.17064499966E+03  0.84659568590E+02 0.  0.
         13    1    4    4    0    0  0.55605803132E+02  0.64206531638E+02 -0.10506217712E+03  0.13510198040E+03  0.00000000000E+00 0. -1.
        -14    1    4    4    0    0  0.23889929886E+02  0.21976240452E+02  0.14478339812E+02  0.35543019259E+02  0.00000000000E+00 0.  1.
        -11    1    3    3    0    0  0.11233302522E+02  0.19047813273E+02 -0.57940050068E+02  0.62016575832E+02  0.00000000000E+00 0.  1.
         11    1    3    3    0    0 -0.61738533242E+02 -0.69239656467E+02 -0.18855444694E+03  0.21013937274E+03  0.00000000000E+00 0. -1.
          2    1    1    2  501    0 -0.28990502298E+02 -0.35990928896E+02  0.37801876558E+02  0.59705762348E+02  0.00000000000E+00 0. -1.
<scales pt_clust_5="13000.00000" pt_clust_6="13000.00000" pt_clust_7="13000.00000" pt_clust_8="13000.00000" pt_clust_9="46.21468"></scales>
<clustering>
<clus scale="   46.215">  1  9  2 -1</clus>
<clus scale="   84.660">  5  6 -1 -1</clus>
<clus scale="   90.771">  7  8 -1 -1</clus>
<clus scale="  118.113">  1  5  2 -1</clus>
<clus scale="   46.215">  1  5  2 -1</clus>
</clustering>
</event>
<event>
 9    1  0.3197504E-005  0.1092060E+03  0.7546771E-02  0.1265390E+00
         -2   -1    0    0    0  501 -0.00000000000E+00  0.00000000000E+00  0.84798307606E+02  0.84798307606E+02  0.00000000000E+00 0.  1.
         21   -1    0    0  501  502  0.00000000000E+00 -0.00000000000E+00 -0.38086615343E+03  0.38086615343E+03  0.00000000000E+00 0.  1.
         23    2    1    2    0    0  0.70126649115E+02  0.42558019380E+02 -0.92577375240E+02  0.15148003870E+03  0.87445410328E+02 0.  0.
        -24    2    1    2    0    0 -0.49885305920E+02  0.29542784118E+02 -0.21709412123E+03  0.23807071037E+03  0.78654216813E+02 0.  0.
         13    1    4    4    0    0 -0.14093580424E+02  0.50745957081E+02 -0.89277099991E+02  0.10365414489E+03  0.00000000000E+00 0. -1.
        -14    1    4    4    0    0 -0.35791725496E+02 -0.21203172963E+02 -0.12781702124E+03  0.13441656548E+03  0.00000000000E+00 0.  1.
        -13    1    3    3    0    0  0.41215458025E+02 -0.23635748582E+02 -0.32994383387E+02  0.57844549669E+02  0.00000000000E+00 0. -1.
         13    1    3    3    0    0  0.28911191090E+02  0.66193767962E+02 -0.59582991853E+02  0.93635489028E+02  0.00000000000E+00 0.  1.
         -1    1    1    2    0  502 -0.20241343195E+02 -0.72100803499E+02  0.13603650644E+02  0.76113711973E+02  0.00000000000E+00 0.  1.
<scales pt_clust_5="13000.00000" pt_clust_6="13000.00000" pt_clust_7="13000.00000" pt_clust_8="13000.00000" pt_clust_9="74.88821"></scales>
<clustering>
<clus scale="   74.888">  2  9  1 -1</clus>
<clus scale="   78.654">  5  6 -1 -1</clus>
<clus scale="   87.445">  7  8 -1 -1</clus>
<clus scale="  102.302">  2  5  1 -1</clus>
<clus scale="   74.888">  2  5  1 -1</clus>
</clustering>
</event>
<event>
 9    1  0.3197504E-005  0.1013275E+03  0.7546771E-02  0.1281559E+00
         21   -1    0    0  501  502  0.00000000000E+00  0.00000000000E+00  0.26059056063E+03  0.26059056063E+03  0.00000000000E+00 0. -1.
          3   -1    0    0  502    0 -0.00000000000E+00 -0.00000000000E+00 -0.71429759116E+02  0.71429759116E+02  0.00000000000E+00 0. -1.
         23    2    1    2    0    0  0.19004290641E+02  0.91703889608E+00 -0.70612834462E+01  0.93474005471E+02  0.91244309148E+02 0.  0.
        -24    2    1    2    0    0 -0.30223118232E+02  0.18358819480E+02  0.12176989466E+03  0.16082534253E+03  0.98926237298E+02 0.  0.
         11    1    4    4    0    0  0.12721869691E+02  0.50006648731E+02  0.56187280637E+02  0.76285787609E+02  0.00000000000E+00 0. -1.
        -12    1    4    4    0    0 -0.42944987924E+02 -0.31647829251E+02  0.65582614027E+02  0.84539554924E+02  0.00000000000E+00 0.  1.
        -13    1    3    3    0    0  0.43943781422E+02 -0.20646223638E+02  0.18292136223E+02  0.51883761658E+02  0.00000000000E+00 0.  1.
         13    1    3    3    0    0 -0.24939490781E+02  0.21563262534E+02 -0.25353419669E+02  0.41590243813E+02  0.00000000000E+00 0. -1.
          4    1    1    2  501    0  0.11218827591E+02 -0.19275858376E+02  0.74452190294E+02  0.77720971740E+02  0.00000000000E+00 0. -1.
<scales pt_clust_5="13000.00000" pt_clust_6="13000.00000" pt_clust_7="13000.00000" pt_clust_8="13000.00000" pt_clust_9="22.30293"></scales>
<clustering>
<clus scale="   22.303">  1  9  2 -1</clus>
<clus scale="   91.244">  7  8 -1 -1</clus>
<clus scale="   93.842">  2  7  1 -1</clus>
<clus scale="   98.926">  5  6 -1 -1</clus>
<clus scale="   22.303">  1  5  2 -1</clus>
</clustering>
</event>
<event>
 9    1  0.3197504E-005  0.9485667E+02  0.7546771E-02  0.1296293E+00
         -2   -1    0    0    0  501 -0.00000000000E+00  0.00000000000E+00  0.38261068112E+03  0.38261068112E+03  0.00000000000E+00 0.  1.
         21   -1    0    0  501  502  0.00000000000E+00 -0.00000000000E+00 -0.43318342172E+02  0.43318342172E+02  0.00000000000E+00 0.  1.
        -24    2    1    2    0    0  0.26225780709E+01  0.13078457772E+02  0.18558040740E+03  0.20367639967E+03  0.82861717333E+02 0.  0.
         23    2    1    2    0    0 -0.13951173848E+02 -0.44327992430E+02  0.15843998105E+03  0.18867845274E+03  0.91305666684E+02 0.  0.
         11    1    3    3    0    0 -0.15348398456E+02 -0.29127580946E+02  0.11399384014E+03  0.11865321276E+03  0.00000000000E+00 0. -1.
        -12    1    3    3    0    0  0.17970976527E+02  0.42206038718E+02  0.71586567253E+02  0.85023186912E+02  0.00000000000E+00 0.  1.
        -13    1    4    4    0    0  0.99003861439E+01 -0.46223216205E+02  0.15781584982E+03  0.16474357595E+03  0.00000000000E+00 0.  1.
         13    1    4    4    0    0 -0.23851559992E+02  0.18952237751E+01  0.62413122951E+00  0.23934876791E+02  0.00000000000E+00 0. -1.
         -1    1    1    2    0  502  0.11328595777E+02  0.31249534658E+02 -0.47280494949E+01  0.33574170885E+02  0.00000000000E+00 0.  1.
<scales pt_clust_5="13000.00000" pt_clust_6="13000.00000" pt_clust_7="13000.00000" pt_clust_8="13000.00000" pt_clust_9="33.23959"></scales>
<clustering>
<clus scale="   33.240">  2  9  1 -1</clus>
<clus scale="   82.862">  5  6 -1 -1</clus>
<clus scale="   86.759">  1  5  2 -1</clus>
<clus scale="   91.306">  7  8 -1 -1</clus>
<clus scale="   33.240">  2  5  1 -1</clus>
</clustering>
</event>
<event>
 9    1  0.3197504E-005  0.3070103E+03  0.7546771E-02  0.1097942E+00
         21   -1    0    0  501  502  0.00000000000E+00  0.00000000000E+00  0.13075687739E+04  0.13075687739E+04  0.00000000000E+00 0.  1.
          3   -1    0    0  502    0 -0.00000000000E+00 -0.00000000000E+00 -0.20279945720E+03  0.20279945720E+03  0.00000000000E+00 0. -1.
        -24    2    1    2    0    0 -0.16979261188E+03  0.69757193778E+02  0.69752719944E+02  0.21207905926E+03  0.80102985602E+02 0.  0.
         23    2    1    2    0    0 -0.15136684960E+03 -0.24115673405E+03  0.82617045010E+03  0.87860129366E+03  0.91181835211E+02 0.  0.
         13    1    3    3    0    0 -0.25056803725E+02  0.26479345044E+01 -0.17082099870E+02  0.30440977416E+02  0.00000000000E+00 0. -1.
        -14    1    3    3    0    0 -0.14473580816E+03  0.67109259273E+02  0.86834819814E+02  0.18163808184E+03  0.00000000000E+00 0.  1.
        -11    1    4    4    0    0 -0.93477019682E+02 -0.19726239252E+03  0.69723181086E+03  0.73060427236E+03  0.00000000000E+00 0.  1.
         11    1    4    4    0    0 -0.57889829918E+02 -0.43894341530E+02  0.12893863924E+03  0.14799702130E+03  0.00000000000E+00 0. -1.
          4    1    1    2  501    0  0.32115946148E+03  0.17139954027E+03  0.20884614663E+03  0.41968787815E+03  0.00000000000E+00 0. -1.
<scales pt_clust_5="13000.00000" pt_clust_6="13000.00000" pt_clust_7="13000.00000" pt_clust_8="13000.00000" pt_clust_9="293.15749"></scales>
<clustering>
<clus scale="   80.103">  5  6 -1 -1</clus>
<clus scale="   91.182">  7  8 -1 -1</clus>
<clus scale="  200.280">  2  5  1 -1</clus>
<clus scale="  293.157">  1  9  2 -1</clus>
<clus scale="  293.157">  1  5  2 -1</clus>
</clustering>
</event>
<event>
 9    1  0.3197504E-005  0.3302452E+03  0.7546771E-02  0.1071028E+00
          1   -1    0    0  502    0 -0.00000000000E+00  0.00000000000E+00  0.95683340803E+03  0.95683340803E+03  0.00000000000E+00 0. -1.
         21   -1    0    0  501  502  0.00000000000E+00 -0.00000000000E+00 -0.13821174011E+03  0.13821174011E+03  0.00000000000E+00 0. -1.
        -24    2    1    2    0    0  0.93595046250E+02 -0.10001699874E+03  0.29838411655E+03  0.33845477787E+03  0.82189554902E+02 0.  0.
         23    2    1    2    0    0  0.13571380173E+03 -0.21659420392E+02  0.46199769726E+03  0.49054605189E+03  0.91138303043E+02 0.  0.
         13    1    3    3    0    0  0.73565725592E+02 -0.10802776718E+03  0.28370362565E+03  0.31236142795E+03  0.00000000000E+00 0. -1.
        -14    1    3    3    0    0  0.20029320659E+02  0.80107684415E+01  0.14680490902E+02  0.26093349923E+02  0.00000000000E+00 0.  1.
        -11    1    4    4    0    0  0.47115095842E+02  0.12563314063E+02  0.59171353721E+02  0.76674103957E+02  0.00000000000E+00 0.  1.
         11    1    4    4    0    0  0.88598705888E+02 -0.34222734455E+02  0.40282634353E+03  0.41387194793E+03  0.00000000000E+00 0. -1.
          2    1    1    2  501    0 -0.22930884798E+03  0.12167641913E+03  0.58239854110E+02  0.26604431838E+03  0.00000000000E+00 0. -1.
<scales pt_clust_5="13000.00000" pt_clust_6="13000.00000" pt_clust_7="13000.00000" pt_clust_8="13000.00000" pt_clust_9="259.59141"></scales>
<clustering>
<clus scale="   82.190">  5  6 -1 -1</clus>
<clus scale="   91.138">  7  8 -1 -1</clus>
<clus scale="  140.538">  5  7 -1 -1</clus>
<clus scale="  259.591">  2  9  1 -1</clus>
<clus scale="  259.591">  2  5  1 -1</clus>
</clustering>
</event>
<event>
 9    1  0.3197504E-005  0.1023907E+03  0.7546771E-02  0.1280140E+00
          1   -1    0    0  502    0 -0.00000000000E+00  0.00000000000E+00  0.35368552612E+03  0.35368552612E+03  0.00000000000E+00 0. -1.
         21   -1    0    0  501  502  0.00000000000E+00 -0.00000000000E+00 -0.12827744965E+03  0.12827744965E+03  0.00000000000E+00 0.  1.
        -24    2    1    2    0    0  0.33574580990E+02 -0.24536842752E+02  0.14241010989E+03  0.16809729511E+03  0.79036397199E+02 0.  0.
         23    2    1    2    0    0 -0.98972602360E+02  0.63764873285E+02 -0.53721455505E+02  0.15731556104E+03  0.89446385515E+02 0.  0.
         11    1    3    3    0    0  0.12856100883E+02 -0.49847716526E+02  0.57887524214E+02  0.77466377432E+02  0.00000000000E+00 0. -1.
        -12    1    3    3    0    0  0.20718480107E+02  0.25310873773E+02  0.84522585680E+02  0.90630917678E+02  0.00000000000E+00 0.  1.
        -13    1    4    4    0    0 -0.53063901745E+02  0.55552281128E+02 -0.73810357984E+02  0.10653545209E+03  0.00000000000E+00 0.  1.
         13    1    4    4    0    0 -0.45908700615E+02  0.82125921570E+01  0.20088902479E+02  0.50780108950E+02  0.00000000000E+00 0. -1.
          2    1    1    2  501    0  0.65398021371E+02 -0.39228030532E+02  0.13671942209E+03  0.15655011962E+03  0.00000000000E+00 0. -1.
<scales pt_clust_5="13000.00000" pt_clust_6="13000.00000" pt_clust_7="13000.00000" pt_clust_8="13000.00000" pt_clust_9="76.26103"></scales>
<clustering>
<clus scale="   76.261">  2  9  1 -1</clus>
<clus scale="   79.036">  5  6 -1 -1</clus>
<clus scale="   89.446">  7  8 -1 -1</clus>
<clus scale="   93.434">  1  5  2 -1</clus>
<clus scale="   76.261">  2  5  1 -1</clus>
</clustering>
</event>
<event>
 9    1  0.3197504E-005  0.1104527E+03  0.7546771E-02  0.1263420E+00
         21   -1    0    0  501  502  0.00000000000E+00  0.00000000000E+00  0.29031836025E+03  0.29031836025E+03  0.00000000000E+00 0. -1.
          1   -1    0    0  502    0 -0.00000000000E+00 -0.00000000000E+00 -0.69481359918E+02  0.69481359918E+02  0.00000000000E+00 0. -1.
         23    2    1    2    0    0  0.31636420526E+02 -0.46485840507E+02  0.32287098304E+02  0.11093777309E+03  0.90016311351E+02 0.  0.
        -24    2    1    2    0    0 -0.71672382062E+02  0.49804583191E+02  0.16161455204E+03  0.20049454744E+03  0.80382667686E+02 0.  0.
         11    1    4    4    0    0 -0.45659882091E+02  0.33690267812E+02  0.16009926215E+03  0.16985768372E+03  0.00000000000E+00 0. -1.
        -12    1    4    4    0    0 -0.26012499971E+02  0.16114315378E+02  0.15152898864E+01  0.30636863715E+02  0.00000000000E+00 0.  1.
        -13    1    3    3    0    0 -0.15099812053E+01  0.25281290995E+02 -0.56172478686E+00  0.25332572952E+02  0.00000000000E+00 0.  1.
         13    1    3    3    0    0  0.33146401731E+02 -0.71767131502E+02  0.32848823091E+02  0.85605200135E+02  0.00000000000E+00 0. -1.
          2    1    1    2  501    0  0.40035961537E+02 -0.33187426837E+01  0.26935349987E+02  0.48367399641E+02  0.00000000000E+00 0. -1.
<scales pt_clust_5="13000.00000" pt_clust_6="13000.00000" pt_clust_7="13000.00000" pt_clust_8="13000.00000" pt_clust_9="40.17330"></scales>
<clustering>
<clus scale="   40.173">  1  9  2 -1</clus>
<clus scale="   80.383">  5  6 -1 -1</clus>
<clus scale="   90.016">  7  8 -1 -1</clus>
<clus scale="  102.753">  1  5  2 -1</clus>
<clus scale="   40.173">  1  5  2 -1</clus>
</clustering>
</event>
<event>
 9    1  0.3197504E-005  0.1129483E+03  0.7546771E-02  0.1267287E+00
         21   -1    0    0  501  502  0.00000000000E+00  0.00000000000E+00  0.19488844652E+02  0.19488844652E+02  0.00000000000E+00 0.  1.
         -2   -1    0    0    0  501 -0.00000000000E+00 -0.00000000000E+00 -0.67038383848E+03  0.67038383848E+03  0.00000000000E+00 0.  1.
        -24    2    1    2    0    0 -0.21467078040E+02  0.34021496216E+02 -0.28929078531E+03  0.30296093540E+03  0.80485230148E+02 0.  0.
         23    2    1    2    0    0  0.34861809676E+02 -0.16916666819E+02 -0.26942173737E+03  0.29220376490E+03  0.10627063689E+03 0.  0.
         11    1    3    3    0    0  0.30887908550E+02  0.11035993621E+02 -0.10546069600E+03  0.11044371621E+03  0.00000000000E+00 0. -1.
        -12    1    3    3    0    0 -0.52354986590E+02  0.22985502595E+02 -0.18383008931E+03  0.19251721920E+03  0.00000000000E+00 0.  1.
        -13    1    4    4    0    0  0.57225856705E+02 -0.44349955542E+02 -0.21855545783E+03  0.23023510892E+03  0.00000000000E+00 0.  1.
         13    1    4    4    0    0 -0.22364047030E+02  0.27433288723E+02 -0.50866279538E+02  0.61968655978E+02  0.00000000000E+00 0. -1.
         -1    1    1    2    0  502 -0.13394731635E+02 -0.17104829397E+02 -0.92182471148E+02  0.94707982827E+02  0.00000000000E+00 0.  1.
<scales pt_clust_5="13000.00000" pt_clust_6="13000.00000" pt_clust_7="13000.00000" pt_clust_8="13000.00000" pt_clust_9="21.72543"></scales>
<clustering>
<clus scale="   21.725">  1  9  2 -1</clus>
<clus scale="   80.485">  5  6 -1 -1</clus>
<clus scale="   89.117">  2  5  1 -1</clus>
<clus scale="  106.271">  7  8 -1 -1</clus>
<clus scale="   21.725">  1  5  2 -1</clus>
</clustering>
</event>
<event>
 9    1  0.3197504E-005  0.2069557E+03  0.7546771E-02  0.1170277E+00
         21   -1    0    0  501  502  0.00000000000E+00  0.00000000000E+00  0.41641613262E+03  0.41641613262E+03  0.00000000000E+00 0.  1.
         -4   -1    0    0    0  501 -0.00000000000E+00 -0.00000000000E+00 -0.21032698015E+03  0.21032698015E+03  0.00000000000E+00 0.  1.
        -24    2    1    2    0    0  0.49540201457E+02  0.60510261721E+02  0.86720515464E+02  0.14157199847E+03  0.80040362416E+02 0.  0.
         23    2    1    2    0    0  0.84118988072E+02 -0.17661127180E+03  0.19796236047E+03  0.29146722467E+03  0.86582338887E+02 0.  0.
         11    1    3    3    0    0  0.64388440647E+02  0.27823074727E+02  0.34414493874E+02  0.78130353672E+02  0.00000000000E+00 0. -1.
        -12    1    3    3    0    0 -0.14848239190E+02  0.32687186995E+02  0.52306021590E+02  0.63441644803E+02  0.00000000000E+00 0.  1.
        -13    1    4    4    0    0  0.49833255732E+02 -0.12214476097E+03  0.18265594223E+03  0.22531286967E+03  0.00000000000E+00 0.  1.
         13    1    4    4    0    0  0.34285732340E+02 -0.54466510836E+02  0.15306418243E+02  0.66154354991E+02  0.00000000000E+00 0. -1.
         -3    1    1    2    0  502 -0.13365918953E+03  0.11610101008E+03 -0.78593723477E+02  0.19370388963E+03  0.00000000000E+00 0.  1.
<scales pt_clust_5="13000.00000" pt_clust_6="13000.00000" pt_clust_7="13000.00000" pt_clust_8="13000.00000" pt_clust_9="187.97392"></scales>
<clustering>
<clus scale="   80.040">  5  6 -1 -1</clus>
<clus scale="   86.582">  7  8 -1 -1</clus>
<clus scale="  111.903">  2  5  1 -1</clus>
<clus scale="  187.974">  1  9  2 -1</clus>
<clus scale="  187.974">  1  5  2 -1</clus>
</clustering>
</event>
<event>
 9    1  0.3197504E-005  0.9705395E+02  0.7546771E-02  0.1291822E+00
         21   -1    0    0  501  502  0.00000000000E+00  0.00000000000E+00  0.33639069152E+02  0.33639069152E+02  0.00000000000E+00 0.  1.
          3   -1    0    0  502    0 -0.00000000000E+00 -0.00000000000E+00 -0.41190683934E+03  0.41190683934E+03  0.00000000000E+00 0. -1.
         23    2    1    2    0    0  0.23073805586E+02 -0.38390172632E+02 -0.23786005934E+03  0.25841013016E+03  0.90510671657E+02 0.  0.
        -24    2    1    2    0    0 -0.65565159601E+01  0.23720823283E+02 -0.14177069330E+03  0.16500280772E+03  0.80754762815E+02 0.  0.
         13    1    4    4    0    0  0.85581884055E+01 -0.26656672563E+02 -0.27669336602E+02  0.39362583362E+02  0.00000000000E+00 0. -1.
        -14    1    4    4    0    0 -0.15114704366E+02  0.50377495847E+02 -0.11410135670E+03  0.12564022436E+03  0.00000000000E+00 0.  1.
        -13    1    3    3    0    0  0.48121437920E+02 -0.46231139940E+02 -0.20902670857E+03  0.21942004462E+03  0.00000000000E+00 0. -1.
         13    1    3    3    0    0 -0.25047632334E+02  0.78409673085E+01 -0.28833350774E+02  0.38990085544E+02  0.00000000000E+00 0.  1.
          4    1    1    2  501    0 -0.16517289626E+02  0.14669349348E+02  0.13629824512E+01  0.22132970611E+02  0.00000000000E+00 0. -1.
<scales pt_clust_5="13000.00000" pt_clust_6="13000.00000" pt_clust_7="13000.00000" pt_clust_8="13000.00000" pt_clust_9="22.09096"></scales>
<clustering>
<clus scale="   22.091">  1  9  2 -1</clus>
<clus scale="   80.755">  5  6 -1 -1</clus>
<clus scale="   88.026">  1  5  2 -1</clus>
<clus scale="   90.511">  7  8 -1 -1</clus>
<clus scale="   22.091">  1  5  2 -1</clus>
</clustering>
</event>
<event>
 9    1  0.3197504E-005  0.3472709E+03  0.7546771E-02  0.1096608E+00
          1   -1    0    0  502    0 -0.00000000000E+00  0.00000000000E+00  0.43903982628E+03  0.43903982628E+03  0.00000000000E+00 0. -1.
         21   -1    0    0  501  502  0.00000000000E+00 -0.00000000000E+00 -0.10630625403E+04  0.10630625403E+04  0.00000000000E+00 0. -1.
         23    2    1    2    0    0 -0.80337608183E+02 -0.73686389114E+02 -0.21746779490E+02  0.14492452536E+03  0.92985915076E+02 0.  0.
        -24    2    1    2    0    0 -0.11514303798E+03 -0.21302668878E+03  0.29807156996E+03  0.39227230134E+03  0.79953788202E+02 0.  0.
         13    1    4    4    0    0 -0.91294423317E+02 -0.19561224594E+03  0.21741109170E+03  0.30637624791E+03  0.00000000000E+00 0. -1.
        -14    1    4    4    0    0 -0.23848614665E+02 -0.17414442844E+02  0.80660478257E+02  0.85896053423E+02  0.00000000000E+00 0.  1.
        -13    1    3    3    0    0 -0.46306146770E+02 -0.14104484393E+02  0.31774445158E+02  0.57903463401E+02  0.00000000000E+00 0.  1.
         13    1    3    3    0    0 -0.34031461413E+02 -0.59581904722E+02 -0.53521224648E+02  0.87021061956E+02  0.00000000000E+00 0. -1.
          2    1    1    2  501    0  0.19548064617E+03  0.28671307790E+03 -0.90034750452E+03  0.96490553992E+03  0.00000000000E+00 0. -1.
<scales pt_clust_5="13000.00000" pt_clust_6="13000.00000" pt_clust_7="13000.00000" pt_clust_8="13000.00000" pt_clust_9="337.94152"></scales>
<clustering>
<clus scale="   79.954">  5  6 -1 -1</clus>
<clus scale="   92.986">  7  8 -1 -1</clus>
<clus scale="  143.284">  1  7  2 -1</clus>
<clus scale="  337.942">  2  9  1 -1</clus>
<clus scale="  337.942">  2  5  1 -1</clus>
</clustering>
</event>
<event>
 9    1  0.3197504E-005  0.9499201E+02  0.7546771E-02  0.1298732E+00
         -4   -1    0    0    0  501 -0.00000000000E+00  0.00000000000E+00  0.66188588987E+02  0.66188588987E+02  0.00000000000E+00 0.  1.
         21   -1    0    0  501  502  0.00000000000E+00 -0.00000000000E+00 -0.23865043046E+03  0.23865043046E+03  0.00000000000E+00 0. -1.
         23    2    1    2    0    0  0.75574487192E+00  0.34241744150E+02  0.34207139585E+01  0.96856099699E+02  0.90533610180E+02 0.  0.
        -24    2    1    2    0    0  0.18675537115E+02 -0.10748577998E+02 -0.13251493270E+03  0.15497108827E+03  0.77404930041E+02 0.  0.
         13    1    4    4    0    0  0.46104035460E+01 -0.43843224907E+02 -0.66235957729E+02  0.79565609954E+02  0.00000000000E+00 0. -1.
        -14    1    4    4    0    0  0.14065133569E+02  0.33094646909E+02 -0.66278974973E+02  0.75405478314E+02  0.00000000000E+00 0.  1.
        -11    1    3    3    0    0  0.21805483578E+02  0.52658235075E+02 -0.19973679400E+02  0.60393018670E+02  0.00000000000E+00 0.  1.
         11    1    3    3    0    0 -0.21049738706E+02 -0.18416490925E+02  0.23394393358E+02  0.36463081030E+02  0.00000000000E+00 0. -1.
         -3    1    1    2    0  502 -0.19431281987E+02 -0.23493166152E+02 -0.43367622725E+02  0.53011831475E+02  0.00000000000E+00 0.  1.
<scales pt_clust_5="13000.00000" pt_clust_6="13000.00000" pt_clust_7="13000.00000" pt_clust_8="13000.00000" pt_clust_9="30.48776"></scales>
<clustering>
<clus scale="   30.488">  2  9  1 -1</clus>
<clus scale="   77.405">  5  6 -1 -1</clus>
<clus scale="   82.575">  2  5  1 -1</clus>
<clus scale="   90.534">  7  8 -1 -1</clus>
<clus scale="   30.488">  2  5  1 -1</clus>
</clustering>
</event>
<event>
 9    1  0.3197504E-005  0.9211659E+02  0.7546771E-02  0.1302339E+00
          3   -1    0    0  502    0 -0.00000000000E+00  0.00000000000E+00  0.26410814739E+03  0.26410814739E+03  0.00000000000E+00 0. -1.
         21   -1    0    0  501  502  0.00000000000E+00 -0.00000000000E+00 -0.41005429439E+02  0.41005429439E+02  0.00000000000E+00 0. -1.
        -24    2    1    2    0    0  0.22591198231E+02 -0.20127760976E+02  0.91432096465E+02  0.12682829697E+03  0.82523327900E+02 0.  0.
         23    2    1    2    0    0 -0.71197461867E+01  0.12677687335E+01  0.78205389580E+02  0.11951797468E+03  0.90089762399E+02 0.  0.
         13    1    3    3    0    0 -0.20830849715E+02 -0.25802842312E+02  0.10458877374E+02  0.34772102139E+02  0.00000000000E+00 0. -1.
        -14    1    3    3    0    0  0.43422047946E+02  0.56750813356E+01  0.80973219091E+02  0.92056194826E+02  0.00000000000E+00 0.  1.
        -11    1    4    4    0    0 -0.33051027998E+02  0.29165262412E+02  0.16624502777E+02  0.47110052811E+02  0.00000000000E+00 0.  1.
         11    1    4    4    0    0  0.25931281812E+02 -0.27897493679E+02  0.61580886803E+02  0.72407921869E+02  0.00000000000E+00 0. -1.
          4    1    1    2  501    0 -0.15471452044E+02  0.18859992243E+02  0.53465231906E+02  0.58767305183E+02  0.00000000000E+00 0. -1.
<scales pt_clust_5="13000.00000" pt_clust_6="13000.00000" pt_clust_7="13000.00000" pt_clust_8="13000.00000" pt_clust_9="24.39397"></scales>
<clustering>
<clus scale="   24.394">  2  9  1 -1</clus>
<clus scale="   82.523">  5  6 -1 -1</clus>
<clus scale="   84.731">  1  5  2 -1</clus>
<clus scale="   90.090">  7  8 -1 -1</clus>
<clus scale="   24.394">  2  5  1 -1</clus>
</clustering>
</event>
<event>
 9    1  0.3197504E-005  0.1150694E+03  0.7546771E-02  0.1254423E+00
          1   -1    0    0  502    0 -0.00000000000E+00  0.00000000000E+00  0.10256631854E+03  0.10256631854E+03  0.00000000000E+00 0. -1.
         21   -1    0    0  501  502  0.00000000000E+00 -0.00000000000E+00 -0.25503949752E+03  0.25503949752E+03  0.00000000000E+00 0. -1.
         23    2    1    2    0    0  0.76713498642E+02  0.30042168247E+02 -0.76354411203E+01  0.12219755434E+03  0.89924688369E+02 0.  0.
        -24    2    1    2    0    0 -0.49428343306E+02  0.10099093940E+02 -0.15834959394E+03  0.18502601399E+03  0.81331907206E+02 0.  0.
         11    1    4    4    0    0 -0.65601835824E+02 -0.13091187511E+02 -0.11992078539E+03  0.13731705947E+03  0.00000000000E+00 0. -1.
        -12    1    4    4    0    0  0.16173492519E+02  0.23190281450E+02 -0.38428808556E+02  0.47708954516E+02  0.00000000000E+00 0.  1.
        -11    1    3    3    0    0  0.91600515571E+02  0.15166776099E+02 -0.23579105767E+02  0.95794883887E+02  0.00000000000E+00 0. -1.
         11    1    3    3    0    0 -0.14887016929E+02  0.14875392148E+02  0.15943664647E+02  0.26402670452E+02  0.00000000000E+00 0.  1.
          2    1    1    2  501    0 -0.27285155337E+02 -0.40141262187E+02  0.13511856090E+02  0.50382247734E+02  0.00000000000E+00 0. -1.
<scales pt_clust_5="13000.00000" pt_clust_6="13000.00000" pt_clust_7="13000.00000" pt_clust_8="13000.00000" pt_clust_9="48.53661"></scales>
<clustering>
<clus scale="   48.537">  2  9  1 -1</clus>
<clus scale="   81.332">  5  6 -1 -1</clus>
<clus scale="   89.925">  7  8 -1 -1</clus>
<clus scale="  108.487">  2  5  1 -1</clus>
<clus scale="   48.537">  2  5  1 -1</clus>
</clustering>
</event>
<event>
 9    1  0.3197504E-005  0.2145345E+03  0.7546771E-02  0.1141531E+00
         21   -1    0    0  501  502  0.00000000000E+00  0.00000000000E+00  0.30564862358E+03  0.30564862358E+03  0.00000000000E+00 0. -1.
          1   -1    0    0  502    0 -0.00000000000E+00 -0.00000000000E+00 -0.16132724454E+03  0.16132724454E+03  0.00000000000E+00 0. -1.
         23    2    1    2    0    0 -0.48142442839E+02  0.17253556645E+03  0.22913836537E+02  0.21482246528E+03  0.11635046709E+03 0.  0.
        -24    2    1    2    0    0  0.27889297608E+02 -0.18042878899E+03  0.10916541285E+03  0.22720620675E+03  0.79832400749E+02 0.  0.
         11    1    4    4    0    0 -0.25147482695E+01 -0.10536811154E+03  0.10071548367E+03  0.14578193146E+03  0.00000000000E+00 0. -1.
        -12    1    4    4    0    0  0.30404045877E+02 -0.75060677447E+02  0.84499291762E+01  0.81424275297E+02  0.00000000000E+00 0.  1.
        -11    1    3    3    0    0 -0.14609937442E+02  0.16980869866E+03  0.42818069162E+02  0.17573227210E+03  0.00000000000E+00 0. -1.
         11    1    3    3    0    0 -0.33532505397E+02  0.27268677862E+01 -0.19904232625E+02  0.39090193175E+02  0.00000000000E+00 0.  1.
          2    1    1    2  501    0  0.20253145231E+02  0.78932225406E+01  0.12242129659E+02  0.24947196083E+02  0.00000000000E+00 0. -1.
<scales pt_clust_5="13000.00000" pt_clust_6="13000.00000" pt_clust_7="13000.00000" pt_clust_8="13000.00000" pt_clust_9="21.73690"></scales>
<clustering>
<clus scale="   21.737">  1  9  2 -1</clus>
<clus scale="   79.832">  5  6 -1 -1</clus>
<clus scale="  116.350">  7  8 -1 -1</clus>
<clus scale="  197.131">  1  5  2 -1</clus>
<clus scale="   21.737">  1  5  2 -1</clus>
</clustering>
</event>
<event>
 9    1  0.3197504E-005  0.1132120E+03  0.7546771E-02  0.1256636E+00
         21   -1    0    0  501  502  0.00000000000E+00  0.00000000000E+00  0.10602412009E+03  0.10602412009E+03  0.00000000000E+00 0. -1.
          1   -1    0    0  502    0 -0.00000000000E+00 -0.00000000000E+00 -0.46227799994E+03  0.46227799994E+03  0.00000000000E+00 0. -1.
        -24    2    1    2    0    0 -0.29689337343E+02  0.52861088650E+02 -0.24346641782E+03  0.26539933019E+03  0.86516798461E+02 0.  0.
         23    2    1    2    0    0  0.15540044607E+02 -0.11778042429E+03  0.22890214439E+02  0.15182944833E+03  0.91730573587E+02 0.  0.
         11    1    3    3    0    0 -0.28742830933E+02  0.35596940097E+02 -0.38758705567E+02  0.59962736192E+02  0.00000000000E+00 0. -1.
        -12    1    3    3    0    0 -0.94650641015E+00  0.17264148553E+02 -0.20470771225E+03  0.20543659400E+03  0.00000000000E+00 0.  1.
        -13    1    4    4    0    0  0.49881881490E+02 -0.51950460227E+02  0.28303694327E+02  0.77383147592E+02  0.00000000000E+00 0. -1.
         13    1    4    4    0    0 -0.34341836883E+02 -0.65829964059E+02 -0.54134798877E+01  0.74446300734E+02  0.00000000000E+00 0.  1.
          2    1    1    2  501    0  0.14149292736E+02  0.64919335635E+02 -0.13567767647E+03  0.15107334152E+03  0.00000000000E+00 0. -1.
<scales pt_clust_5="13000.00000" pt_clust_6="13000.00000" pt_clust_7="13000.00000" pt_clust_8="13000.00000" pt_clust_9="66.44341"></scales>
<clustering>
<clus scale="   66.443">  1  9  2 -1</clus>
<clus scale="   86.517">  5  6 -1 -1</clus>
<clus scale="   91.731">  7  8 -1 -1</clus>
<clus scale="  109.030">  2  5  1 -1</clus>
<clus scale="   66.443">  1  5  2 -1</clus>
</clustering>
</event>
<event>
 9    1  0.3197504E-005  0.1030684E+03  0.7546771E-02  0.1274785E+00
         -2   -1    0    0    0  501 -0.00000000000E+00  0.00000000000E+00  0.19462797447E+03  0.19462797447E+03  0.00000000000E+00 0.  1.
         21   -1    0    0  501  502  0.00000000000E+00 -0.00000000000E+00 -0.16369612830E+03  0.16369612830E+03  0.00000000000E+00 0.  1.
         23    2    1    2    0    0  0.69508489864E+01 -0.62405631480E+02  0.56480678900E+02  0.12363074325E+03  0.90286856441E+02 0.  0.
        -24    2    1    2    0    0  0.76788285655E+02  0.50959691526E+01 -0.62849458061E+02  0.12658241319E+03  0.78426036713E+02 0.  0.
         13    1    4    4    0    0  0.27643362305E+02 -0.49051665224E+01  0.16609046113E+02  0.32620186249E+02  0.00000000000E+00 0. -1.
        -14    1    4    4    0    0  0.49144923350E+02  0.10001135675E+02 -0.79458504174E+02  0.93962226939E+02  0.00000000000E+00 0.  1.
        -11    1    3    3    0    0 -0.24428110670E+02 -0.35609946571E+02  0.68212195362E+02  0.80732301353E+02  0.00000000000E+00 0.  1.
         11    1    3    3    0    0  0.31378959656E+02 -0.26795684909E+02 -0.11731516462E+02  0.42898441899E+02  0.00000000000E+00 0. -1.
         -1    1    1    2    0  502 -0.83739134641E+02  0.57309662328E+02  0.37300625326E+02  0.10811094633E+03  0.00000000000E+00 0.  1.
<scales pt_clust_5="13000.00000" pt_clust_6="13000.00000" pt_clust_7="13000.00000" pt_clust_8="13000.00000" pt_clust_9="101.47241"></scales>
<clustering>
<clus scale="   78.426">  5  6 -1 -1</clus>
<clus scale="   90.287">  7  8 -1 -1</clus>
<clus scale="  101.472">  2  9  1 -1</clus>
<clus scale="  101.472">  2  5  1 -1</clus>
<clus scale="  101.472">  2  5  1 -1</clus>
</clustering>
</event>
<event>
 9    1  0.3197504E-005  0.9439878E+02  0.7546771E-02  0.1296946E+00
          1   -1    0    0  502    0 -0.00000000000E+00  0.00000000000E+00  0.43268502038E+03  0.43268502038E+03  0.00000000000E+00 0. -1.
         21   -1    0    0  501  502  0.00000000000E+00 -0.00000000000E+00 -0.97137493604E+02  0.97137493604E+02  0.00000000000E+00 0.  1.
        -24    2    1    2    0    0 -0.24483102496E+02 -0.12955736924E+02  0.31599155629E+03  0.32736535893E+03  0.80932942317E+02 0.  0.
         23    2    1    2    0    0  0.85252411293E+02 -0.27639407399E+02  0.26770245184E+02  0.12902064919E+03  0.88869406540E+02 0.  0.
         11    1    3    3    0    0 -0.53926595330E+02 -0.13936928047E+02  0.19150330779E+03  0.19943879397E+03  0.00000000000E+00 0. -1.
        -12    1    3    3    0    0  0.29443492834E+02  0.98119112231E+00  0.12448824850E+03  0.12792656495E+03  0.00000000000E+00 0.  1.
        -13    1    4    4    0    0  0.20863480146E+02 -0.28910446587E+01 -0.32059802663E+02  0.38359795227E+02  0.00000000000E+00 0.  1.
         13    1    4    4    0    0  0.64388931146E+02 -0.24748362740E+02  0.58830047847E+02  0.90660853968E+02  0.00000000000E+00 0. -1.
          2    1    1    2  501    0 -0.60769308796E+02  0.40595144323E+02 -0.72142746952E+01  0.73436505864E+02  0.00000000000E+00 0. -1.
<scales pt_clust_5="13000.00000" pt_clust_6="13000.00000" pt_clust_7="13000.00000" pt_clust_8="13000.00000" pt_clust_9="73.08129"></scales>
<clustering>
<clus scale="   73.081">  2  9  1 -1</clus>
<clus scale="   80.933">  5  6 -1 -1</clus>
<clus scale="   86.968">  1  5  2 -1</clus>
<clus scale="   88.869">  7  8 -1 -1</clus>
<clus scale="   73.081">  2  5  1 -1</clus>
</clustering>
</event>
<event>
 9    1  0.3197504E-005  0.1516767E+03  0.7546771E-02  0.1202483E+00
         21   -1    0    0  501  502  0.00000000000E+00  0.00000000000E+00  0.12489135635E+03  0.12489135635E+03  0.00000000000E+00 0.  1.
         -2   -1    0    0    0  501 -0.00000000000E+00 -0.00000000000E+00 -0.21864457013E+03  0.21864457013E+03  0.00000000000E+00 0.  1.
         23    2    1    2    0    0 -0.65676843156E+02 -0.74796507302E+02 -0.38924133642E+02  0.14747177495E+03  0.10161137237E+03 0.  0.
        -24    2    1    2    0    0  0.83120502423E+02  0.97688676184E+02 -0.23763352104E+02  0.15371545494E+03  0.81312045893E+02 0.  0.
         13    1    4    4    0    0  0.32994081607E+02  0.30371167382E+02  0.30080393194E+02  0.53998585944E+02  0.00000000000E+00 0. -1.
        -14    1    4    4    0    0  0.50126420817E+02  0.67317508802E+02 -0.53843745298E+02  0.99716868999E+02  0.00000000000E+00 0.  1.
        -13    1    3    3    0    0 -0.84980838669E+02 -0.29845712386E+02 -0.99565547232E+01  0.90618113369E+02  0.00000000000E+00 0.  1.
         13    1    3    3    0    0  0.19303995513E+02 -0.44950794916E+02 -0.28967578919E+02  0.56853661577E+02  0.00000000000E+00 0. -1.
         -1    1    1    2    0  502 -0.17443659267E+02 -0.22892168882E+02 -0.31065728032E+02  0.42348696590E+02  0.00000000000E+00 0.  1.
<scales pt_clust_5="13000.00000" pt_clust_6="13000.00000" pt_clust_7="13000.00000" pt_clust_8="13000.00000" pt_clust_9="28.78078"></scales>
<clustering>
<clus scale="   28.781">  1  9  2 -1</clus>
<clus scale="   81.312">  5  6 -1 -1</clus>
<clus scale="  101.611">  7  8 -1 -1</clus>
<clus scale="  138.898">  1  5  2 -1</clus>
<clus scale="   28.781">  1  5  2 -1</clus>
</clustering>
</event>
<event>
 9    1  0.3197504E-005  0.1075660E+03  0.7546771E-02  0.1270492E+00
          1   -1    0    0  502    0 -0.00000000000E+00  0.00000000000E+00  0.37449108773E+03  0.37449108773E+03  0.00000000000E+00 0. -1.
         21   -1    0    0  501  502  0.00000000000E+00 -0.00000000000E+00 -0.47297538585E+02  0.47297538585E+02  0.00000000000E+00 0.  1.
        -24    2    1    2    0    0  0.50567413221E+02  0.33294063707E+02  0.13666889004E+03  0.17057362239E+03  0.82167007935E+02 0.  0.
         23    2    1    2    0    0 -0.12548474998E+02 -0.42524478018E+02  0.72967823827E+02  0.12731887916E+03  0.94445742201E+02 0.  0.
         13    1    3    3    0    0 -0.10885084750E+02  0.34646498610E+02  0.75886493211E+02  0.84128620504E+02  0.00000000000E+00 0. -1.
        -14    1    3    3    0    0  0.61452497972E+02 -0.13524349039E+01  0.60782396831E+02  0.86445001889E+02  0.00000000000E+00 0.  1.
        -13    1    4    4    0    0 -0.40668022213E+02 -0.26512164548E+01  0.66646827579E+02  0.78119886109E+02  0.00000000000E+00 0. -1.
         13    1    4    4    0    0  0.28119547215E+02 -0.39873261563E+02  0.63209962487E+01  0.49198993047E+02  0.00000000000E+00 0.  1.
          2    1    1    2  501    0 -0.38018938223E+02  0.92304143115E+01  0.11755683528E+03  0.12389612477E+03  0.00000000000E+00 0. -1.
<scales pt_clust_5="13000.00000" pt_clust_6="13000.00000" pt_clust_7="13000.00000" pt_clust_8="13000.00000" pt_clust_9="39.12342"></scales>
<clustering>
<clus scale="   39.123">  2  9  1 -1</clus>
<clus scale="   82.167">  5  6 -1 -1</clus>
<clus scale="   94.446">  7  8 -1 -1</clus>
<clus scale="   96.963">  1  5  2 -1</clus>
<clus scale="   39.123">  2  5  1 -1</clus>
</clustering>
</event>
<event>
 9    1  0.3197504E-005  0.9606103E+02  0.7546771E-02  0.1294831E+00
          1   -1    0    0  502    0 -0.00000000000E+00  0.00000000000E+00  0.11386002546E+03  0.11386002546E+03  0.00000000000E+00 0. -1.
         21   -1    0    0  501  502  0.00000000000E+00 -0.00000000000E+00 -0.98492878429E+02  0.98492878429E+02  0.00000000000E+00 0.  1.
         23    2    1    2    0    0  0.31466467528E+02 -0.73511785984E+01  0.20788669660E+02  0.99924863144E+02  0.92242241314E+02 0.  0.
        -24    2    1    2    0    0 -0.12570581980E+02  0.23118997077E+02  0.47196661040E+01  0.85809958559E+02  0.81538740379E+02 0.  0.
         13    1    4    4    0    0 -0.31154977001E+02  0.45150750973E+02  0.11841525798E+02  0.56119913030E+02  0.00000000000E+00 0. -1.
        -14    1    4    4    0    0  0.18584395021E+02 -0.22031753895E+02 -0.71218596938E+01  0.29690045529E+02  0.00000000000E+00 0.  1.
        -11    1    3    3    0    0  0.17278424950E+02  0.30594388142E+02 -0.21636925503E+02  0.41263992775E+02  0.00000000000E+00 0.  1.
         11    1    3    3    0    0  0.14188042578E+02 -0.37945566741E+02  0.42425595163E+02  0.58660870369E+02  0.00000000000E+00 0. -1.
          2    1    1    2  501    0 -0.18895885548E+02 -0.15767818479E+02 -0.10141188736E+02  0.26618082185E+02  0.00000000000E+00 0. -1.
<scales pt_clust_5="13000.00000" pt_clust_6="13000.00000" pt_clust_7="13000.00000" pt_clust_8="13000.00000" pt_clust_9="24.61054"></scales>
<clustering>
<clus scale="   24.611">  2  9  1 -1</clus>
<clus scale="   81.539">  5  6 -1 -1</clus>
<clus scale="   85.835">  2  5  1 -1</clus>
<clus scale="   92.242">  7  8 -1 -1</clus>
<clus scale="   24.611">  2  5  1 -1</clus>
</clustering>
</event>
<event>
 9    1  0.3197504E-005  0.1016190E+03  0.7546771E-02  0.1283630E+00
         21   -1    0    0  501  502  0.00000000000E+00  0.00000000000E+00  0.16492970632E+03  0.16492970632E+03  0.00000000000E+00 0.  1.
         -2   -1    0    0    0  501 -0.00000000000E+00 -0.00000000000E+00 -0.15427848820E+03  0.15427848820E+03  0.00000000000E+00 0.  1.
         23    2    1    2    0    0 -0.53988389105E+02  0.31024701317E+02 -0.52979071545E+02  0.12263362311E+03  0.91405389584E+02 0.  0.
        -24    2    1    2    0    0 -0.32610605275E+02 -0.49048934754E+02  0.30690020782E+02  0.10218537641E+03  0.77657737542E+02 0.  0.
         11    1    4    4    0    0  0.22137364374E+02 -0.29508011706E+01  0.19691210470E+02  0.29774383264E+02  0.00000000000E+00 0. -1.
        -12    1    4    4    0    0 -0.54747969649E+02 -0.46098133584E+02  0.10998810313E+02  0.72410993150E+02  0.00000000000E+00 0.  1.
        -13    1    3    3    0    0 -0.41513889169E+02  0.52626929093E+02 -0.66363414195E+02  0.94324436936E+02  0.00000000000E+00 0.  1.
         13    1    3    3    0    0 -0.12474499936E+02 -0.21602227777E+02  0.13384342650E+02  0.28309186173E+02  0.00000000000E+00 0. -1.
         -1    1    1    2    0  502  0.86598994381E+02  0.18024233438E+02  0.32940268882E+02  0.94389195000E+02  0.00000000000E+00 0.  1.
<scales pt_clust_5="13000.00000" pt_clust_6="13000.00000" pt_clust_7="13000.00000" pt_clust_8="13000.00000" pt_clust_9="88.45484"></scales>
<clustering>
<clus scale="   77.658">  5  6 -1 -1</clus>
<clus scale="   88.455">  1  9  2 -1</clus>
<clus scale="   89.455">  1  5  2 -1</clus>
<clus scale="   91.405">  7  8 -1 -1</clus>
<clus scale="   88.455">  1  5  2 -1</clus>
</clustering>
</event>
<event>
 9    1  0.3197504E-005  0.1078325E+03  0.7546771E-02  0.1269099E+00
         21   -1    0    0  501  502  0.00000000000E+00  0.00000000000E+00  0.15513576432E+03  0.15513576432E+03  0.00000000000E+00 0. -1.
         -2   -1    0    0    0  501 -0.00000000000E+00 -0.00000000000E+00 -0.98015960668E+02  0.98015960668E+02  0.00000000000E+00 0.  1.
         23    2    1    2    0    0  0.41136227155E+01  0.59536322750E+02 -0.15712657275E+02  0.11028061275E+03  0.91397102427E+02 0.  0.
        -24    2    1    2    0    0  0.16202435680E+02 -0.53182293731E+02  0.44879580963E+02  0.10773595304E+03  0.80634877698E+02 0.  0.
         13    1    4    4    0    0  0.24812651234E+02 -0.67969436785E+02  0.52101367188E+02  0.89163133978E+02  0.00000000000E+00 0. -1.
        -14    1    4    4    0    0 -0.86102155540E+01  0.14787143054E+02 -0.72217862249E+01  0.18572819061E+02  0.00000000000E+00 0.  1.
        -11    1    3    3    0    0  0.24604917014E+02 -0.16897457078E+02 -0.15360877729E+01  0.29887883207E+02  0.00000000000E+00 0. -1.
         11    1    3    3    0    0 -0.20491294299E+02  0.76433779828E+02 -0.14176569502E+02  0.80392729545E+02  0.00000000000E+00 0.  1.
         -1    1    1    2    0  502 -0.20316058395E+02 -0.63540290193E+01  0.27952879968E+02  0.35135159200E+02  0.00000000000E+00 0.  1.
<scales pt_clust_5="13000.00000" pt_clust_6="13000.00000" pt_clust_7="13000.00000" pt_clust_8="13000.00000" pt_clust_9="21.28652"></scales>
<clustering>
<clus scale="   21.287">  1  9  2 -1</clus>
<clus scale="   80.635">  5  6 -1 -1</clus>
<clus scale="   91.397">  7  8 -1 -1</clus>
<clus scale="   98.876">  1  5  2 -1</clus>
<clus scale="   21.287">  1  5  2 -1</clus>
</clustering>
</event>
<event>
 9    1  0.3197504E-005  0.1740320E+03  0.7546771E-02  0.1206341E+00
         21   -1    0    0  501  502  0.00000000000E+00  0.00000000000E+00  0.31578931363E+03  0.31578931363E+03  0.00000000000E+00 0. -1.
         -2   -1    0    0    0  501 -0.00000000000E+00 -0.00000000000E+00 -0.15124563702E+03  0.15124563702E+03  0.00000000000E+00 0.  1.
        -24    2    1    2    0    0  0.92497837095E+01 -0.19537992686E+02  0.40501249291E+02  0.93807852986E+02  0.81806298235E+02 0.  0.
         23    2    1    2    0    0 -0.48316448838E+02  0.14786857413E+03  0.15253354220E+03  0.23608962618E+03  0.90951831476E+02 0.  0.
         13    1    3    3    0    0 -0.70277628072E+01 -0.47504735423E+02  0.94142971236E+01  0.48935859327E+02  0.00000000000E+00 0. -1.
        -14    1    3    3    0    0  0.16277546517E+02  0.27966742737E+02  0.31086952167E+02  0.44871993660E+02  0.00000000000E+00 0.  1.
        -13    1    4    4    0    0 -0.66481446864E+02  0.12964746108E+03  0.15171662701E+03  0.21034776407E+03  0.00000000000E+00 0. -1.
         13    1    4    4    0    0  0.18164998025E+02  0.18221113057E+02  0.81691519598E+00  0.25741862107E+02  0.00000000000E+00 0.  1.
         -1    1    1    2    0  502  0.39066665129E+02 -0.12833058145E+03 -0.28491114886E+02  0.13713747149E+03  0.00000000000E+00 0.  1.
<scales pt_clust_5="13000.00000" pt_clust_6="13000.00000" pt_clust_7="13000.00000" pt_clust_8="13000.00000" pt_clust_9="148.37431"></scales>
<clustering>
<clus scale="   81.806">  5  6 -1 -1</clus>
<clus scale="   84.614">  2  5  1 -1</clus>
<clus scale="   90.952">  7  8 -1 -1</clus>
<clus scale="  148.374">  1  9  2 -1</clus>
<clus scale="  148.374">  1  5  2 -1</clus>
</clustering>
</event>
<event>
 9    1  0.3197504E-005  0.1005953E+03  0.7546771E-02  0.1286236E+00
         21   -1    0    0  501  502  0.00000000000E+00  0.00000000000E+00  0.45065666596E+02  0.45065666596E+02  0.00000000000E+00 0.  1.
         -2   -1    0    0    0  501 -0.00000000000E+00 -0.00000000000E+00 -0.25161736935E+03  0.25161736935E+03  0.00000000000E+00 0.  1.
        -24    2    1    2    0    0 -0.91897631381E+01  0.25914116991E+02 -0.97344843375E+02  0.12962999542E+03  0.81067403898E+02 0.  0.
         23    2    1    2    0    0 -0.23048546958E+01 -0.44110318754E+02 -0.94844475987E+02  0.14117822546E+03  0.94788101279E+02 0.  0.
         13    1    3    3    0    0  0.32631795044E+02  0.18579876509E+02 -0.23057777609E+02  0.44064804177E+02  0.00000000000E+00 0. -1.
        -14    1    3    3    0    0 -0.41821558182E+02  0.73342404822E+01 -0.74287065767E+02  0.85565191243E+02  0.00000000000E+00 0.  1.
        -13    1    4    4    0    0  0.78451747069E+00  0.27887051117E+02 -0.47071420679E+02  0.54717654669E+02  0.00000000000E+00 0. -1.
         13    1    4    4    0    0 -0.30893721665E+01 -0.71997369872E+02 -0.47773055308E+02  0.86460570795E+02  0.00000000000E+00 0.  1.
         -1    1    1    2    0  502  0.11494617834E+02  0.18196201764E+02 -0.14362383390E+02  0.25874815060E+02  0.00000000000E+00 0.  1.
<scales pt_clust_5="13000.00000" pt_clust_6="13000.00000" pt_clust_7="13000.00000" pt_clust_8="13000.00000" pt_clust_9="21.52273"></scales>
<clustering>
<clus scale="   21.523">  1  9  2 -1</clus>
<clus scale="   81.067">  5  6 -1 -1</clus>
<clus scale="   87.787">  2  5  1 -1</clus>
<clus scale="   94.788">  7  8 -1 -1</clus>
<clus scale="   21.523">  1  5  2 -1</clus>
</clustering>
</event>
<event>
 9    1  0.3197504E-005  0.9227964E+02  0.7546771E-02  0.1301931E+00
         21   -1    0    0  501  502  0.00000000000E+00  0.00000000000E+00  0.10515633885E+03  0.10515633885E+03  0.00000000000E+00 0. -1.
          1   -1    0    0  502    0 -0.00000000000E+00 -0.00000000000E+00 -0.16358693794E+03  0.16358693794E+03  0.00000000000E+00 0. -1.
        -24    2    1    2    0    0  0.10388752318E+02  0.34596789471E+01 -0.30735952168E+02  0.86407141153E+02  0.80009997710E+02 0.  0.
         23    2    1    2    0    0 -0.66995402628E+02 -0.11836740426E+02  0.13427084280E+02  0.11186993951E+03  0.87784419895E+02 0.  0.
         11    1    3    3    0    0  0.39925631418E+02 -0.16464969356E+02 -0.26142176056E+02  0.50483310400E+02  0.00000000000E+00 0. -1.
        -12    1    3    3    0    0 -0.29536879100E+02  0.19924648303E+02 -0.45937761126E+01  0.35923830753E+02  0.00000000000E+00 0.  1.
        -11    1    4    4    0    0 -0.38351392199E+02 -0.45397209013E+02 -0.12450826256E+02  0.60718686944E+02  0.00000000000E+00 0.  1.
         11    1    4    4    0    0 -0.28644010429E+02  0.33560468587E+02  0.25877910536E+02  0.51151252565E+02  0.00000000000E+00 0. -1.
          2    1    1    2  501    0  0.56606650310E+02  0.83770614786E+01 -0.41121731204E+02  0.70466196120E+02  0.00000000000E+00 0. -1.
<scales pt_clust_5="13000.00000" pt_clust_6="13000.00000" pt_clust_7="13000.00000" pt_clust_8="13000.00000" pt_clust_9="57.22317"></scales>
<clustering>
<clus scale="   57.223">  1  9  2 -1</clus>
<clus scale="   80.010">  5  6 -1 -1</clus>
<clus scale="   84.918">  2  5  1 -1</clus>
<clus scale="   87.784">  7  8 -1 -1</clus>
<clus scale="   57.223">  1  5  2 -1</clus>
</clustering>
</event>
<event>
 9    1  0.3197504E-005  0.1686390E+03  0.7546771E-02  0.1197289E+00
         21   -1    0    0  501  502  0.00000000000E+00  0.00000000000E+00  0.44385493358E+03  0.44385493358E+03  0.00000000000E+00 0. -1.
          1   -1    0    0  502    0 -0.00000000000E+00 -0.00000000000E+00 -0.14114949333E+03  0.14114949333E+03  0.00000000000E+00 0. -1.
         23    2    1    2    0    0  0.47104976907E+02  0.45343375377E+02  0.21063852992E+02  0.11507503345E+03  0.92323761194E+02 0.  0.
        -24    2    1    2    0    0  0.79388849949E+02  0.10434239121E+03  0.21208961006E+03  0.26197748920E+03  0.80375854900E+02 0.  0.
         11    1    4    4    0    0  0.52517010284E+02  0.43239109688E+02  0.16989614237E+03  0.18300916963E+03  0.00000000000E+00 0. -1.
        -12    1    4    4    0    0  0.26871839665E+02  0.61103281524E+02  0.42193467691E+02  0.78968319571E+02  0.00000000000E+00 0.  1.
        -13    1    3    3    0    0  0.34936549117E+02  0.25952859680E+02  0.57457794881E+02  0.72079897214E+02  0.00000000000E+00 0.  1.
         13    1    3    3    0    0  0.12168427790E+02  0.19390515698E+02 -0.36393941889E+02  0.42995136238E+02  0.00000000000E+00 0. -1.
          2    1    1    2  501    0 -0.12649382686E+03 -0.14968576659E+03  0.69551977203E+02  0.20795190426E+03  0.00000000000E+00 0. -1.
<scales pt_clust_5="13000.00000" pt_clust_6="13000.00000" pt_clust_7="13000.00000" pt_clust_8="13000.00000" pt_clust_9="148.25263"></scales>
<clustering>
<clus scale="   80.376">  5  6 -1 -1</clus>
<clus scale="   92.324">  7  8 -1 -1</clus>
<clus scale="  113.131">  2  7  1 -1</clus>
<clus scale="  148.253">  1  9  2 -1</clus>
<clus scale="  148.253">  1  5  2 -1</clus>
</clustering>
</event>
<event>
 9    1  0.3197504E-005  0.1383374E+03  0.7546771E-02  0.1239848E+00
         21   -1    0    0  501  502  0.00000000000E+00  0.00000000000E+00  0.42537939266E+03  0.42537939266E+03  0.00000000000E+00 0.  1.
         -2   -1    0    0    0  501 -0.00000000000E+00 -0.00000000000E+00 -0.64845749440E+03  0.64845749440E+03  0.00000000000E+00 0.  1.
        -24    2    1    2    0    0  0.23288373898E+02 -0.19602758335E+02 -0.55613191835E+03  0.56238858250E+03  0.77920412113E+02 0.  0.
         23    2    1    2    0    0 -0.11599531171E+03 -0.25183032399E+02 -0.13152277600E+02  0.15025721519E+03  0.91187448983E+02 0.  0.
         11    1    3    3    0    0  0.42025739778E+01  0.21989098849E+02 -0.58183611330E+02  0.62341917869E+02  0.00000000000E+00 0. -1.
        -12    1    3    3    0    0  0.19085799920E+02 -0.41591857184E+02 -0.49794830702E+03  0.50004666463E+03  0.00000000000E+00 0.  1.
        -11    1    4    4    0    0 -0.59115980869E+02  0.20296101924E+02 -0.38190709821E+02  0.73247261137E+02  0.00000000000E+00 0.  1.
         11    1    4    4    0    0 -0.56879330837E+02 -0.45479134323E+02  0.25038432221E+02  0.77009954054E+02  0.00000000000E+00 0. -1.
         -1    1    1    2    0  502  0.92706937808E+02  0.44785790734E+02  0.34620609421E+03  0.36119108937E+03  0.00000000000E+00 0.  1.
<scales pt_clust_5="13000.00000" pt_clust_6="13000.00000" pt_clust_7="13000.00000" pt_clust_8="13000.00000" pt_clust_9="104.02932"></scales>
<clustering>
<clus scale="   77.920">  5  6 -1 -1</clus>
<clus scale="   83.655">  2  5  1 -1</clus>
<clus scale="   91.187">  7  8 -1 -1</clus>
<clus scale="  104.029">  1  9  2 -1</clus>
<clus scale="  104.029">  1  5  2 -1</clus>
</clustering>
</event>
<event>
 9    1  0.3197504E-005  0.1285794E+03  0.7546771E-02  0.1245153E+00
          1   -1    0    0  502    0 -0.00000000000E+00  0.00000000000E+00  0.21854750860E+03  0.21854750860E+03  0.00000000000E+00 0. -1.
         21   -1    0    0  501  502  0.00000000000E+00 -0.00000000000E+00 -0.27727739094E+03  0.27727739094E+03  0.00000000000E+00 0. -1.
        -24    2    1    2    0    0  0.51955549036E+02 -0.88986305149E+01  0.15102651471E+03  0.17888535277E+03  0.80077441203E+02 0.  0.
         23    2    1    2    0    0 -0.27641460956E+02 -0.50695564567E+01 -0.18656575922E+02  0.12379341876E+03  0.11910915975E+03 0.  0.
         13    1    3    3    0    0  0.33465852814E+02 -0.11804175758E+02  0.15561877702E+03  0.15961361355E+03  0.00000000000E+00 0. -1.
        -14    1    3    3    0    0  0.18489696221E+02  0.29055452427E+01 -0.45922623066E+01  0.19271739221E+02  0.00000000000E+00 0.  1.
        -13    1    4    4    0    0  0.21622630866E+02  0.12462513637E+02 -0.54807952957E+02  0.60222621323E+02  0.00000000000E+00 0.  1.
         13    1    4    4    0    0 -0.49264091822E+02 -0.17532070094E+02  0.36151377035E+02  0.63570797434E+02  0.00000000000E+00 0. -1.
          2    1    1    2  501    0 -0.24314088080E+02  0.13968186972E+02 -0.19109982114E+03  0.19314612801E+03  0.00000000000E+00 0. -1.
<scales pt_clust_5="13000.00000" pt_clust_6="13000.00000" pt_clust_7="13000.00000" pt_clust_8="13000.00000" pt_clust_9="28.04078"></scales>
<clustering>
<clus scale="   28.041">  2  9  1 -1</clus>
<clus scale="   80.077">  5  6 -1 -1</clus>
<clus scale="   93.584">  1  5  2 -1</clus>
<clus scale="  119.109">  7  8 -1 -1</clus>
<clus scale="   28.041">  2  5  1 -1</clus>
</clustering>
</event>
<event>
 9    1  0.3197504E-005  0.1424894E+03  0.7546771E-02  0.1210495E+00
         21   -1    0    0  501  502  0.00000000000E+00  0.00000000000E+00  0.93143347728E+02  0.93143347728E+02  0.00000000000E+00 0.  1.
         -2   -1    0    0    0  501 -0.00000000000E+00 -0.00000000000E+00 -0.31015794768E+03  0.31015794768E+03  0.00000000000E+00 0.  1.
        -24    2    1    2    0    0  0.51908841589E+02 -0.10196588806E+03 -0.13446376462E+03  0.19506235346E+03  0.82929172059E+02 0.  0.
         23    2    1    2    0    0 -0.34536549544E+02  0.11497612230E+03 -0.24888366048E+02  0.14662706737E+03  0.80422535184E+02 0.  0.
         13    1    3    3    0    0  0.18304927694E+02 -0.39232727304E+02 -0.11256417999E+03  0.12060253682E+03  0.00000000000E+00 0. -1.
        -14    1    3    3    0    0  0.33603913895E+02 -0.62733160752E+02 -0.21899584626E+02  0.74459816638E+02  0.00000000000E+00 0.  1.
        -11    1    4    4    0    0 -0.13167698995E+02  0.55439326641E+02 -0.52618420001E+02  0.77560333667E+02  0.00000000000E+00 0. -1.
         11    1    4    4    0    0 -0.21368850549E+02  0.59536795662E+02  0.27730053953E+02  0.69066733698E+02  0.00000000000E+00 0.  1.
         -1    1    1    2    0  502 -0.17372292045E+02 -0.13010234247E+02 -0.57662469289E+02  0.61611874591E+02  0.00000000000E+00 0.  1.
<scales pt_clust_5="13000.00000" pt_clust_6="13000.00000" pt_clust_7="13000.00000" pt_clust_8="13000.00000" pt_clust_9="21.70399"></scales>
<clustering>
<clus scale="   21.704">  1  9  2 -1</clus>
<clus scale="   80.423">  7  8 -1 -1</clus>
<clus scale="   82.929">  5  6 -1 -1</clus>
<clus scale="  141.045">  1  7  2 -1</clus>
<clus scale="   21.704">  1  5  2 -1</clus>
</clustering>
</event>
<event>
 9    1  0.3197504E-005  0.9868424E+02  0.7546771E-02  0.1287694E+00
         21   -1    0    0  501  502  0.00000000000E+00  0.00000000000E+00  0.38965212886E+03  0.38965212886E+03  0.00000000000E+00 0. -1.
          1   -1    0    0  502    0 -0.00000000000E+00 -0.00000000000E+00 -0.43279014562E+02  0.43279014562E+02  0.00000000000E+00 0. -1.
        -24    2    1    2    0    0  0.34982056299E+02  0.47429473150E+02  0.86452296019E+02  0.13226092486E+03  0.80905213498E+02 0.  0.
         23    2    1    2    0    0  0.57126448801E+01 -0.10334646210E+02  0.19795843141E+03  0.21777617610E+03  0.89997128215E+02 0.  0.
         11    1    3    3    0    0  0.40342198576E+02 -0.14253285839E+01  0.10358655904E+02  0.41675248045E+02  0.00000000000E+00 0. -1.
        -12    1    3    3    0    0 -0.53601422763E+01  0.48854801734E+02  0.76093640115E+02  0.90585676812E+02  0.00000000000E+00 0.  1.
        -11    1    4    4    0    0 -0.24432160100E+02  0.30829136115E+02  0.96555793284E+02  0.10426114951E+03  0.00000000000E+00 0. -1.
         11    1    4    4    0    0  0.30144804980E+02 -0.41163782326E+02  0.10140263812E+03  0.11351502659E+03  0.00000000000E+00 0.  1.
          2    1    1    2  501    0 -0.40694701179E+02 -0.37094826939E+02  0.61962386874E+02  0.82894042469E+02  0.00000000000E+00 0. -1.
<scales pt_clust_5="13000.00000" pt_clust_6="13000.00000" pt_clust_7="13000.00000" pt_clust_8="13000.00000" pt_clust_9="55.06440"></scales>
<clustering>
<clus scale="   55.064">  1  9  2 -1</clus>
<clus scale="   80.905">  5  6 -1 -1</clus>
<clus scale="   89.997">  7  8 -1 -1</clus>
<clus scale="   90.470">  2  5  1 -1</clus>
<clus scale="   55.064">  1  5  2 -1</clus>
</clustering>
</event>
<event>
 9    1  0.3197504E-005  0.9145648E+02  0.7546771E-02  0.1305910E+00
         -2   -1    0    0    0  501 -0.00000000000E+00  0.00000000000E+00  0.14048499480E+03  0.14048499480E+03  0.00000000000E+00 0.  1.
         21   -1    0    0  501  502  0.00000000000E+00 -0.00000000000E+00 -0.12328314432E+03  0.12328314432E+03  0.00000000000E+00 0.  1.
        -24    2    1    2    0    0  0.12067275348E+02 -0.94513242976E+01  0.69149456426E+02  0.10760826813E+03  0.81012007633E+02 0.  0.
         23    2    1    2    0    0  0.22579690015E+02 -0.20084205131E+02 -0.14754655070E+02  0.97371476712E+02  0.91379904432E+02 0.  0.
         11    1    3    3    0    0  0.14169348732E+02 -0.41910081332E+02  0.58577168890E+02  0.73406471621E+02  0.00000000000E+00 0. -1.
        -12    1    3    3    0    0 -0.21020733832E+01  0.32458757034E+02  0.10572287536E+02  0.34201796509E+02  0.00000000000E+00 0.  1.
        -13    1    4    4    0    0  0.26610441345E+02  0.20829853062E+02 -0.37423853267E+02  0.50423636922E+02  0.00000000000E+00 0.  1.
         13    1    4    4    0    0 -0.40307513296E+01 -0.40914058193E+02  0.22669198197E+02  0.46947839790E+02  0.00000000000E+00 0. -1.
         -1    1    1    2    0  502 -0.34646965364E+02  0.29535529428E+02 -0.37192950873E+02  0.58788394281E+02  0.00000000000E+00 0.  1.
<scales pt_clust_5="13000.00000" pt_clust_6="13000.00000" pt_clust_7="13000.00000" pt_clust_8="13000.00000" pt_clust_9="45.52757"></scales>
<clustering>
<clus scale="   45.528">  2  9  1 -1</clus>
<clus scale="   81.012">  5  6 -1 -1</clus>
<clus scale="   81.098">  1  5  2 -1</clus>
<clus scale="   91.380">  7  8 -1 -1</clus>
<clus scale="   45.528">  2  5  1 -1</clus>
</clustering>
</event>
<event>
 9    1  0.3197504E-005  0.1019185E+03  0.7546771E-02  0.1279941E+00
         21   -1    0    0  501  502  0.00000000000E+00  0.00000000000E+00  0.50511851773E+02  0.50511851773E+02  0.00000000000E+00 0. -1.
         -4   -1    0    0    0  501 -0.00000000000E+00 -0.00000000000E+00 -0.47322983786E+03  0.47322983786E+03  0.00000000000E+00 0.  1.
         23    2    1    2    0    0 -0.35316748997E+02 -0.20839976608E+02 -0.11978303643E+03  0.15379744623E+03  0.87316099697E+02 0.  0.
        -24    2    1    2    0    0  0.21533023199E+01  0.89077582269E+02 -0.10846027948E+03  0.16119419583E+03  0.79249505803E+02 0.  0.
         11    1    4    4    0    0 -0.31490097057E+02  0.14578546734E+02 -0.17376381778E+02  0.38808489808E+02  0.00000000000E+00 0. -1.
        -12    1    4    4    0    0  0.33643399377E+02  0.74499035535E+02 -0.91083897705E+02  0.12238570602E+03  0.00000000000E+00 0.  1.
        -11    1    3    3    0    0 -0.29738675187E+02  0.30802228357E+02 -0.39983835473E+02  0.58582191601E+02  0.00000000000E+00 0. -1.
         11    1    3    3    0    0 -0.55780738094E+01 -0.51642204965E+02 -0.79799200959E+02  0.95215254633E+02  0.00000000000E+00 0.  1.
         -3    1    1    2    0  502  0.33163446677E+02 -0.68237605661E+02 -0.19447467017E+03  0.20875004757E+03  0.00000000000E+00 0.  1.
<scales pt_clust_5="13000.00000" pt_clust_6="13000.00000" pt_clust_7="13000.00000" pt_clust_8="13000.00000" pt_clust_9="75.86956"></scales>
<clustering>
<clus scale="   75.870">  1  9  2 -1</clus>
<clus scale="   79.250">  5  6 -1 -1</clus>
<clus scale="   87.316">  7  8 -1 -1</clus>
<clus scale="   95.099">  1  5  2 -1</clus>
<clus scale="   75.870">  1  5  2 -1</clus>
</clustering>
</event>
<event>
 9    1  0.3197504E-005  0.1001539E+03  0.7546771E-02  0.1282395E+00
         21   -1    0    0  501  502  0.00000000000E+00  0.00000000000E+00  0.65751406153E+02  0.65751406153E+02  0.00000000000E+00 0. -1.
          1   -1    0    0  502    0 -0.00000000000E+00 -0.00000000000E+00 -0.69979818875E+03  0.69979818875E+03  0.00000000000E+00 0. -1.
         23    2    1    2    0    0 -0.29411676467E+02  0.76844075350E+01 -0.52001753397E+03  0.52885391497E+03  0.91346214495E+02 0.  0.
        -24    2    1    2    0    0  0.19504962335E+02  0.75441988591E+02 -0.69520267442E+02  0.14188434030E+03  0.96052908540E+02 0.  0.
         11    1    4    4    0    0 -0.39556426117E+01  0.28442460151E+02 -0.82853712323E+02  0.87688986159E+02  0.00000000000E+00 0. -1.
        -12    1    4    4    0    0  0.23460604946E+02  0.46999528441E+02  0.13333444881E+02  0.54195354141E+02  0.00000000000E+00 0.  1.
        -13    1    3    3    0    0 -0.58871905917E+02 -0.12980960939E+02 -0.32554533111E+03  0.33108030636E+03  0.00000000000E+00 0.  1.
         13    1    3    3    0    0  0.29460229450E+02  0.20665368474E+02 -0.19447220286E+03  0.19777360860E+03  0.00000000000E+00 0. -1.
          2    1    1    2  501    0  0.99067141318E+01 -0.83126396126E+02 -0.44508981182E+02  0.94811339637E+02  0.00000000000E+00 0. -1.
<scales pt_clust_5="13000.00000" pt_clust_6="13000.00000" pt_clust_7="13000.00000" pt_clust_8="13000.00000" pt_clust_9="83.71464"></scales>
<clustering>
<clus scale="   83.715">  1  9  2 -1</clus>
<clus scale="   91.346">  7  8 -1 -1</clus>
<clus scale="   95.649">  2  7  1 -1</clus>
<clus scale="   96.053">  5  6 -1 -1</clus>
<clus scale="   83.715">  1  5  2 -1</clus>
</clustering>
</event>
<event>
 9    1  0.3197504E-005  0.9160755E+02  0.7546771E-02  0.1306822E+00
          1   -1    0    0  502    0 -0.00000000000E+00  0.00000000000E+00  0.62179496464E+03  0.62179496464E+03  0.00000000000E+00 0. -1.
         21   -1    0    0  501  502  0.00000000000E+00 -0.00000000000E+00 -0.29169823132E+02  0.29169823132E+02  0.00000000000E+00 0. -1.
         23    2    1    2    0    0 -0.29847387106E+02 -0.14056858315E+02  0.30557213475E+03  0.32069153808E+03  0.91543821624E+02 0.  0.
        -24    2    1    2    0    0 -0.32982358689E+02 -0.22370380238E+02  0.18298672098E+03  0.20337048179E+03  0.79291505930E+02 0.  0.
         13    1    4    4    0    0 -0.58724452935E+02 -0.14557239380E+02  0.10931830434E+03  0.12494385241E+03  0.00000000000E+00 0. -1.
        -14    1    4    4    0    0  0.25742094246E+02 -0.78131408588E+01  0.73668416639E+02  0.78426629382E+02  0.00000000000E+00 0.  1.
        -11    1    3    3    0    0 -0.21788154828E+02 -0.52774842619E+02  0.19854316748E+03  0.20658968285E+03  0.00000000000E+00 0.  1.
         11    1    3    3    0    0 -0.80592322787E+01  0.38717984304E+02  0.10702896727E+03  0.11410185524E+03  0.00000000000E+00 0. -1.
          2    1    1    2  501    0  0.62829745796E+02  0.36427238554E+02  0.10406628578E+03  0.12690276790E+03  0.00000000000E+00 0. -1.
<scales pt_clust_5="13000.00000" pt_clust_6="13000.00000" pt_clust_7="13000.00000" pt_clust_8="13000.00000" pt_clust_9="72.62590"></scales>
<clustering>
<clus scale="   72.626">  2  9  1 -1</clus>
<clus scale="   79.292">  5  6 -1 -1</clus>
<clus scale="   79.365">  2  5  1 -1</clus>
<clus scale="   91.544">  7  8 -1 -1</clus>
<clus scale="   72.626">  2  5  1 -1</clus>
</clustering>
</event>
<event>
 9    1  0.3197504E-005  0.3575114E+03  0.7546771E-02  0.1059877E+00
          1   -1    0    0  502    0 -0.00000000000E+00  0.00000000000E+00  0.42534117531E+03  0.42534117531E+03  0.00000000000E+00 0. -1.
         21   -1    0    0  501  502  0.00000000000E+00 -0.00000000000E+00 -0.84509908480E+03  0.84509908480E+03  0.00000000000E+00 0. -1.
         23    2    1    2    0    0  0.16815444949E+03 -0.33857172141E+03  0.12811846514E+03  0.40988799441E+03  0.93204599822E+02 0.  0.
        -24    2    1    2    0    0  0.79980954252E+02  0.26637405808E+03 -0.52692456075E+03  0.60127893564E+03  0.80837948154E+02 0.  0.
         11    1    4    4    0    0  0.95009349567E+02  0.24538881974E+03 -0.49065083950E+03  0.55675910020E+03  0.00000000000E+00 0. -1.
        -12    1    4    4    0    0 -0.15028395315E+02  0.20985238331E+02 -0.36273721254E+02  0.44519835435E+02  0.00000000000E+00 0.  1.
        -13    1    3    3    0    0  0.97894031555E+02 -0.25178209073E+03  0.12629692793E+03  0.29820861260E+03  0.00000000000E+00 0. -1.
         13    1    3    3    0    0  0.70260417939E+02 -0.86789630680E+02  0.18215372087E+01  0.11167938180E+03  0.00000000000E+00 0.  1.
          2    1    1    2  501    0 -0.24813540375E+03  0.72197663330E+02 -0.20951813884E+02  0.25927333007E+03  0.00000000000E+00 0. -1.
<scales pt_clust_5="13000.00000" pt_clust_6="13000.00000" pt_clust_7="13000.00000" pt_clust_8="13000.00000" pt_clust_9="258.42552"></scales>
<clustering>
<clus scale="   80.838">  5  6 -1 -1</clus>
<clus scale="   93.205">  7  8 -1 -1</clus>
<clus scale="  258.426">  2  9  1 -1</clus>
<clus scale="  354.488">  2  5  1 -1</clus>
<clus scale="  258.426">  2  5  1 -1</clus>
</clustering>
</event>
<event>
 9    1  0.3197504E-005  0.2754547E+03  0.7546771E-02  0.1098198E+00
          3   -1    0    0  502    0 -0.00000000000E+00  0.00000000000E+00  0.96697489262E+02  0.96697489262E+02  0.00000000000E+00 0. -1.
         21   -1    0    0  501  502  0.00000000000E+00 -0.00000000000E+00 -0.66177408986E+03  0.66177408986E+03  0.00000000000E+00 0. -1.
        -24    2    1    2    0    0 -0.87352078560E+02  0.24505642367E+02 -0.68376492948E+02  0.13817842468E+03  0.78657613258E+02 0.  0.
         23    2    1    2    0    0 -0.11910761424E+03 -0.25652312800E+02 -0.13648780096E+03  0.20510665961E+03  0.92710070011E+02 0.  0.
         11    1    3    3    0    0 -0.57024587796E+02  0.46843506195E+02 -0.19237240972E+02  0.76263943815E+02  0.00000000000E+00 0. -1.
        -12    1    3    3    0    0 -0.30327490764E+02 -0.22337863828E+02 -0.49139251975E+02  0.61914480868E+02  0.00000000000E+00 0.  1.
        -13    1    4    4    0    0 -0.12198780822E+03  0.49052076476E+01 -0.10356862641E+03  0.16009855338E+03  0.00000000000E+00 0. -1.
         13    1    4    4    0    0  0.28801939819E+01 -0.30557520447E+02 -0.32919174549E+02  0.45008106228E+02  0.00000000000E+00 0.  1.
          4    1    1    2  501    0  0.20645969280E+03  0.11466704328E+01 -0.36021230669E+03  0.41518649484E+03  0.00000000000E+00 0. -1.
<scales pt_clust_5="13000.00000" pt_clust_6="13000.00000" pt_clust_7="13000.00000" pt_clust_8="13000.00000" pt_clust_9="206.46288"></scales>
<clustering>
<clus scale="   78.658">  5  6 -1 -1</clus>
<clus scale="   92.710">  7  8 -1 -1</clus>
<clus scale="  107.169">  5  7 -1 -1</clus>
<clus scale="  206.463">  2  9  1 -1</clus>
<clus scale="  206.463">  2  5  1 -1</clus>
</clustering>
</event>
<event>
 9    1  0.3197504E-005  0.9410458E+02  0.7546771E-02  0.1298368E+00
          1   -1    0    0  502    0 -0.00000000000E+00  0.00000000000E+00  0.60919689765E+03  0.60919689765E+03  0.00000000000E+00 0. -1.
         21   -1    0    0  501  502  0.00000000000E+00 -0.00000000000E+00 -0.32558284915E+02  0.32558284915E+02  0.00000000000E+00 0. -1.
        -24    2    1    2    0    0  0.27823055733E+02 -0.74470404141E+01  0.44130036304E+03  0.44987907291E+03  0.82556580463E+02 0.  0.
         23    2    1    2    0    0 -0.12576629579E+01 -0.17639870647E+02  0.12085199236E+03  0.15257057759E+03  0.91432107786E+02 0.  0.
         13    1    3    3    0    0  0.43601153559E+02  0.21975383561E+02  0.18189843610E+03  0.18833751387E+03  0.00000000000E+00 0. -1.
        -14    1    3    3    0    0 -0.15778097826E+02 -0.29422423975E+02  0.25940192694E+03  0.26154155904E+03  0.00000000000E+00 0.  1.
        -13    1    4    4    0    0 -0.41481713487E+02  0.11716886034E+02  0.50814699817E+02  0.66634463228E+02  0.00000000000E+00 0.  1.
         13    1    4    4    0    0  0.40224050529E+02 -0.29356756681E+02  0.70037292547E+02  0.85936114359E+02  0.00000000000E+00 0. -1.
          2    1    1    2  501    0 -0.26565392775E+02  0.25086911061E+02  0.14486257328E+02  0.39305532069E+02  0.00000000000E+00 0. -1.
<scales pt_clust_5="13000.00000" pt_clust_6="13000.00000" pt_clust_7="13000.00000" pt_clust_8="13000.00000" pt_clust_9="36.53865"></scales>
<clustering>
<clus scale="   36.539">  2  9  1 -1</clus>
<clus scale="   82.557">  5  6 -1 -1</clus>
<clus scale="   85.507">  1  5  2 -1</clus>
<clus scale="   91.432">  7  8 -1 -1</clus>
<clus scale="   36.539">  2  5  1 -1</clus>
</clustering>
</event>
<event>
 9    1  0.3197504E-005  0.1054411E+03  0.7546771E-02  0.1275423E+00
         21   -1    0    0  501  502  0.00000000000E+00  0.00000000000E+00  0.12571430476E+03  0.12571430476E+03  0.00000000000E+00 0. -1.
          1   -1    0    0  502    0 -0.00000000000E+00 -0.00000000000E+00 -0.16917798507E+03  0.16917798507E+03  0.00000000000E+00 0. -1.
        -24    2    1    2    0    0 -0.29746896492E+02 -0.45108928768E+02 -0.66465878090E+02  0.11763617391E+03  0.80627930375E+02 0.  0.
         23    2    1    2    0    0  0.40361400247E+01  0.25340343808E+02  0.70074839540E+02  0.12009254752E+03  0.94092047394E+02 0.  0.
         11    1    3    3    0    0 -0.87496543092E+01  0.20305873806E+02 -0.95038639100E-01  0.22110947376E+02  0.00000000000E+00 0. -1.
        -12    1    3    3    0    0 -0.20997242182E+02 -0.65414802574E+02 -0.66370839451E+02  0.95525226534E+02  0.00000000000E+00 0.  1.
        -13    1    4    4    0    0 -0.19100760715E+02  0.62115434016E+01 -0.18044122517E+02  0.27000234976E+02  0.00000000000E+00 0.  1.
         13    1    4    4    0    0  0.23136900740E+02  0.19128800406E+02  0.88118962058E+02  0.93092312545E+02  0.00000000000E+00 0. -1.
          2    1    1    2  501    0  0.25710756467E+02  0.19768584960E+02 -0.47072641758E+02  0.57163568394E+02  0.00000000000E+00 0. -1.
<scales pt_clust_5="13000.00000" pt_clust_6="13000.00000" pt_clust_7="13000.00000" pt_clust_8="13000.00000" pt_clust_9="32.43210"></scales>
<clustering>
<clus scale="   32.432">  1  9  2 -1</clus>
<clus scale="   80.628">  5  6 -1 -1</clus>
<clus scale="   93.624">  2  5  1 -1</clus>
<clus scale="   94.092">  7  8 -1 -1</clus>
<clus scale="   32.432">  1  5  2 -1</clus>
</clustering>
</event>
<event>
 9    1  0.3197504E-005  0.1414740E+03  0.7546771E-02  0.1237292E+00
         21   -1    0    0  501  502  0.00000000000E+00  0.00000000000E+00  0.54445627386E+02  0.54445627386E+02  0.00000000000E+00 0.  1.
         -4   -1    0    0    0  501 -0.00000000000E+00 -0.00000000000E+00 -0.51264938093E+03  0.51264938093E+03  0.00000000000E+00 0.  1.
        -24    2    1    2    0    0 -0.10082659979E+02  0.22602121402E+02 -0.10972920852E+03  0.13721779233E+03  0.78585669211E+02 0.  0.
         23    2    1    2    0    0 -0.36777556625E+02 -0.11208246899E+03 -0.18141420480E+03  0.23465485615E+03  0.90756373254E+02 0.  0.
         11    1    3    3    0    0  0.23360722984E+02 -0.49819075678E+01 -0.82815748624E+02  0.86191594726E+02  0.00000000000E+00 0. -1.
        -12    1    3    3    0    0 -0.33443382964E+02  0.27584028970E+02 -0.26913459896E+02  0.51026197604E+02  0.00000000000E+00 0.  1.
        -11    1    4    4    0    0 -0.21855603831E+02 -0.12610902414E+03 -0.15037745328E+03  0.19747033155E+03  0.00000000000E+00 0.  1.
         11    1    4    4    0    0 -0.14921952794E+02  0.14026555154E+02 -0.31036751514E+02  0.37184524593E+02  0.00000000000E+00 0. -1.
         -3    1    1    2    0  502  0.46860216605E+02  0.89480347584E+02 -0.16706034023E+03  0.19522235984E+03  0.00000000000E+00 0.  1.
<scales pt_clust_5="13000.00000" pt_clust_6="13000.00000" pt_clust_7="13000.00000" pt_clust_8="13000.00000" pt_clust_9="108.52734"></scales>
<clustering>
<clus scale="   78.586">  5  6 -1 -1</clus>
<clus scale="   82.391">  2  5  1 -1</clus>
<clus scale="   90.756">  7  8 -1 -1</clus>
<clus scale="  108.527">  1  9  2 -1</clus>
<clus scale="  108.527">  1  5  2 -1</clus>
</clustering>
</event>
<event>
 9    1  0.3197504E-005  0.1499665E+03  0.7546771E-02  0.1221919E+00
         21   -1    0    0  501  502  0.00000000000E+00  0.00000000000E+00  0.18647379466E+03  0.18647379466E+03  0.00000000000E+00 0. -1.
          3   -1    0    0  502    0 -0.00000000000E+00 -0.00000000000E+00 -0.18672368919E+03  0.18672368919E+03  0.00000000000E+00 0. -1.
         23    2    1    2    0    0  0.59617669469E+01 -0.17912928908E+02  0.18070504823E+01  0.95052749559E+02  0.93141527151E+02 0.  0.
        -24    2    1    2    0    0 -0.92669324171E+02 -0.80681427677E+02 -0.10414947931E+02  0.14658142693E+03  0.79249903259E+02 0.  0.
         11    1    4    4    0    0 -0.72559408467E+02 -0.90133285044E+02  0.10345455233E+02  0.11617187815E+03  0.00000000000E+00 0. -1.
        -12    1    4    4    0    0 -0.20109915704E+02  0.94518573669E+01 -0.20760403164E+02  0.30409548777E+02  0.00000000000E+00 0.  1.
        -11    1    3    3    0    0  0.83349348653E+00  0.33714819360E+02  0.21006583778E+02  0.39732358574E+02  0.00000000000E+00 0. -1.
         11    1    3    3    0    0  0.51282734604E+01 -0.51627748268E+02 -0.19199533296E+02  0.55320390985E+02  0.00000000000E+00 0.  1.
          4    1    1    2  501    0  0.86707557224E+02  0.98594356586E+02  0.83580029154E+01  0.13156330736E+03  0.00000000000E+00 0. -1.
<scales pt_clust_5="13000.00000" pt_clust_6="13000.00000" pt_clust_7="13000.00000" pt_clust_8="13000.00000" pt_clust_9="127.31622"></scales>
<clustering>
<clus scale="   79.250">  5  6 -1 -1</clus>
<clus scale="   93.142">  7  8 -1 -1</clus>
<clus scale="   95.036">  2  7  1 -1</clus>
<clus scale="  127.316">  1  9  2 -1</clus>
<clus scale="  127.316">  1  5  2 -1</clus>
</clustering>
</event>
<event>
 9    1  0.3197504E-005  0.1254410E+03  0.7546771E-02  0.1237721E+00
         21   -1    0    0  501  502  0.00000000000E+00  0.00000000000E+00  0.41579657699E+03  0.41579657699E+03  0.00000000000E+00 0. -1.
         -4   -1    0    0    0  501 -0.00000000000E+00 -0.00000000000E+00 -0.67736471079E+02  0.67736471079E+02  0.00000000000E+00 0.  1.
        -24    2    1    2    0    0  0.98686744633E+02 -0.31430852131E+02  0.67501617722E+02  0.14722675456E+03  0.79951715616E+02 0.  0.
         23    2    1    2    0    0 -0.66231225518E+02 -0.19351221745E+02  0.12594674522E+03  0.17036362024E+03  0.91652252856E+02 0.  0.
         13    1    3    3    0    0  0.89545705931E+02 -0.81471383142E+00  0.23023594789E+02  0.92461792792E+02  0.00000000000E+00 0. -1.
        -14    1    3    3    0    0  0.91410387018E+01 -0.30616138299E+02  0.44478022933E+02  0.54764961764E+02  0.00000000000E+00 0.  1.
        -11    1    4    4    0    0 -0.33752831717E+02 -0.14510933691E+02 -0.34159224571E+01  0.36898365434E+02  0.00000000000E+00 0.  1.
         11    1    4    4    0    0 -0.32478393801E+02 -0.48402880542E+01  0.12936266767E+03  0.13346525480E+03  0.00000000000E+00 0. -1.
         -3    1    1    2    0  502 -0.32455519115E+02  0.50782073876E+02  0.15461174297E+03  0.16594267327E+03  0.00000000000E+00 0.  1.
<scales pt_clust_5="13000.00000" pt_clust_6="13000.00000" pt_clust_7="13000.00000" pt_clust_8="13000.00000" pt_clust_9="60.26757"></scales>
<clustering>
<clus scale="   60.268">  1  9  2 -1</clus>
<clus scale="   79.952">  5  6 -1 -1</clus>
<clus scale="   91.652">  7  8 -1 -1</clus>
<clus scale="  117.165">  2  5  1 -1</clus>
<clus scale="   60.268">  1  5  2 -1</clus>
</clustering>
</event>
<event>
 9    1  0.3197504E-005  0.2830553E+03  0.7546771E-02  0.1094392E+00
         21   -1    0    0  501  502  0.00000000000E+00  0.00000000000E+00  0.13534981855E+03  0.13534981855E+03  0.00000000000E+00 0.  1.
         -2   -1    0    0    0  501 -0.00000000000E+00 -0.00000000000E+00 -0.14753858849E+04  0.14753858849E+04  0.00000000000E+00 0.  1.
         23    2    1    2    0    0  0.25123060833E+03  0.10654006042E+03 -0.12782537757E+04  0.13101584456E+04  0.90082375589E+02 0.  0.
        -24    2    1    2    0    0 -0.22307448725E+03 -0.80938114386E+02 -0.33335185214E+02  0.25306447429E+03  0.81346102268E+02 0.  0.
         11    1    4    4    0    0 -0.32988992053E+02 -0.40265495197E+02 -0.26844446954E+02  0.58567977875E+02  0.00000000000E+00 0. -1.
        -12    1    4    4    0    0 -0.19008549520E+03 -0.40672619189E+02 -0.64907382594E+01  0.19449649642E+03  0.00000000000E+00 0.  1.
        -13    1    3    3    0    0  0.97012823169E+02 -0.34485223889E+01 -0.38597597814E+03  0.39799602494E+03  0.00000000000E+00 0. -1.
         13    1    3    3    0    0  0.15421778516E+03  0.10998858281E+03 -0.89227779755E+03  0.91216242063E+03  0.00000000000E+00 0.  1.
         -1    1    1    2    0  502 -0.28156121084E+02 -0.25601946031E+02 -0.28447105418E+02  0.47512783561E+02  0.00000000000E+00 0.  1.
<scales pt_clust_5="13000.00000" pt_clust_6="13000.00000" pt_clust_7="13000.00000" pt_clust_8="13000.00000" pt_clust_9="38.05558"></scales>
<clustering>
<clus scale="   38.056">  1  9  2 -1</clus>
<clus scale="   81.346">  5  6 -1 -1</clus>
<clus scale="   90.082">  7  8 -1 -1</clus>
<clus scale="  280.397">  1  5  2 -1</clus>
<clus scale="   38.056">  1  5  2 -1</clus>
</clustering>
</event>
<event>
 9    1  0.3197504E-005  0.1146696E+03  0.7546771E-02  0.1253657E+00
         21   -1    0    0  501  502  0.00000000000E+00  0.00000000000E+00  0.16307953466E+03  0.16307953466E+03  0.00000000000E+00 0. -1.
          3   -1    0    0  502    0 -0.00000000000E+00 -0.00000000000E+00 -0.45120883666E+03  0.45120883666E+03  0.00000000000E+00 0. -1.
         23    2    1    2    0    0 -0.37729056593E+02 -0.64955220737E+02 -0.35383661386E+03  0.37159882438E+03  0.85103904498E+02 0.  0.
        -24    2    1    2    0    0  0.57786502529E+02  0.63832765957E+02 -0.47957617777E+02  0.12726304534E+03  0.80511165204E+02 0.  0.
         11    1    4    4    0    0  0.18167604434E+02 -0.17493721123E+02 -0.77133682528E+00  0.25232659196E+02  0.00000000000E+00 0. -1.
        -12    1    4    4    0    0  0.39618898094E+02  0.81326487080E+02 -0.47186280952E+02  0.10203038615E+03  0.00000000000E+00 0.  1.
        -11    1    3    3    0    0  0.21784752011E+02 -0.40960883402E+02 -0.19150760841E+03  0.19704703364E+03  0.00000000000E+00 0. -1.
         11    1    3    3    0    0 -0.59513808604E+02 -0.23994337336E+02 -0.16232900545E+03  0.17455179073E+03  0.00000000000E+00 0.  1.
          4    1    1    2  501    0 -0.20057445936E+02  0.11224547799E+01  0.11366492964E+03  0.11542650160E+03  0.00000000000E+00 0. -1.
<scales pt_clust_5="13000.00000" pt_clust_6="13000.00000" pt_clust_7="13000.00000" pt_clust_8="13000.00000" pt_clust_9="20.08883"></scales>
<clustering>
<clus scale="   20.089">  1  9  2 -1</clus>
<clus scale="   80.511">  5  6 -1 -1</clus>
<clus scale="   85.104">  7  8 -1 -1</clus>
<clus scale="  111.304">  1  5  2 -1</clus>
<clus scale="   20.089">  1  5  2 -1</clus>
</clustering>
</event>
<event>
 9    1  0.3197504E-005  0.9362210E+02  0.7546771E-02  0.1300660E+00
         -4   -1    0    0    0  501 -0.00000000000E+00  0.00000000000E+00  0.62572582889E+03  0.62572582889E+03  0.00000000000E+00 0.  1.
         21   -1    0    0  501  502  0.00000000000E+00 -0.00000000000E+00 -0.11805368989E+03  0.11805368989E+03  0.00000000000E+00 0. -1.
        -24    2    1    2    0    0 -0.22137114141E+02  0.14126121891E+01  0.57649194562E+03  0.58241757086E+03  0.79844950889E+02 0.  0.
         23    2    1    2    0    0  0.56233160385E+02 -0.25840017258E+01 -0.32471073104E+02  0.11151073979E+03  0.90616936102E+02 0.  0.
         13    1    3    3    0    0  0.24625216114E+02 -0.48783580199E+01  0.84011188127E+02  0.87681693507E+02  0.00000000000E+00 0. -1.
        -14    1    3    3    0    0 -0.46762330255E+02  0.62909702090E+01  0.49248075750E+03  0.49473587735E+03  0.00000000000E+00 0.  1.
        -13    1    4    4    0    0 -0.79949504624E+01 -0.34093822185E+02 -0.82131859370E+01  0.35968936144E+02  0.00000000000E+00 0.  1.
         13    1    4    4    0    0  0.64228110847E+02  0.31509820460E+02 -0.24257887167E+02  0.75541803647E+02  0.00000000000E+00 0. -1.
         -3    1    1    2    0  502 -0.34096046244E+02  0.11713895367E+01 -0.36348733517E+02  0.49851208122E+02  0.00000000000E+00 0.  1.
<scales pt_clust_5="13000.00000" pt_clust_6="13000.00000" pt_clust_7="13000.00000" pt_clust_8="13000.00000" pt_clust_9="34.11616"></scales>
<clustering>
<clus scale="   34.116">  2  9  1 -1</clus>
<clus scale="   79.845">  5  6 -1 -1</clus>
<clus scale="   83.240">  1  5  2 -1</clus>
<clus scale="   90.617">  7  8 -1 -1</clus>
<clus scale="   34.116">  2  5  1 -1</clus>
</clustering>
</event>
<event>
 9    1  0.3197504E-005  0.1268582E+03  0.7546771E-02  0.1235164E+00
         -2   -1    0    0    0  501 -0.00000000000E+00  0.00000000000E+00  0.11478079872E+03  0.11478079872E+03  0.00000000000E+00 0.  1.
         21   -1    0    0  501  502  0.00000000000E+00 -0.00000000000E+00 -0.44239995753E+03  0.44239995753E+03  0.00000000000E+00 0.  1.
        -24    2    1    2    0    0  0.60409406641E+02  0.73003170202E+02  0.47564973867E+02  0.13325417763E+03  0.80718584276E+02 0.  0.
         23    2    1    2    0    0 -0.77412758340E+02 -0.55246344806E+01 -0.17639559617E+03  0.21330998621E+03  0.91446635411E+02 0.  0.
         11    1    3    3    0    0  0.53144472983E+02  0.33605423524E+02 -0.94368179602E+01  0.63582332703E+02  0.00000000000E+00 0. -1.
        -12    1    3    3    0    0  0.72649336580E+01  0.39397746678E+02  0.57001791827E+02  0.69671844930E+02  0.00000000000E+00 0.  1.
        -13    1    4    4    0    0  0.16638929035E+02 -0.18578798060E+02 -0.34314494743E+02  0.42420634675E+02  0.00000000000E+00 0. -1.
         13    1    4    4    0    0 -0.94051687374E+02  0.13054163579E+02 -0.14208110142E+03  0.17088935153E+03  0.00000000000E+00 0.  1.
         -1    1    1    2    0  502  0.17003351699E+02 -0.67478535721E+02 -0.19878853651E+03  0.21061659242E+03  0.00000000000E+00 0.  1.
<scales pt_clust_5="13000.00000" pt_clust_6="13000.00000" pt_clust_7="13000.00000" pt_clust_8="13000.00000" pt_clust_9="69.58783"></scales>
<clustering>
<clus scale="   69.588">  2  9  1 -1</clus>
<clus scale="   80.719">  5  6 -1 -1</clus>
<clus scale="   91.447">  7  8 -1 -1</clus>
<clus scale="  119.357">  1  5  2 -1</clus>
<clus scale="   69.588">  2  5  1 -1</clus>
</clustering>
</event>
<event>
 9    1  0.3197504E-005  0.1617769E+03  0.7546771E-02  0.1201131E+00
          1   -1    0    0  502    0 -0.00000000000E+00  0.00000000000E+00  0.39530774952E+03  0.39530774952E+03  0.00000000000E+00 0. -1.
         21   -1    0    0  501  502  0.00000000000E+00 -0.00000000000E+00 -0.57226202863E+03  0.57226202863E+03  0.00000000000E+00 0. -1.
        -24    2    1    2    0    0  0.79916641904E+02 -0.31753505898E+02  0.36392220569E+02  0.12336322448E+03  0.80617223011E+02 0.  0.
         23    2    1    2    0    0  0.51811164601E+02  0.63650381133E+02  0.29424923418E+03  0.31882759075E+03  0.91283366566E+02 0.  0.
         13    1    3    3    0    0  0.72134025588E+02 -0.16734557253E+01  0.51663535024E+02  0.88742543083E+02  0.00000000000E+00 0. -1.
        -14    1    3    3    0    0  0.77826163155E+01 -0.30080050173E+02 -0.15271314456E+02  0.34620681396E+02  0.00000000000E+00 0.  1.
        -13    1    4    4    0    0  0.72178933670E+02  0.70608429730E+02  0.25002103636E+03  0.26964025559E+03  0.00000000000E+00 0. -1.
         13    1    4    4    0    0 -0.20367769069E+02 -0.69580485974E+01  0.44228197818E+02  0.49187335152E+02  0.00000000000E+00 0.  1.
          2    1    1    2  501    0 -0.13172780650E+03 -0.31896875235E+02 -0.50759573385E+03  0.52537896292E+03  0.00000000000E+00 0. -1.
<scales pt_clust_5="13000.00000" pt_clust_6="13000.00000" pt_clust_7="13000.00000" pt_clust_8="13000.00000" pt_clust_9="133.56310"></scales>
<clustering>
<clus scale="   80.617">  5  6 -1 -1</clus>
<clus scale="   91.283">  7  8 -1 -1</clus>
<clus scale="  117.873">  1  5  2 -1</clus>
<clus scale="  133.563">  2  9  1 -1</clus>
<clus scale="  133.563">  2  5  1 -1</clus>
</clustering>
</event>
<event>
 9    1  0.3197504E-005  0.2089810E+03  0.7546771E-02  0.1164317E+00
          1   -1    0    0  502    0 -0.00000000000E+00  0.00000000000E+00  0.16730628857E+04  0.16730628857E+04  0.00000000000E+00 0. -1.
         21   -1    0    0  501  502  0.00000000000E+00 -0.00000000000E+00 -0.62444814702E+02  0.62444814702E+02  0.00000000000E+00 0.  1.
        -24    2    1    2    0    0 -0.94387019699E+02 -0.93793165620E+01  0.53120205476E+03  0.54562743742E+03  0.80850457151E+02 0.  0.
         23    2    1    2    0    0  0.37501596928E+02 -0.18473485091E+03  0.20860582809E+03  0.29588549503E+03  0.92187307937E+02 0.  0.
         13    1    3    3    0    0 -0.98903842123E+02 -0.35723571812E+01  0.52865980300E+03  0.53784376823E+03  0.00000000000E+00 0. -1.
        -14    1    3    3    0    0  0.45168224236E+01 -0.58069593808E+01  0.25422517644E+01  0.77836691920E+01  0.00000000000E+00 0.  1.
        -13    1    4    4    0    0  0.65332192784E+02 -0.12236356240E+03  0.11603450023E+03  0.18084563047E+03  0.00000000000E+00 0.  1.
         13    1    4    4    0    0 -0.27830595855E+02 -0.62371288504E+02  0.92571327866E+02  0.11503986456E+03  0.00000000000E+00 0. -1.
          2    1    1    2  501    0  0.56885422771E+02  0.19411416747E+03  0.87081018816E+03  0.89399476796E+03  0.00000000000E+00 0. -1.
<scales pt_clust_5="13000.00000" pt_clust_6="13000.00000" pt_clust_7="13000.00000" pt_clust_8="13000.00000" pt_clust_9="187.54891"></scales>
<clustering>
<clus scale="   80.850">  5  6 -1 -1</clus>
<clus scale="   92.187">  7  8 -1 -1</clus>
<clus scale="  124.634">  1  5  2 -1</clus>
<clus scale="  187.549">  2  9  1 -1</clus>
<clus scale="  187.549">  2  5  1 -1</clus>
</clustering>
</event>
<event>
 9    1  0.3197504E-005  0.2535563E+03  0.7546771E-02  0.1111078E+00
         21   -1    0    0  501  502  0.00000000000E+00  0.00000000000E+00  0.78645549958E+02  0.78645549958E+02  0.00000000000E+00 0. -1.
          1   -1    0    0  502    0 -0.00000000000E+00 -0.00000000000E+00 -0.57767747592E+03  0.57767747592E+03  0.00000000000E+00 0. -1.
        -24    2    1    2    0    0 -0.56746613772E+02 -0.65309366002E+02 -0.16906168356E+03  0.20754245832E+03  0.83705004010E+02 0.  0.
         23    2    1    2    0    0 -0.94359394664E+02 -0.17349734280E+02 -0.14361374025E+03  0.19502025045E+03  0.90571977207E+02 0.  0.
         11    1    3    3    0    0  0.20782785710E+02 -0.12482410696E+02 -0.20063278296E+02  0.31468554061E+02  0.00000000000E+00 0. -1.
        -12    1    3    3    0    0 -0.77529399482E+02 -0.52826955306E+02 -0.14899840526E+03  0.17607390426E+03  0.00000000000E+00 0.  1.
        -11    1    4    4    0    0 -0.67152437846E+02  0.19796709932E+01 -0.24807741934E+02  0.71615592337E+02  0.00000000000E+00 0. -1.
         11    1    4    4    0    0 -0.27206956818E+02 -0.19329405273E+02 -0.11880599832E+03  0.12340465811E+03  0.00000000000E+00 0.  1.
          2    1    1    2  501    0  0.15110600844E+03  0.82659100282E+02 -0.18635650215E+03  0.25376031711E+03  0.00000000000E+00 0. -1.
<scales pt_clust_5="13000.00000" pt_clust_6="13000.00000" pt_clust_7="13000.00000" pt_clust_8="13000.00000" pt_clust_9="172.23691"></scales>
<clustering>
<clus scale="   83.705">  5  6 -1 -1</clus>
<clus scale="   90.572">  7  8 -1 -1</clus>
<clus scale="  109.719">  5  7 -1 -1</clus>
<clus scale="  172.237">  1  9  2 -1</clus>
<clus scale="  172.237">  1  5  2 -1</clus>
</clustering>
</event>
<event>
 9    1  0.3197504E-005  0.1410134E+03  0.7546771E-02  0.1227665E+00
          1   -1    0    0  502    0 -0.00000000000E+00  0.00000000000E+00  0.56603093089E+03  0.56603093089E+03  0.00000000000E+00 0. -1.
         21   -1    0    0  501  502  0.00000000000E+00 -0.00000000000E+00 -0.88827797345E+02  0.88827797345E+02  0.00000000000E+00 0. -1.
         23    2    1    2    0    0  0.46329281087E+02 -0.12947093100E+01  0.34876922468E+03  0.36321543491E+03  0.90207546883E+02 0.  0.
        -24    2    1    2    0    0 -0.10258630275E+03  0.88428693604E+02  0.78444073572E+02  0.17650786291E+03  0.81596382424E+02 0.  0.
         13    1    4    4    0    0 -0.85919963541E+02  0.10064156542E+03  0.50239931250E+02  0.14154510065E+03  0.00000000000E+00 0. -1.
        -14    1    4    4    0    0 -0.16666339210E+02 -0.12212871817E+02  0.28204142322E+02  0.34962762259E+02  0.00000000000E+00 0.  1.
        -11    1    3    3    0    0  0.18509528473E+02  0.39245472667E+02  0.23942906719E+03  0.24332917619E+03  0.00000000000E+00 0. -1.
         11    1    3    3    0    0  0.27819752614E+02 -0.40540181977E+02  0.10934015749E+03  0.11988625872E+03  0.00000000000E+00 0.  1.
          2    1    1    2  501    0  0.56257021663E+02 -0.87133984294E+02  0.49989835295E+02  0.11513543042E+03  0.00000000000E+00 0. -1.
<scales pt_clust_5="13000.00000" pt_clust_6="13000.00000" pt_clust_7="13000.00000" pt_clust_8="13000.00000" pt_clust_9="115.00785"></scales>
<clustering>
<clus scale="   81.596">  5  6 -1 -1</clus>
<clus scale="   90.208">  7  8 -1 -1</clus>
<clus scale="  101.417">  1  7  2 -1</clus>
<clus scale="  115.008">  2  9  1 -1</clus>
<clus scale="  115.008">  2  5  1 -1</clus>
</clustering>
</event>
<event>
 9    1  0.3197504E-005  0.1115693E+03  0.7546771E-02  0.1259934E+00
         21   -1    0    0  501  502  0.00000000000E+00  0.00000000000E+00  0.61934488330E+03  0.61934488330E+03  0.00000000000E+00 0.  1.
         -4   -1    0    0    0  501 -0.00000000000E+00 -0.00000000000E+00 -0.46454681364E+02  0.46454681364E+02  0.00000000000E+00 0.  1.
        -24    2    1    2    0    0 -0.24947536329E+02 -0.70276790685E+02  0.86941608765E+02  0.14756448302E+03  0.93033469436E+02 0.  0.
         23    2    1    2    0    0  0.25120215519E+02  0.13783081719E+01  0.20333746790E+03  0.22734665142E+03  0.98526387841E+02 0.  0.
         11    1    3    3    0    0 -0.37201921313E+02 -0.54834244135E+02  0.10277154011E+03  0.12228150610E+03  0.00000000000E+00 0. -1.
        -12    1    3    3    0    0  0.12254384984E+02 -0.15442546550E+02 -0.15829931341E+02  0.25282976912E+02  0.00000000000E+00 0.  1.
        -13    1    4    4    0    0  0.54988683474E+02 -0.16630388246E+02  0.16861084184E+03  0.17812900132E+03  0.00000000000E+00 0.  1.
         13    1    4    4    0    0 -0.29868467955E+02  0.18008696418E+02  0.34726626051E+02  0.49217650102E+02  0.00000000000E+00 0. -1.
         -3    1    1    2    0  502 -0.17267918941E+00  0.68898482513E+02  0.28261112527E+03  0.29088843022E+03  0.00000000000E+00 0.  1.
<scales pt_clust_5="13000.00000" pt_clust_6="13000.00000" pt_clust_7="13000.00000" pt_clust_8="13000.00000" pt_clust_9="68.89870"></scales>
<clustering>
<clus scale="   68.899">  1  9  2 -1</clus>
<clus scale="   93.033">  5  6 -1 -1</clus>
<clus scale="   98.526">  7  8 -1 -1</clus>
<clus scale="  106.750">  2  5  1 -1</clus>
<clus scale="   68.899">  1  5  2 -1</clus>
</clustering>
</event>
<event>
 9    1  0.3197504E-005  0.1352179E+03  0.7546771E-02  0.1222985E+00
         -2   -1    0    0    0  501 -0.00000000000E+00  0.00000000000E+00  0.22129241545E+03  0.22129241545E+03  0.00000000000E+00 0.  1.
         21   -1    0    0  501  502  0.00000000000E+00 -0.00000000000E+00 -0.12322297876E+03  0.12322297876E+03  0.00000000000E+00 0. -1.
         23    2    1    2    0    0 -0.33196921807E+02 -0.91182941193E+02  0.11055956169E+03  0.17377267602E+03  0.92504928886E+02 0.  0.
        -24    2    1    2    0    0  0.53883987795E+02  0.87466053960E+02  0.20508571031E+02  0.13161876274E+03  0.79681255539E+02 0.  0.
         11    1    4    4    0    0  0.14666551143E+02  0.84919920994E+02  0.29891754610E+02  0.91214131020E+02  0.00000000000E+00 0. -1.
        -12    1    4    4    0    0  0.39217436652E+02  0.25461329666E+01 -0.93831835789E+01  0.40404631724E+02  0.00000000000E+00 0.  1.
        -11    1    3    3    0    0 -0.53329135266E+02 -0.94201495273E+02  0.10857629100E+03  0.15331904431E+03  0.00000000000E+00 0.  1.
         11    1    3    3    0    0  0.20132213459E+02  0.30185540805E+01  0.19832706833E+01  0.20453631709E+02  0.00000000000E+00 0. -1.
         -1    1    1    2    0  502 -0.20687065988E+02  0.37168872326E+01 -0.32998696035E+02  0.39123955448E+02  0.00000000000E+00 0.  1.
<scales pt_clust_5="13000.00000" pt_clust_6="13000.00000" pt_clust_7="13000.00000" pt_clust_8="13000.00000" pt_clust_9="21.01832"></scales>
<clustering>
<clus scale="   21.018">  2  9  1 -1</clus>
<clus scale="   79.681">  5  6 -1 -1</clus>
<clus scale="   92.505">  7  8 -1 -1</clus>
<clus scale="  126.790">  2  5  1 -1</clus>
<clus scale="   21.018">  2  5  1 -1</clus>
</clustering>
</event>
<event>
 9    1  0.3197504E-005  0.1182769E+03  0.7546771E-02  0.1248854E+00
         21   -1    0    0  501  502  0.00000000000E+00  0.00000000000E+00  0.14976868310E+03  0.14976868310E+03  0.00000000000E+00 0.  1.
         -2   -1    0    0    0  501 -0.00000000000E+00 -0.00000000000E+00 -0.16709076365E+03  0.16709076365E+03  0.00000000000E+00 0.  1.
         23    2    1    2    0    0  0.44986626373E+02  0.63523841499E+02 -0.10426460017E+03  0.15854678483E+03  0.90591948533E+02 0.  0.
        -24    2    1    2    0    0 -0.22488118410E+02 -0.67953830842E+02  0.77855639204E+02  0.13364732062E+03  0.81710875391E+02 0.  0.
         11    1    4    4    0    0 -0.52536701299E+02 -0.38426453934E+02  0.36559562925E+02  0.74654530918E+02  0.00000000000E+00 0. -1.
        -12    1    4    4    0    0  0.30048582889E+02 -0.29527376909E+02  0.41296076279E+02  0.58992789702E+02  0.00000000000E+00 0.  1.
        -13    1    3    3    0    0  0.26377981399E+02  0.83777886368E+02 -0.59779994122E+02  0.10624584624E+03  0.00000000000E+00 0. -1.
         13    1    3    3    0    0  0.18608644975E+02 -0.20254044869E+02 -0.44484606047E+02  0.52300938582E+02  0.00000000000E+00 0.  1.
         -1    1    1    2    0  502 -0.22498507964E+02  0.44299893436E+01  0.90868804049E+01  0.24665341305E+02  0.00000000000E+00 0.  1.
<scales pt_clust_5="13000.00000" pt_clust_6="13000.00000" pt_clust_7="13000.00000" pt_clust_8="13000.00000" pt_clust_9="22.93050"></scales>
<clustering>
<clus scale="   22.930">  1  9  2 -1</clus>
<clus scale="   81.711">  5  6 -1 -1</clus>
<clus scale="   90.592">  7  8 -1 -1</clus>
<clus scale="  111.621">  1  5  2 -1</clus>
<clus scale="   22.930">  1  5  2 -1</clus>
</clustering>
</event>
<event>
 9    1  0.3197504E-005  0.1072269E+03  0.7546771E-02  0.1274974E+00
         21   -1    0    0  501  502  0.00000000000E+00  0.00000000000E+00  0.95111060243E+02  0.95111060243E+02  0.00000000000E+00 0.  1.
          1   -1    0    0  502    0 -0.00000000000E+00 -0.00000000000E+00 -0.23122423478E+03  0.23122423478E+03  0.00000000000E+00 0. -1.
         23    2    1    2    0    0 -0.44231127187E+02  0.32422504231E+02 -0.12073583047E+03  0.16099711628E+03  0.91297969854E+02 0.  0.
        -24    2    1    2    0    0  0.15323305618E+02 -0.72477868724E+02  0.20909399891E+02  0.10404525778E+03  0.70002625045E+02 0.  0.
         11    1    4    4    0    0  0.27637289292E+02 -0.69190844937E+02 -0.55125572569E+01  0.74709979722E+02  0.00000000000E+00 0. -1.
        -12    1    4    4    0    0 -0.12313983675E+02 -0.32870237875E+01  0.26421957148E+02  0.29335278060E+02  0.00000000000E+00 0.  1.
        -11    1    3    3    0    0  0.16894966081E+02  0.39626990446E+02 -0.64896000230E+02  0.77892420020E+02  0.00000000000E+00 0. -1.
         11    1    3    3    0    0 -0.61126093268E+02 -0.72044862156E+01 -0.55839830241E+02  0.83104696264E+02  0.00000000000E+00 0.  1.
          2    1    1    2  501    0  0.28907821569E+02  0.40055364494E+02 -0.36286743959E+02  0.61292920959E+02  0.00000000000E+00 0. -1.
<scales pt_clust_5="13000.00000" pt_clust_6="13000.00000" pt_clust_7="13000.00000" pt_clust_8="13000.00000" pt_clust_9="49.39734"></scales>
<clustering>
<clus scale="   49.397">  1  9  2 -1</clus>
<clus scale="   70.003">  5  6 -1 -1</clus>
<clus scale="   89.792">  1  5  2 -1</clus>
<clus scale="   91.298">  7  8 -1 -1</clus>
<clus scale="   49.397">  1  5  2 -1</clus>
</clustering>
</event>
<event>
 9    1  0.3197504E-005  0.1026276E+03  0.7546771E-02  0.1280368E+00
         21   -1    0    0  501  502  0.00000000000E+00  0.00000000000E+00  0.24456651373E+03  0.24456651373E+03  0.00000000000E+00 0. -1.
         -2   -1    0    0    0  501 -0.00000000000E+00 -0.00000000000E+00 -0.59437102533E+02  0.59437102533E+02  0.00000000000E+00 0.  1.
         23    2    1    2    0    0  0.18450668827E+02  0.28159538271E+02  0.59183155090E+02  0.11465216409E+03  0.92244707758E+02 0.  0.
        -24    2    1    2    0    0 -0.37392483499E+01 -0.63682977785E+02  0.94390158039E+02  0.13961084529E+03  0.80698095083E+02 0.  0.
         11    1    4    4    0    0 -0.41335513203E+02 -0.23317721820E+02  0.38852283563E+02  0.61333846616E+02  0.00000000000E+00 0. -1.
        -12    1    4    4    0    0  0.37596264853E+02 -0.40365255965E+02  0.55537874476E+02  0.78276998674E+02  0.00000000000E+00 0.  1.
        -11    1    3    3    0    0 -0.30373194767E+02  0.35509182131E+02  0.17037163512E+02  0.49736283702E+02  0.00000000000E+00 0.  1.
         11    1    3    3    0    0  0.48823863594E+02 -0.73496438600E+01  0.42145991578E+02  0.64915880393E+02  0.00000000000E+00 0. -1.
         -1    1    1    2    0  502 -0.14711420477E+02  0.35523439514E+02  0.31556098067E+02  0.49740606878E+02  0.00000000000E+00 0.  1.
<scales pt_clust_5="13000.00000" pt_clust_6="13000.00000" pt_clust_7="13000.00000" pt_clust_8="13000.00000" pt_clust_9="38.44920"></scales>
<clustering>
<clus scale="   38.449">  1  9  2 -1</clus>
<clus scale="   80.698">  5  6 -1 -1</clus>
<clus scale="   92.245">  7  8 -1 -1</clus>
<clus scale="   92.388">  1  5  2 -1</clus>
<clus scale="   38.449">  1  5  2 -1</clus>
</clustering>
</event>
<event>
 9    1  0.3197504E-005  0.2310652E+03  0.7546771E-02  0.1126717E+00
         21   -1    0    0  501  502  0.00000000000E+00  0.00000000000E+00  0.11818263834E+03  0.11818263834E+03  0.00000000000E+00 0. -1.
         -2   -1    0    0    0  501 -0.00000000000E+00 -0.00000000000E+00 -0.93262347321E+03  0.93262347321E+03  0.00000000000E+00 0.  1.
        -24    2    1    2    0    0  0.17206181518E+03 -0.44785423567E+02 -0.27829891639E+03  0.33966510170E+03  0.79442381919E+02 0.  0.
         23    2    1    2    0    0 -0.29155591453E+03  0.55500309847E+02 -0.24311942428E+03  0.39450899840E+03  0.91897549794E+02 0.  0.
         13    1    3    3    0    0  0.16346257836E+03 -0.25489826392E+02 -0.27062960847E+03  0.31719100043E+03  0.00000000000E+00 0. -1.
        -14    1    3    3    0    0  0.85992368145E+01 -0.19295597175E+02 -0.76693079273E+01  0.22474101277E+02  0.00000000000E+00 0.  1.
        -13    1    4    4    0    0 -0.20134880712E+03  0.44005228349E+02 -0.21835427767E+03  0.30026054158E+03  0.00000000000E+00 0.  1.
         13    1    4    4    0    0 -0.90207107410E+02  0.11495081499E+02 -0.24765146618E+02  0.94248456820E+02  0.00000000000E+00 0. -1.
         -1    1    1    2    0  502  0.11949409936E+03 -0.10714886280E+02 -0.29302249419E+03  0.31663201145E+03  0.00000000000E+00 0.  1.
<scales pt_clust_5="13000.00000" pt_clust_6="13000.00000" pt_clust_7="13000.00000" pt_clust_8="13000.00000" pt_clust_9="119.97359"></scales>
<clustering>
<clus scale="   79.442">  5  6 -1 -1</clus>
<clus scale="   91.898">  7  8 -1 -1</clus>
<clus scale="  119.974">  1  9  2 -1</clus>
<clus scale="  226.400">  2  5  1 -1</clus>
<clus scale="  119.974">  1  5  2 -1</clus>
</clustering>
</event>
<event>
 9    1  0.3197504E-005  0.9244113E+02  0.7546771E-02  0.1301934E+00
         21   -1    0    0  501  502  0.00000000000E+00  0.00000000000E+00  0.56812372040E+03  0.56812372040E+03  0.00000000000E+00 0. -1.
          3   -1    0    0  502    0 -0.00000000000E+00 -0.00000000000E+00 -0.65920316386E+02  0.65920316386E+02  0.00000000000E+00 0. -1.
        -24    2    1    2    0    0 -0.28818480287E+02  0.29673838889E+01 -0.16292851345E+02  0.87546903495E+02  0.80991932520E+02 0.  0.
         23    2    1    2    0    0 -0.28570657450E+02 -0.42536628267E+02  0.30315596853E+03  0.32015518543E+03  0.89275720605E+02 0.  0.
         13    1    3    3    0    0 -0.48004432653E+02  0.17480855318E+01 -0.35989996078E+02  0.60023005382E+02  0.00000000000E+00 0. -1.
        -14    1    3    3    0    0  0.19185952366E+02  0.12192983571E+01  0.19697144733E+02  0.27523898113E+02  0.00000000000E+00 0.  1.
        -13    1    4    4    0    0 -0.10727923698E+02 -0.69554064211E+02  0.19859545507E+03  0.21069649017E+03  0.00000000000E+00 0. -1.
         13    1    4    4    0    0 -0.17842733752E+02  0.27017435944E+02  0.10456051346E+03  0.10945869526E+03  0.00000000000E+00 0.  1.
          4    1    1    2  501    0  0.57389137737E+02  0.39569244379E+02  0.21534028683E+03  0.22634194787E+03  0.00000000000E+00 0. -1.
<scales pt_clust_5="13000.00000" pt_clust_6="13000.00000" pt_clust_7="13000.00000" pt_clust_8="13000.00000" pt_clust_9="69.70824"></scales>
<clustering>
<clus scale="   69.708">  1  9  2 -1</clus>
<clus scale="   80.992">  5  6 -1 -1</clus>
<clus scale="   84.468">  2  5  1 -1</clus>
<clus scale="   89.276">  7  8 -1 -1</clus>
<clus scale="   69.708">  1  5  2 -1</clus>
</clustering>
</event>
<event>
 9    1  0.3197504E-005  0.1231445E+03  0.7546771E-02  0.1256676E+00
         21   -1    0    0  501  502  0.00000000000E+00  0.00000000000E+00  0.47134137945E+02  0.47134137945E+02  0.00000000000E+00 0.  1.
         -2   -1    0    0    0  501 -0.00000000000E+00 -0.00000000000E+00 -0.45660963919E+03  0.45660963919E+03  0.00000000000E+00 0.  1.
        -24    2    1    2    0    0 -0.95494614172E+01 -0.22156052429E+02 -0.14901782922E+03  0.17138355720E+03  0.81141403630E+02 0.  0.
         23    2    1    2    0    0 -0.23645804205E+02 -0.62764663490E+02 -0.16373999400E+03  0.19944008265E+03  0.92016487064E+02 0.  0.
         13    1    3    3    0    0 -0.37621798962E+02 -0.52450308403E+00 -0.32909832639E+02  0.49987317841E+02  0.00000000000E+00 0. -1.
        -14    1    3    3    0    0  0.28072337545E+02 -0.21631549345E+02 -0.11610799658E+03  0.12139623936E+03  0.00000000000E+00 0.  1.
        -11    1    4    4    0    0 -0.31231089822E+02 -0.33014468219E+02 -0.15442748512E+02  0.47998068345E+02  0.00000000000E+00 0.  1.
         11    1    4    4    0    0  0.75852856168E+01 -0.29750195271E+02 -0.14829724549E+03  0.15144201430E+03  0.00000000000E+00 0. -1.
         -1    1    1    2    0  502  0.33195265622E+02  0.84920715920E+02 -0.96717678026E+02  0.13292013728E+03  0.00000000000E+00 0.  1.
<scales pt_clust_5="13000.00000" pt_clust_6="13000.00000" pt_clust_7="13000.00000" pt_clust_8="13000.00000" pt_clust_9="81.83851"></scales>
<clustering>
<clus scale="   81.141">  5  6 -1 -1</clus>
<clus scale="   84.652">  2  5  1 -1</clus>
<clus scale="   81.839">  1  9  2 -1</clus>
<clus scale="   92.016">  7  8 -1 -1</clus>
<clus scale="   81.839">  1  5  2 -1</clus>
</clustering>
</event>
<event>
 9    1  0.3197504E-005  0.1334296E+03  0.7546771E-02  0.1243102E+00
         21   -1    0    0  501  502  0.00000000000E+00  0.00000000000E+00  0.11570282031E+03  0.11570282031E+03  0.00000000000E+00 0. -1.
          1   -1    0    0  502    0 -0.00000000000E+00 -0.00000000000E+00 -0.39482541463E+03  0.39482541463E+03  0.00000000000E+00 0. -1.
        -24    2    1    2    0    0 -0.32906675907E+02  0.27557647449E+01 -0.26496036173E+03  0.27896642612E+03  0.80794987818E+02 0.  0.
         23    2    1    2    0    0 -0.76285692178E+02 -0.62108003710E+01 -0.18827623169E+02  0.12221522044E+03  0.93402354584E+02 0.  0.
         11    1    3    3    0    0 -0.37831586734E+02  0.34139856410E+02 -0.20347530003E+03  0.20975928221E+03  0.00000000000E+00 0. -1.
        -12    1    3    3    0    0  0.49249108270E+01 -0.31384091666E+02 -0.61485061702E+02  0.69207143914E+02  0.00000000000E+00 0.  1.
        -13    1    4    4    0    0 -0.93022936980E+02 -0.24210676551E+02 -0.16478077701E+02  0.97524103217E+02  0.00000000000E+00 0. -1.
         13    1    4    4    0    0  0.16737244802E+02  0.17999876180E+02 -0.23495454688E+01  0.24691117228E+02  0.00000000000E+00 0.  1.
          2    1    1    2  501    0  0.10919236809E+03  0.34550356261E+01  0.46653905899E+01  0.10934658837E+03  0.00000000000E+00 0. -1.
<scales pt_clust_5="13000.00000" pt_clust_6="13000.00000" pt_clust_7="13000.00000" pt_clust_8="13000.00000" pt_clust_9="95.28631"></scales>
<clustering>
<clus scale="   80.795">  5  6 -1 -1</clus>
<clus scale="   87.283">  2  5  1 -1</clus>
<clus scale="   93.402">  7  8 -1 -1</clus>
<clus scale="   95.286">  1  9  2 -1</clus>
<clus scale="   95.286">  1  5  2 -1</clus>
</clustering>
</event>
<event>
 9    1  0.3197504E-005  0.9221104E+02  0.7546771E-02  0.1304662E+00
         -4   -1    0    0    0  501 -0.00000000000E+00  0.00000000000E+00  0.25832838906E+03  0.25832838906E+03  0.00000000000E+00 0.  1.
         21   -1    0    0  501  502  0.00000000000E+00 -0.00000000000E+00 -0.58757558692E+02  0.58757558692E+02  0.00000000000E+00 0.  1.
        -24    2    1    2    0    0  0.10613509534E+01  0.70066822864E+01  0.10517903021E+03  0.13199860973E+03  0.79440446315E+02 0.  0.
         23    2    1    2    0    0  0.39191480366E+02  0.15271484963E+01  0.10320694769E+03  0.14300618401E+03  0.90888889856E+02 0.  0.
         13    1    3    3    0    0 -0.22547452614E+02  0.17159802021E+02  0.10228465525E+03  0.10613669076E+03  0.00000000000E+00 0. -1.
        -14    1    3    3    0    0  0.23608803568E+02 -0.10153119735E+02  0.28943749580E+01  0.25861918967E+02  0.00000000000E+00 0.  1.
        -13    1    4    4    0    0  0.53237452612E+02  0.28796618273E+02  0.39432923583E+02  0.72238681099E+02  0.00000000000E+00 0.  1.
         13    1    4    4    0    0 -0.14045972246E+02 -0.27269469776E+02  0.63774024106E+02  0.70767502916E+02  0.00000000000E+00 0. -1.
         -3    1    1    2    0  502 -0.40252831320E+02 -0.85338307827E+01 -0.88151475310E+01  0.42081154013E+02  0.00000000000E+00 0.  1.
<scales pt_clust_5="13000.00000" pt_clust_6="13000.00000" pt_clust_7="13000.00000" pt_clust_8="13000.00000" pt_clust_9="41.14750"></scales>
<clustering>
<clus scale="   41.147">  2  9  1 -1</clus>
<clus scale="   79.440">  5  6 -1 -1</clus>
<clus scale="   80.950">  1  5  2 -1</clus>
<clus scale="   90.889">  7  8 -1 -1</clus>
<clus scale="   41.147">  2  5  1 -1</clus>
</clustering>
</event>
<event>
 9    1  0.3197504E-005  0.1257282E+03  0.7546771E-02  0.1234271E+00
          1   -1    0    0  502    0 -0.00000000000E+00  0.00000000000E+00  0.53433735067E+03  0.53433735067E+03  0.00000000000E+00 0. -1.
         21   -1    0    0  501  502  0.00000000000E+00 -0.00000000000E+00 -0.99451088647E+02  0.99451088647E+02  0.00000000000E+00 0.  1.
         23    2    1    2    0    0 -0.60068728751E+02 -0.60044224271E+02  0.36707909579E+03  0.38789107693E+03  0.92189283283E+02 0.  0.
        -24    2    1    2    0    0  0.11241060318E+03  0.15324055783E+01  0.81773359114E+02  0.16615804153E+03  0.91011650514E+02 0.  0.
         11    1    4    4    0    0  0.11439205692E+02 -0.31909440255E+02  0.38581866048E+02  0.51357844503E+02  0.00000000000E+00 0. -1.
        -12    1    4    4    0    0  0.10097139749E+03  0.33441845833E+02  0.43191493066E+02  0.11480019703E+03  0.00000000000E+00 0.  1.
        -13    1    3    3    0    0 -0.16797319898E+02  0.18641648952E+02  0.30279599755E+02  0.39325757370E+02  0.00000000000E+00 0.  1.
         13    1    3    3    0    0 -0.43271408853E+02 -0.78685873223E+02  0.33679949604E+03  0.34856531956E+03  0.00000000000E+00 0. -1.
          2    1    1    2  501    0 -0.52341874434E+02  0.58511818693E+02 -0.13966192889E+02  0.79739320851E+02  0.00000000000E+00 0. -1.
<scales pt_clust_5="13000.00000" pt_clust_6="13000.00000" pt_clust_7="13000.00000" pt_clust_8="13000.00000" pt_clust_9="78.50672"></scales>
<clustering>
<clus scale="   78.507">  2  9  1 -1</clus>
<clus scale="   91.012">  5  6 -1 -1</clus>
<clus scale="   92.189">  7  8 -1 -1</clus>
<clus scale="  124.867">  2  5  1 -1</clus>
<clus scale="   78.507">  2  5  1 -1</clus>
</clustering>
</event>
<event>
 9    1  0.3197504E-005  0.1428771E+03  0.7546771E-02  0.1210903E+00
          1   -1    0    0  502    0 -0.00000000000E+00  0.00000000000E+00  0.80901167659E+03  0.80901167659E+03  0.00000000000E+00 0. -1.
         21   -1    0    0  501  502  0.00000000000E+00 -0.00000000000E+00 -0.76690326347E+02  0.76690326347E+02  0.00000000000E+00 0.  1.
         23    2    1    2    0    0 -0.10955643717E+03  0.19050016359E+02  0.63841095006E+03  0.65414412737E+03  0.89277556942E+02 0.  0.
        -24    2    1    2    0    0  0.11609621969E+03  0.13528398761E+02  0.12205193711E+03  0.18801401276E+03  0.82409003402E+02 0.  0.
         13    1    4    4    0    0  0.87838008645E+02 -0.80093203793E+01  0.12429804168E+03  0.15241282144E+03  0.00000000000E+00 0. -1.
        -14    1    4    4    0    0  0.28258211050E+02  0.21537719140E+02 -0.22461045673E+01  0.35601191317E+02  0.00000000000E+00 0.  1.
        -13    1    3    3    0    0 -0.10588293633E+03  0.45503722787E+02  0.54094316701E+03  0.55308344301E+03  0.00000000000E+00 0. -1.
         13    1    3    3    0    0 -0.36735008401E+01 -0.26453706428E+02  0.97467783044E+02  0.10106068436E+03  0.00000000000E+00 0.  1.
          2    1    1    2  501    0 -0.65397825235E+01 -0.32578415120E+02 -0.28141536926E+02  0.43543862802E+02  0.00000000000E+00 0. -1.
<scales pt_clust_5="13000.00000" pt_clust_6="13000.00000" pt_clust_7="13000.00000" pt_clust_8="13000.00000" pt_clust_9="33.22833"></scales>
<clustering>
<clus scale="   33.228">  2  9  1 -1</clus>
<clus scale="   82.409">  5  6 -1 -1</clus>
<clus scale="   89.278">  7  8 -1 -1</clus>
<clus scale="  138.689">  2  5  1 -1</clus>
<clus scale="   33.228">  2  5  1 -1</clus>
</clustering>
</event>
<event>
 9    1  0.3197504E-005  0.2728727E+03  0.7546771E-02  0.1099647E+00
          3   -1    0    0  502    0 -0.00000000000E+00  0.00000000000E+00  0.32851764630E+03  0.32851764630E+03  0.00000000000E+00 0. -1.
         21   -1    0    0  501  502  0.00000000000E+00 -0.00000000000E+00 -0.20775564301E+03  0.20775564301E+03  0.00000000000E+00 0. -1.
        -24    2    1    2    0    0  0.51405845435E+01  0.10592129734E+03  0.71026378947E+02  0.15110564687E+03  0.80885246918E+02 0.  0.
         23    2    1    2    0    0  0.18250473530E+02  0.10342649483E+03  0.96904316749E+02  0.16930072690E+03  0.90786397158E+02 0.  0.
         13    1    3    3    0    0  0.15444005322E+02  0.66456199835E+02 -0.11102545610E+01  0.68236181473E+02  0.00000000000E+00 0. -1.
        -14    1    3    3    0    0 -0.10303420779E+02  0.39465097508E+02  0.72136633507E+02  0.82869465395E+02  0.00000000000E+00 0.  1.
        -13    1    4    4    0    0 -0.22486363093E+02  0.76774099677E+02  0.89529503221E+02  0.12006427801E+03  0.00000000000E+00 0. -1.
         13    1    4    4    0    0  0.40736836623E+02  0.26652395148E+02  0.73748135280E+01  0.49236448895E+02  0.00000000000E+00 0.  1.
          4    1    1    2  501    0 -0.23391058073E+02 -0.20934779217E+03 -0.47168692402E+02  0.21586691554E+03  0.00000000000E+00 0. -1.
<scales pt_clust_5="13000.00000" pt_clust_6="13000.00000" pt_clust_7="13000.00000" pt_clust_8="13000.00000" pt_clust_9="210.65052"></scales>
<clustering>
<clus scale="   80.885">  5  6 -1 -1</clus>
<clus scale="   90.786">  7  8 -1 -1</clus>
<clus scale="   94.033">  5  7 -1 -1</clus>
<clus scale="  210.651">  2  9  1 -1</clus>
<clus scale="  210.651">  2  5  1 -1</clus>
</clustering>
</event>
<event>
 9    1  0.3197504E-005  0.3065302E+03  0.7546771E-02  0.1082275E+00
          3   -1    0    0  502    0 -0.00000000000E+00  0.00000000000E+00  0.19041636124E+03  0.19041636124E+03  0.00000000000E+00 0. -1.
         21   -1    0    0  501  502  0.00000000000E+00 -0.00000000000E+00 -0.76911474653E+03  0.76911474653E+03  0.00000000000E+00 0.  1.
        -24    2    1    2    0    0 -0.12947504579E+03  0.21070236161E+03 -0.29707858381E+03  0.39494566433E+03  0.81037769882E+02 0.  0.
         23    2    1    2    0    0  0.24403135618E+03 -0.24368064063E+03 -0.26582043988E+03  0.44433431054E+03  0.88548946057E+02 0.  0.
         13    1    3    3    0    0 -0.70193003304E+02  0.49878838159E+02 -0.12732565245E+03  0.15371004515E+03  0.00000000000E+00 0. -1.
        -14    1    3    3    0    0 -0.59282042485E+02  0.16082352345E+03 -0.16975293135E+03  0.24123561918E+03  0.00000000000E+00 0.  1.
        -11    1    4    4    0    0  0.33659043665E+02 -0.71467659950E+02 -0.30212295368E+02  0.84577422701E+02  0.00000000000E+00 0.  1.
         11    1    4    4    0    0  0.21037231252E+03 -0.17221298068E+03 -0.23560814451E+03  0.35975688784E+03  0.00000000000E+00 0. -1.
          4    1    1    2  501    0 -0.11455631039E+03  0.32978279019E+02 -0.15799361613E+02  0.12025113291E+03  0.00000000000E+00 0. -1.
<scales pt_clust_5="13000.00000" pt_clust_6="13000.00000" pt_clust_7="13000.00000" pt_clust_8="13000.00000" pt_clust_9="119.20876"></scales>
<clustering>
<clus scale="   81.038">  5  6 -1 -1</clus>
<clus scale="   88.549">  7  8 -1 -1</clus>
<clus scale="  119.209">  2  9  1 -1</clus>
<clus scale="  304.445">  1  5  2 -1</clus>
<clus scale="  119.209">  2  5  1 -1</clus>
</clustering>
</event>
<event>
 9    1  0.3197504E-005  0.9674824E+02  0.7546771E-02  0.1294789E+00
         21   -1    0    0  501  502  0.00000000000E+00  0.00000000000E+00  0.53469774433E+03  0.53469774433E+03  0.00000000000E+00 0. -1.
         -2   -1    0    0    0  501 -0.00000000000E+00 -0.00000000000E+00 -0.28176789426E+02  0.28176789426E+02  0.00000000000E+00 0.  1.
         23    2    1    2    0    0 -0.34726126629E+01 -0.38845215215E+02  0.15938995797E+03  0.18866511788E+03  0.93104018282E+02 0.  0.
        -24    2    1    2    0    0  0.34346248916E+02 -0.37965972326E+01  0.20952076755E+03  0.22687279173E+03  0.79863838034E+02 0.  0.
         13    1    4    4    0    0  0.46927233826E+02 -0.31377465066E+02  0.12788401506E+03  0.13978924099E+03  0.00000000000E+00 0. -1.
        -14    1    4    4    0    0 -0.12580984910E+02  0.27580867833E+02  0.81636752498E+02  0.87083550744E+02  0.00000000000E+00 0.  1.
        -11    1    3    3    0    0 -0.30530758944E+02  0.19756586973E+02  0.59656566394E+02  0.69866700827E+02  0.00000000000E+00 0. -1.
         11    1    3    3    0    0  0.27058146281E+02 -0.58601802187E+02  0.99733391576E+02  0.11879841706E+03  0.00000000000E+00 0.  1.
         -1    1    1    2    0  502 -0.30873636253E+02  0.42641812447E+02  0.13761022938E+03  0.14733662414E+03  0.00000000000E+00 0.  1.
<scales pt_clust_5="13000.00000" pt_clust_6="13000.00000" pt_clust_7="13000.00000" pt_clust_8="13000.00000" pt_clust_9="52.64509"></scales>
<clustering>
<clus scale="   52.645">  1  9  2 -1</clus>
<clus scale="   79.864">  5  6 -1 -1</clus>
<clus scale="   84.084">  1  5  2 -1</clus>
<clus scale="   93.104">  7  8 -1 -1</clus>
<clus scale="   52.645">  1  5  2 -1</clus>
</clustering>
</event>
<event>
 9    1  0.3197504E-005  0.1678439E+03  0.7546771E-02  0.1211899E+00
          1   -1    0    0  502    0 -0.00000000000E+00  0.00000000000E+00  0.69209875914E+02  0.69209875914E+02  0.00000000000E+00 0. -1.
         21   -1    0    0  501  502  0.00000000000E+00 -0.00000000000E+00 -0.57229673901E+03  0.57229673901E+03  0.00000000000E+00 0. -1.
        -24    2    1    2    0    0 -0.11820133150E+02 -0.19033909059E+02 -0.74677304943E+02  0.11221092791E+03  0.80700602390E+02 0.  0.
         23    2    1    2    0    0 -0.12633643161E+03 -0.39392266964E+02 -0.23084311433E+03  0.28123651232E+03  0.91064744984E+02 0.  0.
         13    1    3    3    0    0  0.27642289761E+02 -0.31859960286E+02 -0.40075451582E+02  0.58182429239E+02  0.00000000000E+00 0. -1.
        -14    1    3    3    0    0 -0.39462422911E+02  0.12826051227E+02 -0.34601853360E+02  0.54028498666E+02  0.00000000000E+00 0.  1.
        -13    1    4    4    0    0 -0.26211124926E+02 -0.22776201551E+02 -0.14252977869E+03  0.14669872610E+03  0.00000000000E+00 0. -1.
         13    1    4    4    0    0 -0.10012530668E+03 -0.16616065413E+02 -0.88313335645E+02  0.13453778622E+03  0.00000000000E+00 0.  1.
          2    1    1    2  501    0  0.13815656476E+03  0.58426176022E+02 -0.19756644382E+03  0.24805917470E+03  0.00000000000E+00 0. -1.
<scales pt_clust_5="13000.00000" pt_clust_6="13000.00000" pt_clust_7="13000.00000" pt_clust_8="13000.00000" pt_clust_9="140.99224"></scales>
<clustering>
<clus scale="   80.701">  5  6 -1 -1</clus>
<clus scale="   83.753">  1  5  2 -1</clus>
<clus scale="   91.065">  7  8 -1 -1</clus>
<clus scale="  140.992">  2  9  1 -1</clus>
<clus scale="  140.992">  2  5  1 -1</clus>
</clustering>
</event>
<event>
 9    1  0.3197504E-005  0.8942837E+02  0.7546771E-02  0.1308143E+00
          1   -1    0    0  502    0 -0.00000000000E+00  0.00000000000E+00  0.23015293095E+03  0.23015293095E+03  0.00000000000E+00 0. -1.
         21   -1    0    0  501  502  0.00000000000E+00 -0.00000000000E+00 -0.75309841725E+02  0.75309841725E+02  0.00000000000E+00 0. -1.
        -24    2    1    2    0    0 -0.74505545822E+01 -0.14128479285E+02  0.89445609313E+02  0.12206845587E+03  0.81517275484E+02 0.  0.
         23    2    1    2    0    0 -0.29370689660E+02  0.26620443860E+02 -0.11715081821E+02  0.97033443818E+02  0.87789296811E+02 0.  0.
         11    1    3    3    0    0  0.31137956845E+02 -0.27471298238E+02  0.53073522002E+02  0.67387263790E+02  0.00000000000E+00 0. -1.
        -12    1    3    3    0    0 -0.38588511427E+02  0.13342818953E+02  0.36372087311E+02  0.54681192079E+02  0.00000000000E+00 0.  1.
        -13    1    4    4    0    0 -0.22833111358E+02 -0.83395763191E+01  0.32312510243E+02  0.40435106352E+02  0.00000000000E+00 0.  1.
         13    1    4    4    0    0 -0.65375783025E+01  0.34960020179E+02 -0.44027592064E+02  0.56598337466E+02  0.00000000000E+00 0. -1.
          2    1    1    2  501    0  0.36821244242E+02 -0.12491964575E+02  0.77112561736E+02  0.86360872993E+02  0.00000000000E+00 0. -1.
<scales pt_clust_5="13000.00000" pt_clust_6="13000.00000" pt_clust_7="13000.00000" pt_clust_8="13000.00000" pt_clust_9="38.88258"></scales>
<clustering>
<clus scale="   38.883">  2  9  1 -1</clus>
<clus scale="   81.517">  5  6 -1 -1</clus>
<clus scale="   83.280">  1  5  2 -1</clus>
<clus scale="   87.789">  7  8 -1 -1</clus>
<clus scale="   38.883">  2  5  1 -1</clus>
</clustering>
</event>
<event>
 9    1  0.3197504E-005  0.1249674E+03  0.7546771E-02  0.1255134E+00
         -2   -1    0    0    0  501 -0.00000000000E+00  0.00000000000E+00  0.38348780275E+03  0.38348780275E+03  0.00000000000E+00 0.  1.
         21   -1    0    0  501  502  0.00000000000E+00 -0.00000000000E+00 -0.73866425919E+02  0.73866425919E+02  0.00000000000E+00 0.  1.
        -24    2    1    2    0    0  0.55964103258E+01  0.10196838578E+02  0.12526362283E+02  0.84445079171E+02  0.82696833788E+02 0.  0.
         23    2    1    2    0    0 -0.80465893015E+02  0.27306204366E+02  0.24191988860E+03  0.27262848241E+03  0.92631896161E+02 0.  0.
         13    1    3    3    0    0 -0.26236857983E+02  0.63046970969E+01  0.35792326590E+02  0.44824240819E+02  0.00000000000E+00 0. -1.
        -14    1    3    3    0    0  0.31833268309E+02  0.38921414810E+01 -0.23265964308E+02  0.39620838351E+02  0.00000000000E+00 0.  1.
        -11    1    4    4    0    0 -0.90888049132E+02 -0.25873258890E+01  0.20318875705E+03  0.22260503751E+03  0.00000000000E+00 0.  1.
         11    1    4    4    0    0  0.10422156118E+02  0.29893530255E+02  0.38731131540E+02  0.50023444900E+02  0.00000000000E+00 0. -1.
         -1    1    1    2    0  502  0.74869482689E+02 -0.37503042944E+02  0.55175125954E+02  0.10028066709E+03  0.00000000000E+00 0.  1.
<scales pt_clust_5="13000.00000" pt_clust_6="13000.00000" pt_clust_7="13000.00000" pt_clust_8="13000.00000" pt_clust_9="83.88194"></scales>
<clustering>
<clus scale="   82.697">  5  6 -1 -1</clus>
<clus scale="   83.511">  1  5  2 -1</clus>
<clus scale="   83.882">  2  9  1 -1</clus>
<clus scale="   92.632">  7  8 -1 -1</clus>
<clus scale="   83.882">  2  5  1 -1</clus>
</clustering>
</event>
<event>
 9    1  0.3197504E-005  0.1458472E+03  0.7546771E-02  0.1226187E+00
         -2   -1    0    0    0  501 -0.00000000000E+00  0.00000000000E+00  0.13712621744E+03  0.13712621744E+03  0.00000000000E+00 0.  1.
         21   -1    0    0  501  502  0.00000000000E+00 -0.00000000000E+00 -0.46055209899E+03  0.46055209899E+03  0.00000000000E+00 0.  1.
        -24    2    1    2    0    0 -0.34005861277E+02  0.38136817906E+02 -0.17276303085E+03  0.19692805184E+03  0.79515893330E+02 0.  0.
         23    2    1    2    0    0 -0.47299651051E+02  0.49375677787E+02  0.81027187749E+02  0.14007940479E+03  0.91551187566E+02 0.  0.
         11    1    3    3    0    0 -0.19007455309E+02 -0.23946421089E+02 -0.59654396952E+02  0.67032540725E+02  0.00000000000E+00 0. -1.
        -12    1    3    3    0    0 -0.14998405968E+02  0.62083238995E+02 -0.11310863389E+03  0.12989551111E+03  0.00000000000E+00 0.  1.
        -11    1    4    4    0    0 -0.40718801236E+02  0.27008557409E+02  0.99158753990E+02  0.11054384397E+03  0.00000000000E+00 0.  1.
         11    1    4    4    0    0 -0.65808498150E+01  0.22367120378E+02 -0.18131566241E+02  0.29535560815E+02  0.00000000000E+00 0. -1.
         -1    1    1    2    0  502  0.81305512328E+02 -0.87512495693E+02 -0.23169003845E+03  0.26067085981E+03  0.00000000000E+00 0.  1.
<scales pt_clust_5="13000.00000" pt_clust_6="13000.00000" pt_clust_7="13000.00000" pt_clust_8="13000.00000" pt_clust_9="113.53316"></scales>
<clustering>
<clus scale="   79.516">  5  6 -1 -1</clus>
<clus scale="   91.551">  7  8 -1 -1</clus>
<clus scale="   94.518">  1  5  2 -1</clus>
<clus scale="  113.533">  2  9  1 -1</clus>
<clus scale="  113.533">  2  5  1 -1</clus>
</clustering>
</event>
<event>
 9    1  0.3197504E-005  0.1034042E+03  0.7546771E-02  0.1284557E+00
         21   -1    0    0  501  502  0.00000000000E+00  0.00000000000E+00  0.18840289142E+03  0.18840289142E+03  0.00000000000E+00 0.  1.
         -4   -1    0    0    0  501 -0.00000000000E+00 -0.00000000000E+00 -0.97891017831E+02  0.97891017831E+02  0.00000000000E+00 0.  1.
        -24    2    1    2    0    0 -0.20880040222E+02  0.19191977164E+02  0.30797025317E+02  0.90683720547E+02  0.80441110987E+02 0.  0.
         23    2    1    2    0    0  0.16652382203E+02  0.51962437565E+02  0.41069575730E+02  0.12193203716E+03  0.10101145917E+03 0.  0.
         11    1    3    3    0    0  0.22093739369E+02 -0.17163650694E+02  0.16968145717E+02  0.32720669210E+02  0.00000000000E+00 0. -1.
        -12    1    3    3    0    0 -0.42973779592E+02  0.36355627859E+02  0.13828879600E+02  0.57963051338E+02  0.00000000000E+00 0.  1.
        -11    1    4    4    0    0 -0.32147785652E+02  0.47912397013E+02  0.44469051370E+02  0.72846238336E+02  0.00000000000E+00 0. -1.
         11    1    4    4    0    0  0.48800167855E+02  0.40500405520E+01 -0.33994756406E+01  0.49085798820E+02  0.00000000000E+00 0.  1.
         -3    1    1    2    0  502  0.42276580191E+01 -0.71154414730E+02  0.18645272548E+02  0.73678151553E+02  0.00000000000E+00 0.  1.
<scales pt_clust_5="13000.00000" pt_clust_6="13000.00000" pt_clust_7="13000.00000" pt_clust_8="13000.00000" pt_clust_9="71.27993"></scales>
<clustering>
<clus scale="   71.280">  1  9  2 -1</clus>
<clus scale="   80.441">  5  6 -1 -1</clus>
<clus scale="   83.426">  2  5  1 -1</clus>
<clus scale="  101.011">  7  8 -1 -1</clus>
<clus scale="   71.280">  1  5  2 -1</clus>
</clustering>
</event>
<event>
 9    1  0.3197504E-005  0.2249341E+03  0.7546771E-02  0.1131084E+00
         21   -1    0    0  501  502  0.00000000000E+00  0.00000000000E+00  0.46691615063E+03  0.46691615063E+03  0.00000000000E+00 0.  1.
          3   -1    0    0  502    0 -0.00000000000E+00 -0.00000000000E+00 -0.17742456131E+03  0.17742456131E+03  0.00000000000E+00 0. -1.
        -24    2    1    2    0    0 -0.23103337536E+02  0.21234805353E+03  0.13734668362E+02  0.22838199480E+03  0.79650702386E+02 0.  0.
         23    2    1    2    0    0 -0.37095496631E+02 -0.18739570187E+03  0.27951847114E+03  0.35068491881E+03  0.91411769601E+02 0.  0.
         13    1    3    3    0    0 -0.49611588003E+01  0.16409932731E+03 -0.22025957105E+02  0.16564523871E+03  0.00000000000E+00 0. -1.
        -14    1    3    3    0    0 -0.18142178736E+02  0.48248726220E+02  0.35760625467E+02  0.62736756092E+02  0.00000000000E+00 0.  1.
        -11    1    4    4    0    0  0.98129221398E+01 -0.10479490925E+03  0.20316829656E+03  0.22881351178E+03  0.00000000000E+00 0.  1.
         11    1    4    4    0    0 -0.46908418771E+02 -0.82600792612E+02  0.76350174577E+02  0.12187140702E+03  0.00000000000E+00 0. -1.
          4    1    1    2  501    0  0.60198834167E+02 -0.24952351666E+02 -0.37615501895E+01  0.65273798331E+02  0.00000000000E+00 0. -1.
<scales pt_clust_5="13000.00000" pt_clust_6="13000.00000" pt_clust_7="13000.00000" pt_clust_8="13000.00000" pt_clust_9="65.16536"></scales>
<clustering>
<clus scale="   65.165">  1  9  2 -1</clus>
<clus scale="   79.651">  5  6 -1 -1</clus>
<clus scale="   91.412">  7  8 -1 -1</clus>
<clus scale="  220.417">  2  5  1 -1</clus>
<clus scale="   65.165">  1  5  2 -1</clus>
</clustering>
</event>
<event>
 9    1  0.3197504E-005  0.9341930E+02  0.7546771E-02  0.1306789E+00
         -2   -1    0    0    0  501 -0.00000000000E+00  0.00000000000E+00  0.34105875291E+02  0.34105875291E+02  0.00000000000E+00 0.  1.
         21   -1    0    0  501  502  0.00000000000E+00 -0.00000000000E+00 -0.35410464396E+03  0.35410464396E+03  0.00000000000E+00 0. -1.
         23    2    1    2    0    0 -0.28471282049E+01  0.10657498233E+02 -0.13533782413E+03  0.16419447218E+03  0.92313648208E+02 0.  0.
        -24    2    1    2    0    0 -0.30939441309E+02 -0.19186413862E+01 -0.16662158185E+03  0.18473095442E+03  0.73497236475E+02 0.  0.
         11    1    4    4    0    0  0.19999783688E+02  0.92424764199E+01 -0.85507375841E+02  0.88300204084E+02  0.00000000000E+00 0. -1.
        -12    1    4    4    0    0 -0.50939224998E+02 -0.11161117806E+02 -0.81114206012E+02  0.96430750339E+02  0.00000000000E+00 0.  1.
        -11    1    3    3    0    0 -0.52928685925E+01 -0.37112548368E+02 -0.28350057876E+02  0.47000866863E+02  0.00000000000E+00 0. -1.
         11    1    3    3    0    0  0.24457403876E+01  0.47770046601E+02 -0.10698776626E+03  0.11719360532E+03  0.00000000000E+00 0.  1.
         -1    1    1    2    0  502  0.33786569514E+02 -0.87388568467E+01 -0.18039362686E+02  0.39285092651E+02  0.00000000000E+00 0.  1.
<scales pt_clust_5="13000.00000" pt_clust_6="13000.00000" pt_clust_7="13000.00000" pt_clust_8="13000.00000" pt_clust_9="34.89844"></scales>
<clustering>
<clus scale="   34.898">  2  9  1 -1</clus>
<clus scale="   73.497">  5  6 -1 -1</clus>
<clus scale="   74.881">  2  5  1 -1</clus>
<clus scale="   92.314">  7  8 -1 -1</clus>
<clus scale="   34.898">  2  5  1 -1</clus>
</clustering>
</event>
<event>
 9    1  0.3197504E-005  0.1862593E+03  0.7546771E-02  0.1192463E+00
         21   -1    0    0  501  502  0.00000000000E+00  0.00000000000E+00  0.37216946471E+02  0.37216946471E+02  0.00000000000E+00 0.  1.
          1   -1    0    0  502    0 -0.00000000000E+00 -0.00000000000E+00 -0.14960166902E+04  0.14960166902E+04  0.00000000000E+00 0. -1.
        -24    2    1    2    0    0  0.24334027699E+02  0.40991060689E+02 -0.16218556727E+03  0.18712211202E+03  0.80237862731E+02 0.  0.
         23    2    1    2    0    0  0.72015668375E+02 -0.15633185853E+03 -0.52868063706E+03  0.56360996905E+03  0.92342161154E+02 0.  0.
         13    1    3    3    0    0 -0.29280465661E+02  0.15514576953E+02 -0.70487342610E+02  0.77887824694E+02  0.00000000000E+00 0. -1.
        -14    1    3    3    0    0  0.53614493360E+02  0.25476483736E+02 -0.91698224657E+02  0.10923428732E+03  0.00000000000E+00 0.  1.
        -13    1    4    4    0    0  0.46699376627E+02 -0.10255124155E+03 -0.19966287702E+03  0.22926590104E+03  0.00000000000E+00 0.  1.
         13    1    4    4    0    0  0.25316291747E+02 -0.53780616986E+02 -0.32901776004E+03  0.33434406801E+03  0.00000000000E+00 0. -1.
          2    1    1    2  501    0 -0.96349696073E+02  0.11534079784E+03 -0.76793353935E+03  0.78250155556E+03  0.00000000000E+00 0. -1.
<scales pt_clust_5="13000.00000" pt_clust_6="13000.00000" pt_clust_7="13000.00000" pt_clust_8="13000.00000" pt_clust_9="161.75749"></scales>
<clustering>
<clus scale="   80.238">  5  6 -1 -1</clus>
<clus scale="   92.342">  7  8 -1 -1</clus>
<clus scale="   93.330">  2  5  1 -1</clus>
<clus scale="  161.757">  1  9  2 -1</clus>
<clus scale="  161.757">  1  5  2 -1</clus>
</clustering>
</event>
<event>
 9    1  0.3197504E-005  0.9273138E+02  0.7546771E-02  0.1299371E+00
         21   -1    0    0  501  502  0.00000000000E+00  0.00000000000E+00  0.24609832300E+03  0.24609832300E+03  0.00000000000E+00 0. -1.
         -2   -1    0    0    0  501 -0.00000000000E+00 -0.00000000000E+00 -0.50898806541E+02  0.50898806541E+02  0.00000000000E+00 0.  1.
         23    2    1    2    0    0 -0.33354503857E+02 -0.23613089019E+01  0.39987925795E+02  0.10003657649E+03  0.85382572687E+02 0.  0.
        -24    2    1    2    0    0  0.40231557276E+02 -0.24424978983E+02  0.12882401925E+03  0.15873617592E+03  0.79914878525E+02 0.  0.
         13    1    4    4    0    0 -0.90735579470E+01 -0.20212185025E+02  0.97917569850E+02  0.10039279039E+03  0.00000000000E+00 0. -1.
        -14    1    4    4    0    0  0.49305115223E+02 -0.42127939576E+01  0.30906449404E+02  0.58343385528E+02  0.00000000000E+00 0.  1.
        -13    1    3    3    0    0 -0.57420025891E+02  0.15500434451E+02  0.36699466710E+02  0.69886863561E+02  0.00000000000E+00 0.  1.
         13    1    3    3    0    0  0.24065522035E+02 -0.17861743353E+02  0.32884590843E+01  0.30149712926E+02  0.00000000000E+00 0. -1.
         -1    1    1    2    0  502 -0.68770534195E+01  0.26786287885E+02  0.26387571408E+02  0.38224377133E+02  0.00000000000E+00 0.  1.
<scales pt_clust_5="13000.00000" pt_clust_6="13000.00000" pt_clust_7="13000.00000" pt_clust_8="13000.00000" pt_clust_9="27.65500"></scales>
<clustering>
<clus scale="   27.655">  1  9  2 -1</clus>
<clus scale="   79.915">  5  6 -1 -1</clus>
<clus scale="   85.383">  7  8 -1 -1</clus>
<clus scale="   87.723">  1  5  2 -1</clus>
<clus scale="   27.655">  1  5  2 -1</clus>
</clustering>
</event>
<event>
 9    1  0.3197504E-005  0.1310426E+03  0.7546771E-02  0.1228166E+00
         21   -1    0    0  501  502  0.00000000000E+00  0.00000000000E+00  0.12719464752E+03  0.12719464752E+03  0.00000000000E+00 0. -1.
          1   -1    0    0  502    0 -0.00000000000E+00 -0.00000000000E+00 -0.39808669072E+03  0.39808669072E+03  0.00000000000E+00 0. -1.
        -24    2    1    2    0    0  0.88166067977E+01  0.88240348288E+02 -0.59240948336E+02  0.13409757856E+03  0.81293166969E+02 0.  0.
         23    2    1    2    0    0  0.84104582831E+02 -0.10228935565E+03 -0.69017356909E+00  0.16023737542E+03  0.90215558570E+02 0.  0.
         13    1    3    3    0    0 -0.19370156892E+02  0.89279625716E+02 -0.51392622307E+02  0.10482011340E+03  0.00000000000E+00 0. -1.
        -14    1    3    3    0    0  0.28186763690E+02 -0.10392774289E+01 -0.78483260299E+01  0.29277465163E+02  0.00000000000E+00 0.  1.
        -11    1    4    4    0    0  0.21787646696E+02 -0.15753051678E+02 -0.38616885647E+02  0.47054479519E+02  0.00000000000E+00 0.  1.
         11    1    4    4    0    0  0.62316936136E+02 -0.86536303976E+02  0.37926712078E+02  0.11318289590E+03  0.00000000000E+00 0. -1.
          2    1    1    2  501    0 -0.92921189629E+02  0.14049007367E+02 -0.21096092130E+03  0.23094638426E+03  0.00000000000E+00 0. -1.
<scales pt_clust_5="13000.00000" pt_clust_6="13000.00000" pt_clust_7="13000.00000" pt_clust_8="13000.00000" pt_clust_9="93.97729"></scales>
<clustering>
<clus scale="   81.293">  5  6 -1 -1</clus>
<clus scale="   90.216">  7  8 -1 -1</clus>
<clus scale="   93.977">  1  9  2 -1</clus>
<clus scale="  125.068">  2  5  1 -1</clus>
<clus scale="   93.977">  1  5  2 -1</clus>
</clustering>
</event>
<event>
 9    1  0.5820234E-005  0.1007802E+03  0.7546771E-02  0.1287491E+00
          3   -1    0    0  502    0 -0.00000000000E+00  0.00000000000E+00  0.65512906991E+03  0.65512906991E+03  0.00000000000E+00 0. -1.
         21   -1    0    0  501  502  0.00000000000E+00 -0.00000000000E+00 -0.65151068881E+02  0.65151068881E+02  0.00000000000E+00 0.  1.
         23    2    1    2    0    0  0.19902980100E+02 -0.11457890148E+02  0.57337809939E+03  0.58211972822E+03  0.97844372677E+02 0.  0.
        -24    2    1    2    0    0 -0.14881459691E+02  0.34687015614E+02  0.45366568578E+02  0.10084648469E+03  0.81775552800E+02 0.  0.
         13    1    4    4    0    0 -0.14168287968E+02 -0.20533271720E+02  0.37534798402E+02  0.45069021761E+02  0.00000000000E+00 0. -1.
        -14    1    4    4    0    0 -0.71317172267E+00  0.55220287333E+02  0.78317701761E+01  0.55777462932E+02  0.00000000000E+00 0.  1.
        -11    1    3    3    0    0 -0.25797687623E+02  0.29461479463E+02  0.22241305855E+03  0.22583416055E+03  0.00000000000E+00 0.  1.
         11    1    3    3    0    0  0.45700667723E+02 -0.40919369611E+02  0.35096504084E+03  0.35628556767E+03  0.00000000000E+00 0. -1.
          4    1    1    2  501    0 -0.50215204092E+01 -0.23229125465E+02 -0.28766666940E+02  0.37313925871E+02  0.00000000000E+00 0. -1.
<scales pt_clust_5="13000.00000" pt_clust_6="13000.00000" pt_clust_7="13000.00000" pt_clust_8="13000.00000" pt_clust_9="23.76569"></scales>
<clustering>
<clus scale="   23.766">  2  9  1 -1</clus>
<clus scale="   81.776">  5  6 -1 -1</clus>
<clus scale="   85.266">  2  5  1 -1</clus>
<clus scale="   97.844">  7  8 -1 -1</clus>
<clus scale="   23.766">  2  5  1 -1</clus>
</clustering>
</event>
<event>
 9    1  0.3197504E-005  0.1166870E+03  0.7546771E-02  0.1252109E+00
         -2   -1    0    0    0  501 -0.00000000000E+00  0.00000000000E+00  0.10507202155E+04  0.10507202155E+04  0.00000000000E+00 0.  1.
         21   -1    0    0  501  502  0.00000000000E+00 -0.00000000000E+00 -0.73352494805E+03  0.73352494805E+03  0.00000000000E+00 0. -1.
        -24    2    1    2    0    0 -0.65072180990E+02  0.95498783553E+01  0.10318520725E+04  0.10375687657E+04  0.86629412780E+02 0.  0.
         23    2    1    2    0    0  0.12043553789E+03  0.16576667433E+02 -0.52055818687E+03  0.54315251409E+03  0.96199391648E+02 0.  0.
         13    1    3    3    0    0 -0.12082732500E+02 -0.17890606489E+02  0.57956682886E+02  0.61846934575E+02  0.00000000000E+00 0. -1.
        -14    1    3    3    0    0 -0.52989448491E+02  0.27440484845E+02  0.97389538961E+03  0.97572183114E+03  0.00000000000E+00 0.  1.
        -11    1    4    4    0    0  0.70806773620E+02 -0.32869502763E+02 -0.35318006099E+03  0.36170451874E+03  0.00000000000E+00 0. -1.
         11    1    4    4    0    0  0.49628764267E+02  0.49446170196E+02 -0.16737812589E+03  0.18144799535E+03  0.00000000000E+00 0.  1.
         -1    1    1    2    0  502 -0.55363356896E+02 -0.26126545788E+02 -0.19409861817E+03  0.20352388375E+03  0.00000000000E+00 0.  1.
<scales pt_clust_5="13000.00000" pt_clust_6="13000.00000" pt_clust_7="13000.00000" pt_clust_8="13000.00000" pt_clust_9="61.21844"></scales>
<clustering>
<clus scale="   61.218">  2  9  1 -1</clus>
<clus scale="   86.629">  5  6 -1 -1</clus>
<clus scale="   96.199">  7  8 -1 -1</clus>
<clus scale="  108.932">  1  5  2 -1</clus>
<clus scale="   61.218">  2  5  1 -1</clus>
</clustering>
</event>
<event>
 9    1  0.3197504E-005  0.1437686E+03  0.7546771E-02  0.1211632E+00
         -2   -1    0    0    0  501 -0.00000000000E+00  0.00000000000E+00  0.40096711676E+03  0.40096711676E+03  0.00000000000E+00 0.  1.
         21   -1    0    0  501  502  0.00000000000E+00 -0.00000000000E+00 -0.10130086488E+03  0.10130086488E+03  0.00000000000E+00 0.  1.
        -24    2    1    2    0    0 -0.18397490326E+02  0.12311540859E+03  0.25511168961E+03  0.29389948717E+03  0.76151578475E+02 0.  0.
         23    2    1    2    0    0  0.19200711270E+02 -0.57601436295E+02 -0.24581376971E+02  0.11311880247E+03  0.92222701119E+02 0.  0.
         13    1    3    3    0    0 -0.19724521719E+01  0.10898613978E+03  0.14350773124E+03  0.18021192568E+03  0.00000000000E+00 0. -1.
        -14    1    3    3    0    0 -0.16425038154E+02  0.14129268810E+02  0.11160395836E+03  0.11368756149E+03  0.00000000000E+00 0.  1.
        -13    1    4    4    0    0 -0.25328228286E+02 -0.60381214423E+02 -0.10369414379E+02  0.66294305621E+02  0.00000000000E+00 0. -1.
         13    1    4    4    0    0  0.44528939555E+02  0.27797781272E+01 -0.14211962592E+02  0.46824496848E+02  0.00000000000E+00 0.  1.
         -1    1    1    2    0  502 -0.80322094366E+00 -0.65513972290E+02  0.69135939244E+02  0.95249691990E+02  0.00000000000E+00 0.  1.
<scales pt_clust_5="13000.00000" pt_clust_6="13000.00000" pt_clust_7="13000.00000" pt_clust_8="13000.00000" pt_clust_9="65.51893"></scales>
<clustering>
<clus scale="   65.519">  2  9  1 -1</clus>
<clus scale="   76.152">  5  6 -1 -1</clus>
<clus scale="   92.223">  7  8 -1 -1</clus>
<clus scale="  134.028">  1  5  2 -1</clus>
<clus scale="   65.519">  2  5  1 -1</clus>
</clustering>
</event>
<event>
 9    1  0.3197504E-005  0.2368848E+03  0.7546771E-02  0.1147631E+00
         21   -1    0    0  501  502  0.00000000000E+00  0.00000000000E+00  0.22975549063E+03  0.22975549063E+03  0.00000000000E+00 0.  1.
         -2   -1    0    0    0  501 -0.00000000000E+00 -0.00000000000E+00 -0.48022690232E+03  0.48022690232E+03  0.00000000000E+00 0.  1.
        -24    2    1    2    0    0 -0.35385578247E+02 -0.80260852710E+02 -0.20060581247E+03  0.23718525461E+03  0.91215181770E+02 0.  0.
         23    2    1    2    0    0  0.99666350558E+02 -0.15615689941E+03 -0.89160594430E+02  0.22466518179E+03  0.90589589038E+02 0.  0.
         13    1    3    3    0    0  0.62386956138E+01 -0.67729578643E+02 -0.62397531148E+02  0.92302053279E+02  0.00000000000E+00 0. -1.
        -14    1    3    3    0    0 -0.41624273861E+02 -0.12531274067E+02 -0.13820828132E+03  0.14488320134E+03  0.00000000000E+00 0.  1.
        -13    1    4    4    0    0  0.79970240232E+02 -0.16563182577E+03 -0.84036792148E+02  0.20221603167E+03  0.00000000000E+00 0.  1.
         13    1    4    4    0    0  0.19696110326E+02  0.94749263527E+01 -0.51238022814E+01  0.22449150122E+02  0.00000000000E+00 0. -1.
         -1    1    1    2    0  502 -0.64280772311E+02  0.23641775212E+03  0.39294995203E+02  0.24813195654E+03  0.00000000000E+00 0.  1.
<scales pt_clust_5="13000.00000" pt_clust_6="13000.00000" pt_clust_7="13000.00000" pt_clust_8="13000.00000" pt_clust_9="218.87876"></scales>
<clustering>
<clus scale="   90.590">  7  8 -1 -1</clus>
<clus scale="   91.215">  5  6 -1 -1</clus>
<clus scale="  126.547">  2  5  1 -1</clus>
<clus scale="  218.879">  1  9  2 -1</clus>
<clus scale="  218.879">  1  5  2 -1</clus>
</clustering>
</event>
<event>
 9    1  0.3197504E-005  0.1163006E+03  0.7546771E-02  0.1254529E+00
          3   -1    0    0  502    0 -0.00000000000E+00  0.00000000000E+00  0.58667967156E+02  0.58667967156E+02  0.00000000000E+00 0. -1.
         21   -1    0    0  501  502  0.00000000000E+00 -0.00000000000E+00 -0.57540022315E+03  0.57540022315E+03  0.00000000000E+00 0. -1.
         23    2    1    2    0    0  0.68146944401E+02 -0.20341894021E+02 -0.48212615034E+02  0.12754034671E+03  0.94256485749E+02 0.  0.
        -24    2    1    2    0    0 -0.64462782464E+02 -0.41369467731E+02 -0.39645972435E+03  0.41158313969E+03  0.79708748972E+02 0.  0.
         13    1    4    4    0    0 -0.45527816793E+02 -0.36799336365E+02 -0.11127736071E+03  0.12573632834E+03  0.00000000000E+00 0. -1.
        -14    1    4    4    0    0 -0.18934965671E+02 -0.45701313658E+01 -0.28518236364E+03  0.28584681135E+03  0.00000000000E+00 0.  1.
        -11    1    3    3    0    0  0.33199556339E+02  0.36178569456E+02 -0.33606202970E+02  0.59501901710E+02  0.00000000000E+00 0. -1.
         11    1    3    3    0    0  0.34947388062E+02 -0.56520463478E+02 -0.14606412065E+02  0.68038444996E+02  0.00000000000E+00 0.  1.
          4    1    1    2  501    0 -0.36841619371E+01  0.61711361752E+02 -0.72059916607E+02  0.94944703906E+02  0.00000000000E+00 0. -1.
<scales pt_clust_5="13000.00000" pt_clust_6="13000.00000" pt_clust_7="13000.00000" pt_clust_8="13000.00000" pt_clust_9="61.82127"></scales>
<clustering>
<clus scale="   61.821">  2  9  1 -1</clus>
<clus scale="   79.709">  5  6 -1 -1</clus>
<clus scale="   94.256">  7  8 -1 -1</clus>
<clus scale="  104.857">  2  5  1 -1</clus>
<clus scale="   61.821">  2  5  1 -1</clus>
</clustering>
</event>
<event>
 9    1  0.3197504E-005  0.1798391E+03  0.7546771E-02  0.1169257E+00
         21   -1    0    0  501  502  0.00000000000E+00  0.00000000000E+00  0.67573297800E+02  0.67573297800E+02  0.00000000000E+00 0. -1.
          1   -1    0    0  502    0 -0.00000000000E+00 -0.00000000000E+00 -0.80946709159E+03  0.80946709159E+03  0.00000000000E+00 0. -1.
        -24    2    1    2    0    0 -0.80342104197E+02 -0.16362108419E+03 -0.55218916428E+03  0.58704506128E+03  0.80512843244E+02 0.  0.
         23    2    1    2    0    0  0.44596679175E+02  0.10060061710E+03 -0.15044022326E+03  0.20758775394E+03  0.91384171802E+02 0.  0.
         11    1    3    3    0    0 -0.60239882642E+02 -0.12861085579E+03 -0.50669234446E+03  0.52621927713E+03  0.00000000000E+00 0. -1.
        -12    1    3    3    0    0 -0.20102221555E+02 -0.35010228397E+02 -0.45496819822E+02  0.60825784152E+02  0.00000000000E+00 0.  1.
        -11    1    4    4    0    0 -0.15071345437E+02  0.49379941337E+02 -0.20182136431E+02  0.55433227316E+02  0.00000000000E+00 0. -1.
         11    1    4    4    0    0  0.59668024611E+02  0.51220675758E+02 -0.13025808683E+03  0.15215452662E+03  0.00000000000E+00 0.  1.
          2    1    1    2  501    0  0.35745425023E+02  0.63020467095E+02 -0.39264406244E+02  0.82407574170E+02  0.00000000000E+00 0. -1.
<scales pt_clust_5="13000.00000" pt_clust_6="13000.00000" pt_clust_7="13000.00000" pt_clust_8="13000.00000" pt_clust_9="72.45215"></scales>
<clustering>
<clus scale="   72.452">  1  9  2 -1</clus>
<clus scale="   80.513">  5  6 -1 -1</clus>
<clus scale="   91.384">  7  8 -1 -1</clus>
<clus scale="  174.566">  2  5  1 -1</clus>
<clus scale="   72.452">  1  5  2 -1</clus>
</clustering>
</event>
<event>
 9    1  0.3197504E-005  0.9652051E+02  0.7546771E-02  0.1294098E+00
         -2   -1    0    0    0  501 -0.00000000000E+00  0.00000000000E+00  0.48131641630E+03  0.48131641630E+03  0.00000000000E+00 0.  1.
         21   -1    0    0  501  502  0.00000000000E+00 -0.00000000000E+00 -0.30077854333E+02  0.30077854333E+02  0.00000000000E+00 0.  1.
         23    2    1    2    0    0  0.47847479295E+02 -0.11094946071E+02  0.17086925695E+03  0.19868436310E+03  0.88694385781E+02 0.  0.
        -24    2    1    2    0    0 -0.27707143253E+02 -0.16979225871E+02  0.10578004669E+03  0.13473462444E+03  0.76863651011E+02 0.  0.
         13    1    4    4    0    0  0.20610990845E+02 -0.98780283021E+01  0.71508100805E+02  0.75071944610E+02  0.00000000000E+00 0. -1.
        -14    1    4    4    0    0 -0.48318134098E+02 -0.71011975685E+01  0.34271945881E+02  0.59662679827E+02  0.00000000000E+00 0.  1.
        -13    1    3    3    0    0 -0.12755668416E+02  0.26179135761E+02  0.63789439402E+02  0.70122370219E+02  0.00000000000E+00 0. -1.
         13    1    3    3    0    0  0.60603147711E+02 -0.37274081832E+02  0.10707981754E+03  0.12856199288E+03  0.00000000000E+00 0.  1.
         -1    1    1    2    0  502 -0.20140336042E+02  0.28074171942E+02  0.17458925833E+03  0.17797528309E+03  0.00000000000E+00 0.  1.
<scales pt_clust_5="13000.00000" pt_clust_6="13000.00000" pt_clust_7="13000.00000" pt_clust_8="13000.00000" pt_clust_9="34.55132"></scales>
<clustering>
<clus scale="   34.551">  2  9  1 -1</clus>
<clus scale="   76.864">  5  6 -1 -1</clus>
<clus scale="   85.776">  2  5  1 -1</clus>
<clus scale="   88.694">  7  8 -1 -1</clus>
<clus scale="   34.551">  2  5  1 -1</clus>
</clustering>
</event>
<event>
 9    1  0.3197504E-005  0.9300915E+02  0.7546771E-02  0.1302108E+00
         21   -1    0    0  501  502  0.00000000000E+00  0.00000000000E+00  0.46831894028E+03  0.46831894028E+03  0.00000000000E+00 0. -1.
         -2   -1    0    0    0  501 -0.00000000000E+00 -0.00000000000E+00 -0.38325514516E+02  0.38325514516E+02  0.00000000000E+00 0.  1.
         23    2    1    2    0    0  0.12952761066E+02  0.14979696167E+02  0.17301290389E+03  0.19638078844E+03  0.90773255088E+02 0.  0.
        -24    2    1    2    0    0  0.27275147491E+01  0.55530399570E+02  0.17981348234E+03  0.20456458101E+03  0.80141841522E+02 0.  0.
         11    1    4    4    0    0  0.24844026046E+02  0.57150885436E+02  0.75385989681E+02  0.97808469860E+02  0.00000000000E+00 0. -1.
        -12    1    4    4    0    0 -0.22116511297E+02 -0.16204858656E+01  0.10442749266E+03  0.10675611115E+03  0.00000000000E+00 0.  1.
        -13    1    3    3    0    0 -0.13961912477E+02  0.41366848673E+02  0.44041790601E+02  0.62014760247E+02  0.00000000000E+00 0.  1.
         13    1    3    3    0    0  0.26914673543E+02 -0.26387152506E+02  0.12897111329E+03  0.13436602820E+03  0.00000000000E+00 0. -1.
         -1    1    1    2    0  502 -0.15680275815E+02 -0.70510095738E+02  0.77167039530E+02  0.10569908533E+03  0.00000000000E+00 0.  1.
<scales pt_clust_5="13000.00000" pt_clust_6="13000.00000" pt_clust_7="13000.00000" pt_clust_8="13000.00000" pt_clust_9="72.23261"></scales>
<clustering>
<clus scale="   72.233">  1  9  2 -1</clus>
<clus scale="   80.142">  5  6 -1 -1</clus>
<clus scale="   82.666">  1  5  2 -1</clus>
<clus scale="   90.773">  7  8 -1 -1</clus>
<clus scale="   72.233">  1  5  2 -1</clus>
</clustering>
</event>
<event>
 9    1  0.3197504E-005  0.2930505E+03  0.7546771E-02  0.1125010E+00
         21   -1    0    0  501  502  0.00000000000E+00  0.00000000000E+00  0.28887064298E+03  0.28887064298E+03  0.00000000000E+00 0. -1.
          1   -1    0    0  502    0 -0.00000000000E+00 -0.00000000000E+00 -0.45834848163E+03  0.45834848163E+03  0.00000000000E+00 0. -1.
        -24    2    1    2    0    0 -0.23423814482E+02 -0.82984015561E+02 -0.36412872929E+02  0.12136302246E+03  0.77253245773E+02 0.  0.
         23    2    1    2    0    0  0.13164606557E+03 -0.21890780519E+03  0.12869886602E+02  0.27351009580E+03  0.96906267954E+02 0.  0.
         11    1    3    3    0    0 -0.24203457683E+02 -0.64342451534E+02 -0.60029850498E+02  0.91265225491E+02  0.00000000000E+00 0. -1.
        -12    1    3    3    0    0  0.77964320098E+00 -0.18641564028E+02  0.23616977569E+02  0.30097796970E+02  0.00000000000E+00 0.  1.
        -11    1    4    4    0    0  0.84402881681E+02 -0.17906017938E+03  0.46223150280E+02  0.20328053005E+03  0.00000000000E+00 0. -1.
         11    1    4    4    0    0  0.47243183894E+02 -0.39847625804E+02 -0.33353263679E+02  0.70229565744E+02  0.00000000000E+00 0.  1.
          2    1    1    2  501    0 -0.10822225109E+03  0.30189182075E+03 -0.14593485232E+03  0.35234600635E+03  0.00000000000E+00 0. -1.
<scales pt_clust_5="13000.00000" pt_clust_6="13000.00000" pt_clust_7="13000.00000" pt_clust_8="13000.00000" pt_clust_9="276.56437"></scales>
<clustering>
<clus scale="   77.253">  5  6 -1 -1</clus>
<clus scale="   96.906">  7  8 -1 -1</clus>
<clus scale="  115.772">  2  5  1 -1</clus>
<clus scale="  276.564">  1  9  2 -1</clus>
<clus scale="  276.564">  1  5  2 -1</clus>
</clustering>
</event>
<event>
 9    1  0.3197504E-005  0.2323055E+03  0.7546771E-02  0.1148852E+00
         21   -1    0    0  501  502  0.00000000000E+00  0.00000000000E+00  0.72547091349E+02  0.72547091349E+02  0.00000000000E+00 0. -1.
          1   -1    0    0  502    0 -0.00000000000E+00 -0.00000000000E+00 -0.13454876146E+04  0.13454876146E+04  0.00000000000E+00 0. -1.
        -24    2    1    2    0    0  0.71056531941E+02  0.74771509565E+02 -0.44271975623E+03  0.46150744249E+03  0.79677647693E+02 0.  0.
         23    2    1    2    0    0 -0.98625346485E+02  0.15831470534E+03 -0.56742931451E+03  0.60418003325E+03  0.90922938347E+02 0.  0.
         13    1    3    3    0    0  0.78510512602E+02  0.86199476805E+02 -0.40163538961E+03  0.41821673398E+03  0.00000000000E+00 0. -1.
        -14    1    3    3    0    0 -0.74539806612E+01 -0.11427967240E+02 -0.41084366623E+02  0.43290708515E+02  0.00000000000E+00 0.  1.
        -11    1    4    4    0    0 -0.90032259817E+02  0.13942745211E+03 -0.55651119782E+03  0.58073275739E+03  0.00000000000E+00 0. -1.
         11    1    4    4    0    0 -0.85930866680E+01  0.18887253236E+02 -0.10918116694E+02  0.23447275864E+02  0.00000000000E+00 0.  1.
          2    1    1    2  501    0  0.27568814544E+02 -0.23308621491E+03 -0.26279145246E+03  0.35234723016E+03  0.00000000000E+00 0. -1.
<scales pt_clust_5="13000.00000" pt_clust_6="13000.00000" pt_clust_7="13000.00000" pt_clust_8="13000.00000" pt_clust_9="213.77294"></scales>
<clustering>
<clus scale="   79.678">  5  6 -1 -1</clus>
<clus scale="   90.923">  7  8 -1 -1</clus>
<clus scale="  130.339">  2  5  1 -1</clus>
<clus scale="  213.773">  1  9  2 -1</clus>
<clus scale="  213.773">  1  5  2 -1</clus>
</clustering>
</event>
<event>
 9    1  0.3197504E-005  0.2081627E+03  0.7546771E-02  0.1179031E+00
          1   -1    0    0  502    0 -0.00000000000E+00  0.00000000000E+00  0.56678341999E+03  0.56678341999E+03  0.00000000000E+00 0. -1.
         21   -1    0    0  501  502  0.00000000000E+00 -0.00000000000E+00 -0.11368004101E+03  0.11368004101E+03  0.00000000000E+00 0. -1.
        -24    2    1    2    0    0  0.30175273202E+02  0.29881561800E+02  0.14820688206E+03  0.17347549479E+03  0.79529947530E+02 0.  0.
         23    2    1    2    0    0  0.13025417546E+03  0.10814973903E+03  0.12279558291E+03  0.22779091950E+03  0.90263123948E+02 0.  0.
         11    1    3    3    0    0 -0.21478039796E+02 -0.10713720363E+02  0.32253076069E+02  0.40203866896E+02  0.00000000000E+00 0. -1.
        -12    1    3    3    0    0  0.51653312998E+02  0.40595282163E+02  0.11595380599E+03  0.13327162789E+03  0.00000000000E+00 0.  1.
        -13    1    4    4    0    0  0.10889329609E+03  0.34217407050E+02  0.63315021044E+02  0.13052728744E+03  0.00000000000E+00 0. -1.
         13    1    4    4    0    0  0.21360879376E+02  0.73932331985E+02  0.59480561865E+02  0.97263632053E+02  0.00000000000E+00 0.  1.
          2    1    1    2  501    0 -0.16042944866E+03 -0.13803130083E+03  0.18210091402E+03  0.27919704672E+03  0.00000000000E+00 0. -1.
<scales pt_clust_5="13000.00000" pt_clust_6="13000.00000" pt_clust_7="13000.00000" pt_clust_8="13000.00000" pt_clust_9="187.57484"></scales>
<clustering>
<clus scale="   79.530">  5  6 -1 -1</clus>
<clus scale="   90.158">  1  5  2 -1</clus>
<clus scale="   90.263">  7  8 -1 -1</clus>
<clus scale="  187.575">  2  9  1 -1</clus>
<clus scale="  187.575">  2  5  1 -1</clus>
</clustering>
</event>
<event>
 9    1  0.3197504E-005  0.1253930E+03  0.7546771E-02  0.1238112E+00
         21   -1    0    0  501  502  0.00000000000E+00  0.00000000000E+00  0.22512974824E+03  0.22512974824E+03  0.00000000000E+00 0. -1.
          1   -1    0    0  502    0 -0.00000000000E+00 -0.00000000000E+00 -0.35286886177E+03  0.35286886177E+03  0.00000000000E+00 0. -1.
         23    2    1    2    0    0  0.43736271256E+02  0.86924828062E+02 -0.28535233571E+03  0.31551355285E+03  0.93027197015E+02 0.  0.
        -24    2    1    2    0    0 -0.37104033371E+02 -0.29583449931E+02 -0.13024690438E+01  0.93410466683E+02  0.80448300529E+02 0.  0.
         13    1    4    4    0    0 -0.24141577653E+01  0.25781785514E+02  0.86935549674E+01  0.27314950485E+02  0.00000000000E+00 0. -1.
        -14    1    4    4    0    0 -0.34689875606E+02 -0.55365235445E+02 -0.99960240112E+01  0.66095516198E+02  0.00000000000E+00 0.  1.
        -13    1    3    3    0    0 -0.12894973306E+02  0.53029463048E+02 -0.20173841704E+03  0.20898993564E+03  0.00000000000E+00 0. -1.
         13    1    3    3    0    0  0.56631244562E+02  0.33895365014E+02 -0.83613918662E+02  0.10652361721E+03  0.00000000000E+00 0.  1.
          2    1    1    2  501    0 -0.66322378848E+01 -0.57341378131E+02  0.15891569122E+03  0.16907459047E+03  0.00000000000E+00 0. -1.
<scales pt_clust_5="13000.00000" pt_clust_6="13000.00000" pt_clust_7="13000.00000" pt_clust_8="13000.00000" pt_clust_9="57.72365"></scales>
<clustering>
<clus scale="   57.724">  1  9  2 -1</clus>
<clus scale="   80.448">  5  6 -1 -1</clus>
<clus scale="   93.027">  7  8 -1 -1</clus>
<clus scale="  116.367">  1  5  2 -1</clus>
<clus scale="   57.724">  1  5  2 -1</clus>
</clustering>
</event>
<event>
 9    1  0.3197504E-005  0.9374283E+02  0.7546771E-02  0.1302967E+00
         -4   -1    0    0    0  501 -0.00000000000E+00  0.00000000000E+00  0.59501636614E+02  0.59501636614E+02  0.00000000000E+00 0.  1.
         21   -1    0    0  501  502  0.00000000000E+00 -0.00000000000E+00 -0.30379296713E+03  0.30379296713E+03  0.00000000000E+00 0.  1.
        -24    2    1    2    0    0 -0.22991019877E+01 -0.30625753009E+02 -0.18359759000E+02  0.84973441080E+02  0.77072578270E+02 0.  0.
         23    2    1    2    0    0 -0.30184119488E+02 -0.21557512967E+02 -0.16054532127E+03  0.18857922906E+03  0.91714328307E+02 0.  0.
         13    1    3    3    0    0  0.47539288578E+01 -0.55785051474E+02 -0.67905778530E+01  0.56397550967E+02  0.00000000000E+00 0. -1.
        -14    1    3    3    0    0 -0.70530308456E+01  0.25159298465E+02 -0.11569181147E+02  0.28575890113E+02  0.00000000000E+00 0.  1.
        -11    1    4    4    0    0 -0.55637172550E+02 -0.11517005224E+02 -0.53319240523E+02  0.77917121281E+02  0.00000000000E+00 0.  1.
         11    1    4    4    0    0  0.25453053062E+02 -0.10040507742E+02 -0.10722608075E+03  0.11066210778E+03  0.00000000000E+00 0. -1.
         -3    1    1    2    0  502  0.32483221476E+02  0.52183265976E+02 -0.65386250243E+02  0.89741933600E+02  0.00000000000E+00 0.  1.
<scales pt_clust_5="13000.00000" pt_clust_6="13000.00000" pt_clust_7="13000.00000" pt_clust_8="13000.00000" pt_clust_9="61.46749"></scales>
<clustering>
<clus scale="   61.467">  2  9  1 -1</clus>
<clus scale="   77.073">  5  6 -1 -1</clus>
<clus scale="   79.476">  1  5  2 -1</clus>
<clus scale="   91.714">  7  8 -1 -1</clus>
<clus scale="   61.467">  2  5  1 -1</clus>
</clustering>
</event>
<event>
 9    1  0.3197504E-005  0.1112245E+03  0.7546771E-02  0.1260714E+00
          1   -1    0    0  502    0 -0.00000000000E+00  0.00000000000E+00  0.69463283423E+03  0.69463283423E+03  0.00000000000E+00 0. -1.
         21   -1    0    0  501  502  0.00000000000E+00 -0.00000000000E+00 -0.25648902303E+02  0.25648902303E+02  0.00000000000E+00 0.  1.
         23    2    1    2    0    0 -0.54066044997E+02  0.39450040126E+02  0.42414819916E+03  0.43891380972E+03  0.90907615895E+02 0.  0.
        -24    2    1    2    0    0  0.34433087380E+02 -0.51722654915E+02  0.23260664875E+03  0.25518356899E+03  0.84569085970E+02 0.  0.
         11    1    4    4    0    0  0.25655729458E+02 -0.45149275678E+02  0.23754651221E+03  0.24315636741E+03  0.00000000000E+00 0. -1.
        -12    1    4    4    0    0  0.87773579219E+01 -0.65733792369E+01 -0.49398634660E+01  0.12027201576E+02  0.00000000000E+00 0.  1.
        -13    1    3    3    0    0  0.36418492337E+01  0.53388304354E+02  0.19845875518E+03  0.20554671394E+03  0.00000000000E+00 0. -1.
         13    1    3    3    0    0 -0.57707894231E+02 -0.13938264228E+02  0.22568944398E+03  0.23336709578E+03  0.00000000000E+00 0.  1.
          2    1    1    2  501    0  0.19632957617E+02  0.12272614789E+02  0.12229084020E+02  0.26184357822E+02  0.00000000000E+00 0. -1.
<scales pt_clust_5="13000.00000" pt_clust_6="13000.00000" pt_clust_7="13000.00000" pt_clust_8="13000.00000" pt_clust_9="23.15319"></scales>
<clustering>
<clus scale="   23.153">  2  9  1 -1</clus>
<clus scale="   84.569">  5  6 -1 -1</clus>
<clus scale="   90.908">  7  8 -1 -1</clus>
<clus scale="  106.107">  2  5  1 -1</clus>
<clus scale="   23.153">  2  5  1 -1</clus>
</clustering>
</event>
<event>
 9    1  0.3197504E-005  0.9841600E+02  0.7546771E-02  0.1289274E+00
          1   -1    0    0  502    0 -0.00000000000E+00  0.00000000000E+00  0.74578866227E+02  0.74578866227E+02  0.00000000000E+00 0. -1.
         21   -1    0    0  501  502  0.00000000000E+00 -0.00000000000E+00 -0.49147387940E+03  0.49147387940E+03  0.00000000000E+00 0.  1.
        -24    2    1    2    0    0 -0.37273814163E+02  0.79271596800E+00  0.15317166546E+02  0.90257421820E+02  0.80757792080E+02 0.  0.
         23    2    1    2    0    0  0.23106943964E+02  0.63384962727E+02 -0.16325669336E+03  0.19892617006E+03  0.91472885865E+02 0.  0.
         13    1    3    3    0    0 -0.17312595664E+02 -0.39904683016E+02  0.51512338008E+01  0.43802339034E+02  0.00000000000E+00 0. -1.
        -14    1    3    3    0    0 -0.19961218500E+02  0.40697398984E+02  0.10165932745E+02  0.46455082786E+02  0.00000000000E+00 0.  1.
        -11    1    4    4    0    0 -0.19433666160E+02 -0.95893500337E+01 -0.98555857008E+01  0.23806628992E+02  0.00000000000E+00 0. -1.
         11    1    4    4    0    0  0.42540610123E+02  0.72974312761E+02 -0.15340110766E+03  0.17511954107E+03  0.00000000000E+00 0.  1.
          2    1    1    2  501    0  0.14166870200E+02 -0.64177678695E+02 -0.26895548636E+03  0.27686915375E+03  0.00000000000E+00 0. -1.
<scales pt_clust_5="13000.00000" pt_clust_6="13000.00000" pt_clust_7="13000.00000" pt_clust_8="13000.00000" pt_clust_9="65.72271"></scales>
<clustering>
<clus scale="   65.723">  2  9  1 -1</clus>
<clus scale="   80.758">  5  6 -1 -1</clus>
<clus scale="   88.545">  1  5  2 -1</clus>
<clus scale="   91.473">  7  8 -1 -1</clus>
<clus scale="   65.723">  2  5  1 -1</clus>
</clustering>
</event>
<event>
 9    1  0.3197504E-005  0.1089779E+03  0.7546771E-02  0.1266102E+00
          1   -1    0    0  502    0 -0.00000000000E+00  0.00000000000E+00  0.66706980047E+03  0.66706980047E+03  0.00000000000E+00 0. -1.
         21   -1    0    0  501  502  0.00000000000E+00 -0.00000000000E+00 -0.29978703566E+02  0.29978703566E+02  0.00000000000E+00 0. -1.
        -24    2    1    2    0    0  0.45847367781E+02  0.22905929059E+02  0.34894194327E+03  0.36205668988E+03  0.81840724548E+02 0.  0.
         23    2    1    2    0    0 -0.60371990459E+02 -0.64076613344E+02  0.20110053177E+03  0.23760879470E+03  0.90917137188E+02 0.  0.
         11    1    3    3    0    0  0.55337538487E+02  0.44689835013E+02  0.22933723453E+03  0.24011453863E+03  0.00000000000E+00 0. -1.
        -12    1    3    3    0    0 -0.94901707059E+01 -0.21783905953E+02  0.11960470874E+03  0.12194215125E+03  0.00000000000E+00 0.  1.
        -11    1    4    4    0    0 -0.52933911060E+02  0.47811311357E+01  0.58246829987E+02  0.78851451214E+02  0.00000000000E+00 0.  1.
         11    1    4    4    0    0 -0.74380793990E+01 -0.68857744480E+02  0.14285370178E+03  0.15875734349E+03  0.00000000000E+00 0. -1.
          2    1    1    2  501    0  0.14524622677E+02  0.41170684285E+02  0.87048621861E+02  0.97383019445E+02  0.00000000000E+00 0. -1.
<scales pt_clust_5="13000.00000" pt_clust_6="13000.00000" pt_clust_7="13000.00000" pt_clust_8="13000.00000" pt_clust_9="43.65764"></scales>
<clustering>
<clus scale="   43.658">  2  9  1 -1</clus>
<clus scale="   81.841">  5  6 -1 -1</clus>
<clus scale="   90.917">  7  8 -1 -1</clus>
<clus scale="  101.529">  1  5  2 -1</clus>
<clus scale="   43.658">  2  5  1 -1</clus>
</clustering>
</event>
<event>
 9    1  0.3197504E-005  0.9343805E+02  0.7546771E-02  0.1296253E+00
         21   -1    0    0  501  502  0.00000000000E+00  0.00000000000E+00  0.29670075919E+03  0.29670075919E+03  0.00000000000E+00 0. -1.
          3   -1    0    0  502    0 -0.00000000000E+00 -0.00000000000E+00 -0.14867523930E+03  0.14867523930E+03  0.00000000000E+00 0. -1.
        -24    2    1    2    0    0  0.18883532923E+02  0.21193510489E+02 -0.11686167759E+03  0.14846065951E+03  0.87052645162E+02 0.  0.
         23    2    1    2    0    0 -0.83940360883E+01  0.84393011644E+00  0.12058074034E+03  0.15055949898E+03  0.89762329142E+02 0.  0.
         13    1    3    3    0    0 -0.79639157014E+01  0.46541630647E+02 -0.35376573824E+02  0.59000417898E+02  0.00000000000E+00 0. -1.
        -14    1    3    3    0    0  0.26847448624E+02 -0.25348120158E+02 -0.81485103764E+02  0.89460241608E+02  0.00000000000E+00 0.  1.
        -13    1    4    4    0    0  0.40898868217E+01 -0.21663746433E+02  0.12276512159E+03  0.12472898686E+03  0.00000000000E+00 0.  1.
         13    1    4    4    0    0 -0.12483922910E+02  0.22507676549E+02 -0.21843812558E+01  0.25830512119E+02  0.00000000000E+00 0. -1.
          4    1    1    2  501    0 -0.10489496834E+02 -0.22037440606E+02  0.14430645714E+03  0.14635584001E+03  0.00000000000E+00 0. -1.
<scales pt_clust_5="13000.00000" pt_clust_6="13000.00000" pt_clust_7="13000.00000" pt_clust_8="13000.00000" pt_clust_9="24.40652"></scales>
<clustering>
<clus scale="   24.407">  1  9  2 -1</clus>
<clus scale="   87.053">  5  6 -1 -1</clus>
<clus scale="   89.762">  7  8 -1 -1</clus>
<clus scale="   90.838">  2  5  1 -1</clus>
<clus scale="   24.407">  1  5  2 -1</clus>
</clustering>
</event>
<event>
 9    1  0.3197504E-005  0.1357843E+03  0.7546771E-02  0.1223355E+00
         21   -1    0    0  501  502  0.00000000000E+00  0.00000000000E+00  0.65244700016E+02  0.65244700016E+02  0.00000000000E+00 0.  1.
          1   -1    0    0  502    0 -0.00000000000E+00 -0.00000000000E+00 -0.44558032011E+03  0.44558032011E+03  0.00000000000E+00 0. -1.
        -24    2    1    2    0    0 -0.22734626874E+02  0.10844015741E+03 -0.27080533911E+03  0.30355276295E+03  0.80824607661E+02 0.  0.
         23    2    1    2    0    0 -0.66134213586E+01 -0.68710408308E+02 -0.10227940893E+03  0.15734895556E+03  0.97635847789E+02 0.  0.
         11    1    3    3    0    0  0.18510224954E+02  0.31360961520E+02 -0.15047619638E+03  0.15481997291E+03  0.00000000000E+00 0. -1.
        -12    1    3    3    0    0 -0.41244851827E+02  0.77079195887E+02 -0.12032914273E+03  0.14873279003E+03  0.00000000000E+00 0.  1.
        -11    1    4    4    0    0  0.19633794763E+02 -0.76940970003E+02 -0.39247577871E+02  0.88576357628E+02  0.00000000000E+00 0.  1.
         11    1    4    4    0    0 -0.26247216122E+02  0.82305616952E+01 -0.63031831061E+02  0.68772597936E+02  0.00000000000E+00 0. -1.
          2    1    1    2  501    0  0.29348048232E+02 -0.39729749099E+02 -0.72508720460E+01  0.49923301613E+02  0.00000000000E+00 0. -1.
<scales pt_clust_5="13000.00000" pt_clust_6="13000.00000" pt_clust_7="13000.00000" pt_clust_8="13000.00000" pt_clust_9="49.39394"></scales>
<clustering>
<clus scale="   49.394">  1  9  2 -1</clus>
<clus scale="   80.825">  5  6 -1 -1</clus>
<clus scale="   97.636">  7  8 -1 -1</clus>
<clus scale="  124.247">  2  5  1 -1</clus>
<clus scale="   49.394">  1  5  2 -1</clus>
</clustering>
</event>
<event>
 9    1  0.3197504E-005  0.1336569E+03  0.7546771E-02  0.1223830E+00
          1   -1    0    0  502    0 -0.00000000000E+00  0.00000000000E+00  0.85842261033E+03  0.85842261033E+03  0.00000000000E+00 0. -1.
         21   -1    0    0  501  502  0.00000000000E+00 -0.00000000000E+00 -0.42839777858E+02  0.42839777858E+02  0.00000000000E+00 0. -1.
        -24    2    1    2    0    0 -0.52841555498E+02  0.44222595516E+02  0.24985326982E+03  0.27097317079E+03  0.79069177994E+02 0.  0.
         23    2    1    2    0    0  0.10159925105E+03 -0.11937172226E+03  0.44729708221E+03  0.48179357251E+03  0.86477458732E+02 0.  0.
         11    1    3    3    0    0 -0.71391489028E+02  0.47069999469E+02  0.21514228784E+03  0.23151357103E+03  0.00000000000E+00 0. -1.
        -12    1    3    3    0    0  0.18549933530E+02 -0.28474039533E+01  0.34710981982E+02  0.39459599762E+02  0.00000000000E+00 0.  1.
        -13    1    4    4    0    0 -0.10210113988E+02 -0.27771317798E+02  0.12687128289E+03  0.13027591850E+03  0.00000000000E+00 0.  1.
         13    1    4    4    0    0  0.11180936504E+03 -0.91600404459E+02  0.32042579933E+03  0.35151765401E+03  0.00000000000E+00 0. -1.
          2    1    1    2  501    0 -0.48757695555E+02  0.75149126741E+02  0.11843248043E+03  0.14849564488E+03  0.00000000000E+00 0. -1.
<scales pt_clust_5="13000.00000" pt_clust_6="13000.00000" pt_clust_7="13000.00000" pt_clust_8="13000.00000" pt_clust_9="89.58071"></scales>
<clustering>
<clus scale="   79.069">  5  6 -1 -1</clus>
<clus scale="   86.477">  7  8 -1 -1</clus>
<clus scale="   89.581">  2  9  1 -1</clus>
<clus scale="  128.987">  1  5  2 -1</clus>
<clus scale="   89.581">  2  5  1 -1</clus>
</clustering>
</event>
<event>
 9    1  0.3197504E-005  0.1333631E+03  0.7546771E-02  0.1247081E+00
          3   -1    0    0  502    0 -0.00000000000E+00  0.00000000000E+00  0.95764260218E+02  0.95764260218E+02  0.00000000000E+00 0. -1.
         21   -1    0    0  501  502  0.00000000000E+00 -0.00000000000E+00 -0.26803762144E+03  0.26803762144E+03  0.00000000000E+00 0. -1.
        -24    2    1    2    0    0 -0.56585563885E+01 -0.79260804488E+01 -0.32798386182E+02  0.87093243229E+02  0.80091553040E+02 0.  0.
         23    2    1    2    0    0  0.82781994902E+02 -0.49278035531E+02 -0.42397708289E+02  0.14016439148E+03  0.92559751006E+02 0.  0.
         13    1    3    3    0    0 -0.39006595389E+02 -0.17733410408E+02 -0.61370821454E+01  0.43285703250E+02  0.00000000000E+00 0. -1.
        -14    1    3    3    0    0  0.33348039001E+02  0.98073299596E+01 -0.26661304036E+02  0.43807539979E+02  0.00000000000E+00 0.  1.
        -13    1    4    4    0    0  0.37963122675E+02 -0.71310518592E+02 -0.40047421526E+02  0.90167536930E+02  0.00000000000E+00 0.  1.
         13    1    4    4    0    0  0.44818872227E+02  0.22032483061E+02 -0.23502867628E+01  0.49996854555E+02  0.00000000000E+00 0. -1.
          4    1    1    2  501    0 -0.77123438513E+02  0.57204115980E+02 -0.97077266749E+02  0.13654424694E+03  0.00000000000E+00 0. -1.
<scales pt_clust_5="13000.00000" pt_clust_6="13000.00000" pt_clust_7="13000.00000" pt_clust_8="13000.00000" pt_clust_9="96.01252"></scales>
<clustering>
<clus scale="   80.092">  5  6 -1 -1</clus>
<clus scale="   80.681">  1  5  2 -1</clus>
<clus scale="   92.560">  7  8 -1 -1</clus>
<clus scale="   96.013">  2  9  1 -1</clus>
<clus scale="   96.013">  2  5  1 -1</clus>
</clustering>
</event>
<event>
 9    1  0.3197504E-005  0.1050100E+03  0.7546771E-02  0.1274289E+00
          3   -1    0    0  502    0 -0.00000000000E+00  0.00000000000E+00  0.15477243425E+03  0.15477243425E+03  0.00000000000E+00 0. -1.
         21   -1    0    0  501  502  0.00000000000E+00 -0.00000000000E+00 -0.20032602691E+03  0.20032602691E+03  0.00000000000E+00 0. -1.
        -24    2    1    2    0    0 -0.23813720003E+02 -0.50448865974E+02  0.87709939864E+02  0.13194975906E+03  0.81274374964E+02 0.  0.
         23    2    1    2    0    0 -0.12759897672E+02  0.51200698936E+02 -0.23759531936E+02  0.10769602388E+03  0.90827262659E+02 0.  0.
         13    1    3    3    0    0 -0.46965832043E+02 -0.53665089932E+02  0.80374465095E+02  0.10745131873E+03  0.00000000000E+00 0. -1.
        -14    1    3    3    0    0  0.23152112041E+02  0.32162239583E+01  0.73354747694E+01  0.24498440330E+02  0.00000000000E+00 0.  1.
        -13    1    4    4    0    0 -0.20615488934E+02 -0.19620032407E+02  0.81774949576E+01  0.29611070217E+02  0.00000000000E+00 0. -1.
         13    1    4    4    0    0  0.78555912620E+01  0.70820731343E+02 -0.31937026894E+02  0.78084953665E+02  0.00000000000E+00 0.  1.
          4    1    1    2  501    0  0.36573617674E+02 -0.75183296266E+00 -0.10950400059E+03  0.11545267822E+03  0.00000000000E+00 0. -1.
<scales pt_clust_5="13000.00000" pt_clust_6="13000.00000" pt_clust_7="13000.00000" pt_clust_8="13000.00000" pt_clust_9="36.58134"></scales>
<clustering>
<clus scale="   36.581">  2  9  1 -1</clus>
<clus scale="   81.274">  5  6 -1 -1</clus>
<clus scale="   90.827">  7  8 -1 -1</clus>
<clus scale="   96.866">  1  5  2 -1</clus>
<clus scale="   36.581">  2  5  1 -1</clus>
</clustering>
</event>
<event>
 9    1  0.3197504E-005  0.1660609E+03  0.7546771E-02  0.1183578E+00
         -2   -1    0    0    0  501 -0.00000000000E+00  0.00000000000E+00  0.33094931735E+03  0.33094931735E+03  0.00000000000E+00 0.  1.
         21   -1    0    0  501  502  0.00000000000E+00 -0.00000000000E+00 -0.14562478047E+03  0.14562478047E+03  0.00000000000E+00 0.  1.
        -24    2    1    2    0    0 -0.10898035771E+03  0.13077706404E+03  0.18724358937E+03  0.26520625604E+03  0.79340012843E+02 0.  0.
         23    2    1    2    0    0  0.48185927538E+02 -0.80481531808E+02  0.13750525139E+02  0.13092445196E+03  0.90293823733E+02 0.  0.
         13    1    3    3    0    0 -0.22977516137E+02  0.62378595201E+02  0.28940239744E+02  0.72502364538E+02  0.00000000000E+00 0. -1.
        -14    1    3    3    0    0 -0.86002841577E+02  0.68398468839E+02  0.15830334962E+03  0.19270389150E+03  0.00000000000E+00 0.  1.
        -11    1    4    4    0    0 -0.23838176539E+02 -0.39428479336E+02 -0.36381325166E+01  0.46217958108E+02  0.00000000000E+00 0.  1.
         11    1    4    4    0    0  0.72024104077E+02 -0.41053052472E+02  0.17388657656E+02  0.84706493851E+02  0.00000000000E+00 0. -1.
         -1    1    1    2    0  502  0.60794430177E+02 -0.50295532232E+02 -0.15669577629E+02  0.80443389822E+02  0.00000000000E+00 0.  1.
<scales pt_clust_5="13000.00000" pt_clust_6="13000.00000" pt_clust_7="13000.00000" pt_clust_8="13000.00000" pt_clust_9="78.90249"></scales>
<clustering>
<clus scale="   78.902">  2  9  1 -1</clus>
<clus scale="   79.340">  5  6 -1 -1</clus>
<clus scale="   90.294">  7  8 -1 -1</clus>
<clus scale="  160.369">  1  5  2 -1</clus>
<clus scale="   78.902">  2  5  1 -1</clus>
</clustering>
</event>
<event>
 9    1  0.3197504E-005  0.9519211E+02  0.7546771E-02  0.1301647E+00
          1   -1    0    0  502    0 -0.00000000000E+00  0.00000000000E+00  0.27980425729E+02  0.27980425729E+02  0.00000000000E+00 0. -1.
         21   -1    0    0  501  502  0.00000000000E+00 -0.00000000000E+00 -0.61618974841E+03  0.61618974841E+03  0.00000000000E+00 0. -1.
        -24    2    1    2    0    0 -0.47876893892E+01 -0.24664484929E+02 -0.93077090290E+02  0.12060530388E+03  0.72464031078E+02 0.  0.
         23    2    1    2    0    0  0.50388350866E+02  0.24809088964E+02 -0.43592630340E+03  0.44883346278E+03  0.90913467155E+02 0.  0.
         11    1    3    3    0    0 -0.20427276869E+01 -0.50281224811E+02 -0.68513281073E+02  0.85008493624E+02  0.00000000000E+00 0. -1.
        -12    1    3    3    0    0 -0.27449617023E+01  0.25616739882E+02 -0.24563809217E+02  0.35596810253E+02  0.00000000000E+00 0.  1.
        -11    1    4    4    0    0 -0.20310035550E+02  0.72289683059E+01 -0.33298899192E+02  0.39668277177E+02  0.00000000000E+00 0.  1.
         11    1    4    4    0    0  0.70698386416E+02  0.17580120658E+02 -0.40262740421E+03  0.40916518560E+03  0.00000000000E+00 0. -1.
          2    1    1    2  501    0 -0.45600661477E+02 -0.14460403493E+00 -0.59205928990E+02  0.74731407488E+02  0.00000000000E+00 0. -1.
<scales pt_clust_5="13000.00000" pt_clust_6="13000.00000" pt_clust_7="13000.00000" pt_clust_8="13000.00000" pt_clust_9="45.60091"></scales>
<clustering>
<clus scale="   45.601">  2  9  1 -1</clus>
<clus scale="   72.464">  5  6 -1 -1</clus>
<clus scale="   77.764">  1  5  2 -1</clus>
<clus scale="   90.913">  7  8 -1 -1</clus>
<clus scale="   45.601">  2  5  1 -1</clus>
</clustering>
</event>
<event>
 9    1  0.3197504E-005  0.1386019E+03  0.7546771E-02  0.1217350E+00
         -2   -1    0    0    0  501 -0.00000000000E+00  0.00000000000E+00  0.51946183925E+03  0.51946183925E+03  0.00000000000E+00 0.  1.
         21   -1    0    0  501  502  0.00000000000E+00 -0.00000000000E+00 -0.46095333092E+03  0.46095333092E+03  0.00000000000E+00 0. -1.
         23    2    1    2    0    0  0.38186482438E+02  0.97865112668E+02  0.49257623652E+03  0.51185441537E+03  0.91256813621E+02 0.  0.
        -24    2    1    2    0    0 -0.71629550340E+02 -0.60124927828E+02 -0.27615932701E+03  0.30279639340E+03  0.81706074039E+02 0.  0.
         13    1    4    4    0    0 -0.37760313749E+02 -0.76630223889E+02 -0.17233312339E+03  0.19234536107E+03  0.00000000000E+00 0. -1.
        -14    1    4    4    0    0 -0.33869236591E+02  0.16505296061E+02 -0.10382620362E+03  0.11045103234E+03  0.00000000000E+00 0.  1.
        -11    1    3    3    0    0  0.14169078822E+02  0.94368531949E+02  0.46678386884E+03  0.47643820462E+03  0.00000000000E+00 0.  1.
         11    1    3    3    0    0  0.24017403616E+02  0.34965807188E+01  0.25792367686E+02  0.35416210752E+02  0.00000000000E+00 0. -1.
         -1    1    1    2    0  502  0.33443067902E+02 -0.37740184840E+02 -0.15790840118E+03  0.16576436139E+03  0.00000000000E+00 0.  1.
<scales pt_clust_5="13000.00000" pt_clust_6="13000.00000" pt_clust_7="13000.00000" pt_clust_8="13000.00000" pt_clust_9="50.42579"></scales>
<clustering>
<clus scale="   50.426">  2  9  1 -1</clus>
<clus scale="   81.706">  5  6 -1 -1</clus>
<clus scale="   91.257">  7  8 -1 -1</clus>
<clus scale="  132.509">  2  5  1 -1</clus>
<clus scale="   50.426">  2  5  1 -1</clus>
</clustering>
</event>
<event>
 9    1  0.3197504E-005  0.9229867E+02  0.7546771E-02  0.1300792E+00
         21   -1    0    0  501  502  0.00000000000E+00  0.00000000000E+00  0.63911325258E+02  0.63911325258E+02  0.00000000000E+00 0.  1.
         -2   -1    0    0    0  501 -0.00000000000E+00 -0.00000000000E+00 -0.37865745110E+03  0.37865745110E+03  0.00000000000E+00 0.  1.
         23    2    1    2    0    0  0.81378917925E+01  0.50487203825E+02 -0.17102393400E+03  0.20062902799E+03  0.91584047951E+02 0.  0.
        -24    2    1    2    0    0 -0.97329455740E+01  0.36159267904E+02 -0.12326901493E+03  0.15289769254E+03  0.82342160872E+02 0.  0.
         11    1    4    4    0    0  0.46022644284E+01 -0.25901271355E+02 -0.29312265967E+02  0.39386109630E+02  0.00000000000E+00 0. -1.
        -12    1    4    4    0    0 -0.14335210002E+02  0.62060539259E+02 -0.93956748966E+02  0.11351158291E+03  0.00000000000E+00 0.  1.
        -11    1    3    3    0    0 -0.18481664328E+02 -0.21038304962E+02 -0.37048115627E+02  0.46440769411E+02  0.00000000000E+00 0. -1.
         11    1    3    3    0    0  0.26619556121E+02  0.71525508787E+02 -0.13397581837E+03  0.15418825858E+03  0.00000000000E+00 0.  1.
         -1    1    1    2    0  502  0.15950537816E+01 -0.86646471729E+02 -0.20453176908E+02  0.89042055823E+02  0.00000000000E+00 0.  1.
<scales pt_clust_5="13000.00000" pt_clust_6="13000.00000" pt_clust_7="13000.00000" pt_clust_8="13000.00000" pt_clust_9="86.66115"></scales>
<clustering>
<clus scale="   82.342">  5  6 -1 -1</clus>
<clus scale="   86.661">  1  9  2 -1</clus>
<clus scale="   86.661">  1  5  2 -1</clus>
<clus scale="   91.584">  7  8 -1 -1</clus>
<clus scale="   86.661">  1  5  2 -1</clus>
</clustering>
</event>
<event>
 9    1  0.3197504E-005  0.1416169E+03  0.7546771E-02  0.1228915E+00
         -2   -1    0    0    0  501 -0.00000000000E+00  0.00000000000E+00  0.36002960960E+02  0.36002960960E+02  0.00000000000E+00 0.  1.
         21   -1    0    0  501  502  0.00000000000E+00 -0.00000000000E+00 -0.10697936286E+04  0.10697936286E+04  0.00000000000E+00 0.  1.
         23    2    1    2    0    0  0.42353813796E+01  0.31780883407E+02 -0.41936944516E+03  0.43056937496E+03  0.92148207333E+02 0.  0.
        -24    2    1    2    0    0  0.12534204317E+02  0.92746979255E+02 -0.14976026385E+03  0.19387680787E+03  0.80006072034E+02 0.  0.
         11    1    4    4    0    0 -0.24395497589E+02  0.38846402256E+02 -0.23105600895E+02  0.51361970986E+02  0.00000000000E+00 0. -1.
        -12    1    4    4    0    0  0.36929701906E+02  0.53900576999E+02 -0.12665466295E+03  0.14251483688E+03  0.00000000000E+00 0.  1.
        -11    1    3    3    0    0  0.22455130394E+02  0.57477766958E+02 -0.33220068280E+03  0.33788344178E+03  0.00000000000E+00 0.  1.
         11    1    3    3    0    0 -0.18219749014E+02 -0.25696883551E+02 -0.87168762358E+02  0.92685933180E+02  0.00000000000E+00 0. -1.
         -1    1    1    2    0  502 -0.16769585696E+02 -0.12452786266E+03 -0.46466095861E+03  0.48135040671E+03  0.00000000000E+00 0.  1.
<scales pt_clust_5="13000.00000" pt_clust_6="13000.00000" pt_clust_7="13000.00000" pt_clust_8="13000.00000" pt_clust_9="116.85191"></scales>
<clustering>
<clus scale="   80.006">  5  6 -1 -1</clus>
<clus scale="   92.148">  7  8 -1 -1</clus>
<clus scale="   97.567">  1  7  2 -1</clus>
<clus scale="  116.852">  2  9  1 -1</clus>
<clus scale="  116.852">  2  5  1 -1</clus>
</clustering>
</event>
<event>
 9    1  0.3197504E-005  0.9211324E+02  0.7546771E-02  0.1303505E+00
          1   -1    0    0  502    0 -0.00000000000E+00  0.00000000000E+00  0.43601321494E+03  0.43601321494E+03  0.00000000000E+00 0. -1.
         21   -1    0    0  501  502  0.00000000000E+00 -0.00000000000E+00 -0.33206316288E+02  0.33206316288E+02  0.00000000000E+00 0.  1.
         23    2    1    2    0    0  0.14148575030E+02  0.18248113737E+00  0.25952496602E+03  0.27540572579E+03  0.91076288565E+02 0.  0.
        -24    2    1    2    0    0 -0.73729672740E+01 -0.23035126764E+02  0.52958867611E+02  0.10039855856E+03  0.81793955716E+02 0.  0.
         11    1    4    4    0    0  0.32724390796E+02 -0.59227290300E+01  0.19721775073E+01  0.33314470673E+02  0.00000000000E+00 0. -1.
        -12    1    4    4    0    0 -0.40097358070E+02 -0.17112397734E+02  0.50986690103E+02  0.67084087891E+02  0.00000000000E+00 0.  1.
        -11    1    3    3    0    0 -0.23363178184E+02 -0.18656488208E+02  0.31042051939E+02  0.43098858868E+02  0.00000000000E+00 0.  1.
         11    1    3    3    0    0  0.37511753214E+02  0.18838969345E+02  0.22848291408E+03  0.23230686693E+03  0.00000000000E+00 0. -1.
          2    1    1    2  501    0 -0.67756077559E+01  0.22852645627E+02  0.90323065024E+02  0.93415246871E+02  0.00000000000E+00 0. -1.
<scales pt_clust_5="13000.00000" pt_clust_6="13000.00000" pt_clust_7="13000.00000" pt_clust_8="13000.00000" pt_clust_9="23.83596"></scales>
<clustering>
<clus scale="   23.836">  2  9  1 -1</clus>
<clus scale="   81.794">  5  6 -1 -1</clus>
<clus scale="   82.947">  2  5  1 -1</clus>
<clus scale="   91.076">  7  8 -1 -1</clus>
<clus scale="   23.836">  2  5  1 -1</clus>
</clustering>
</event>
<event>
 9    1  0.3197504E-005  0.1127705E+03  0.7546771E-02  0.1257638E+00
         21   -1    0    0  501  502  0.00000000000E+00  0.00000000000E+00  0.44633431849E+03  0.44633431849E+03  0.00000000000E+00 0.  1.
          3   -1    0    0  502    0 -0.00000000000E+00 -0.00000000000E+00 -0.51167669490E+02  0.51167669490E+02  0.00000000000E+00 0. -1.
        -24    2    1    2    0    0 -0.76479617268E+01  0.60002578634E+02  0.74160397856E+02  0.13467989301E+03  0.94763432879E+02 0.  0.
         23    2    1    2    0    0  0.40000625619E+02 -0.53979509107E+02  0.14121932807E+03  0.18004816374E+03  0.89222223641E+02 0.  0.
         13    1    3    3    0    0 -0.30807186453E+02  0.76892301502E+02  0.47246722699E+02  0.95361216295E+02  0.00000000000E+00 0. -1.
        -14    1    3    3    0    0  0.23159224726E+02 -0.16889722869E+02  0.26913675157E+02  0.39318676720E+02  0.00000000000E+00 0.  1.
        -11    1    4    4    0    0 -0.12900207868E+02 -0.15342487439E+02  0.10145398575E+03  0.10341527213E+03  0.00000000000E+00 0. -1.
         11    1    4    4    0    0  0.52900833487E+02 -0.38637021668E+02  0.39765342314E+02  0.76632891609E+02  0.00000000000E+00 0.  1.
          4    1    1    2  501    0 -0.32352663892E+02 -0.60230695269E+01  0.17978692308E+03  0.18277393123E+03  0.00000000000E+00 0. -1.
<scales pt_clust_5="13000.00000" pt_clust_6="13000.00000" pt_clust_7="13000.00000" pt_clust_8="13000.00000" pt_clust_9="32.90854"></scales>
<clustering>
<clus scale="   32.909">  1  9  2 -1</clus>
<clus scale="   89.222">  7  8 -1 -1</clus>
<clus scale="   94.763">  5  6 -1 -1</clus>
<clus scale="  108.156">  1  7  2 -1</clus>
<clus scale="   32.909">  1  5  2 -1</clus>
</clustering>
</event>
<event>
 9    1  0.3197504E-005  0.1988277E+03  0.7546771E-02  0.1151901E+00
          1   -1    0    0  502    0 -0.00000000000E+00  0.00000000000E+00  0.12604144591E+04  0.12604144591E+04  0.00000000000E+00 0. -1.
         21   -1    0    0  501  502  0.00000000000E+00 -0.00000000000E+00 -0.11550247482E+03  0.11550247482E+03  0.00000000000E+00 0.  1.
         23    2    1    2    0    0  0.12717025887E+03  0.15173828190E+03  0.93126403706E+03  0.95654805319E+03  0.92383388175E+02 0.  0.
        -24    2    1    2    0    0  0.89141006242E+01 -0.15577993378E+03  0.22206437268E+03  0.28296461375E+03  0.80059590706E+02 0.  0.
         11    1    4    4    0    0 -0.32488153786E+02 -0.35778721689E+02  0.56928290060E+02  0.74675479719E+02  0.00000000000E+00 0. -1.
        -12    1    4    4    0    0  0.41402254410E+02 -0.12000121209E+03  0.16513608262E+03  0.20828913403E+03  0.00000000000E+00 0.  1.
        -11    1    3    3    0    0  0.17912406535E+02  0.15502033067E+02  0.28555203177E+02  0.37102115378E+02  0.00000000000E+00 0.  1.
         11    1    3    3    0    0  0.10925785233E+03  0.13623624883E+03  0.90270883388E+03  0.91944593781E+03  0.00000000000E+00 0. -1.
          2    1    1    2  501    0 -0.13608435949E+03  0.40416518803E+01 -0.84164254124E+01  0.13640426703E+03  0.00000000000E+00 0. -1.
<scales pt_clust_5="13000.00000" pt_clust_6="13000.00000" pt_clust_7="13000.00000" pt_clust_8="13000.00000" pt_clust_9="136.14436"></scales>
<clustering>
<clus scale="   80.060">  5  6 -1 -1</clus>
<clus scale="   92.383">  7  8 -1 -1</clus>
<clus scale="  136.144">  2  9  1 -1</clus>
<clus scale="  193.410">  2  5  1 -1</clus>
<clus scale="  136.144">  2  5  1 -1</clus>
</clustering>
</event>
<event>
 9    1  0.3197504E-005  0.1536750E+03  0.7546771E-02  0.1198185E+00
         21   -1    0    0  501  502  0.00000000000E+00  0.00000000000E+00  0.15391325189E+03  0.15391325189E+03  0.00000000000E+00 0.  1.
          1   -1    0    0  502    0 -0.00000000000E+00 -0.00000000000E+00 -0.57644696546E+03  0.57644696546E+03  0.00000000000E+00 0. -1.
         23    2    1    2    0    0  0.58938703610E+02 -0.11904344267E+03 -0.46451748853E+03  0.49143389335E+03  0.89920311134E+02 0.  0.
        -24    2    1    2    0    0 -0.96331203656E+02  0.50171091114E+02 -0.25284439977E+02  0.13564702980E+03  0.77226773910E+02 0.  0.
         11    1    4    4    0    0 -0.25541005745E+02  0.23746847856E+02 -0.45595249351E+02  0.57403680378E+02  0.00000000000E+00 0. -1.
        -12    1    4    4    0    0 -0.70790197911E+02  0.26424243258E+02  0.20310809374E+02  0.78243349427E+02  0.00000000000E+00 0.  1.
        -13    1    3    3    0    0  0.30786428685E+02 -0.71762270553E+02 -0.39564791254E+03  0.40328017354E+03  0.00000000000E+00 0. -1.
         13    1    3    3    0    0  0.28152274925E+02 -0.47281172119E+02 -0.68869575988E+02  0.88153719815E+02  0.00000000000E+00 0.  1.
          2    1    1    2  501    0  0.37392500046E+02  0.68872351557E+02  0.67268214940E+02  0.10327929420E+03  0.00000000000E+00 0. -1.
<scales pt_clust_5="13000.00000" pt_clust_6="13000.00000" pt_clust_7="13000.00000" pt_clust_8="13000.00000" pt_clust_9="78.36836"></scales>
<clustering>
<clus scale="   77.227">  5  6 -1 -1</clus>
<clus scale="   78.368">  1  9  2 -1</clus>
<clus scale="   89.920">  7  8 -1 -1</clus>
<clus scale="  146.609">  1  5  2 -1</clus>
<clus scale="   78.368">  1  5  2 -1</clus>
</clustering>
</event>
<event>
 9    1  0.3197504E-005  0.9329963E+02  0.7546771E-02  0.1301241E+00
         21   -1    0    0  501  502  0.00000000000E+00  0.00000000000E+00  0.12332518548E+03  0.12332518548E+03  0.00000000000E+00 0. -1.
          1   -1    0    0  502    0 -0.00000000000E+00 -0.00000000000E+00 -0.11770142933E+03  0.11770142933E+03  0.00000000000E+00 0. -1.
         23    2    1    2    0    0  0.13816949599E+02 -0.32100183476E+02 -0.14968184644E+02  0.98889858693E+02  0.91289800775E+02 0.  0.
        -24    2    1    2    0    0  0.28190895658E+02  0.37647668399E+01 -0.38283343018E+01  0.85888158500E+02  0.80951958343E+02 0.  0.
         11    1    4    4    0    0  0.41031899824E+02  0.19115942250E+02  0.24292282559E+02  0.51372668251E+02  0.00000000000E+00 0. -1.
        -12    1    4    4    0    0 -0.12841004167E+02 -0.15351175411E+02 -0.28120616860E+02  0.34515490249E+02  0.00000000000E+00 0.  1.
        -13    1    3    3    0    0  0.40177630088E+02 -0.34527356167E+02  0.18594373288E+02  0.56143842060E+02  0.00000000000E+00 0. -1.
         13    1    3    3    0    0 -0.26360680489E+02  0.24271726907E+01 -0.33562557931E+02  0.42746016633E+02  0.00000000000E+00 0.  1.
          2    1    1    2  501    0 -0.42007845257E+02  0.28335416636E+02  0.24420275093E+02  0.56248597624E+02  0.00000000000E+00 0. -1.
<scales pt_clust_5="13000.00000" pt_clust_6="13000.00000" pt_clust_7="13000.00000" pt_clust_8="13000.00000" pt_clust_9="50.67105"></scales>
<clustering>
<clus scale="   50.671">  1  9  2 -1</clus>
<clus scale="   80.952">  5  6 -1 -1</clus>
<clus scale="   83.212">  1  5  2 -1</clus>
<clus scale="   91.290">  7  8 -1 -1</clus>
<clus scale="   50.671">  1  5  2 -1</clus>
</clustering>
</event>
<event>
 9    1  0.3197504E-005  0.9412061E+02  0.7546771E-02  0.1300785E+00
         21   -1    0    0  501  502  0.00000000000E+00  0.00000000000E+00  0.16352871965E+03  0.16352871965E+03  0.00000000000E+00 0.  1.
         -4   -1    0    0    0  501 -0.00000000000E+00 -0.00000000000E+00 -0.69545049524E+02  0.69545049524E+02  0.00000000000E+00 0.  1.
        -24    2    1    2    0    0  0.33177507309E+02 -0.82517258998E+00  0.18177110021E+02  0.87036074572E+02  0.78380118954E+02 0.  0.
         23    2    1    2    0    0 -0.48034855792E+01  0.39325700283E+01  0.73662334055E+02  0.11741360102E+03  0.91221026446E+02 0.  0.
         11    1    3    3    0    0 -0.25851517514E+02 -0.77365368235E+00  0.26464587333E+01  0.25998139195E+02  0.00000000000E+00 0. -1.
        -12    1    3    3    0    0  0.59029024822E+02 -0.51518907636E-01  0.15530651288E+02  0.61037935377E+02  0.00000000000E+00 0.  1.
        -13    1    4    4    0    0 -0.20804611290E+02 -0.25426304939E+02  0.77093540074E+02  0.83801806394E+02  0.00000000000E+00 0.  1.
         13    1    4    4    0    0  0.16001125711E+02  0.29358874968E+02 -0.34312060185E+01  0.33611794628E+02  0.00000000000E+00 0. -1.
         -3    1    1    2    0  502 -0.28374021729E+02 -0.31073974384E+01  0.21442260520E+01  0.28624093580E+02  0.00000000000E+00 0.  1.
<scales pt_clust_5="13000.00000" pt_clust_6="13000.00000" pt_clust_7="13000.00000" pt_clust_8="13000.00000" pt_clust_9="28.54368"></scales>
<clustering>
<clus scale="   28.544">  1  9  2 -1</clus>
<clus scale="   78.380">  5  6 -1 -1</clus>
<clus scale="   81.737">  2  5  1 -1</clus>
<clus scale="   91.221">  7  8 -1 -1</clus>
<clus scale="   28.544">  1  5  2 -1</clus>
</clustering>
</event>
<event>
 9    1  0.3197504E-005  0.1548570E+03  0.7546771E-02  0.1215647E+00
         21   -1    0    0  501  502  0.00000000000E+00  0.00000000000E+00  0.21985813163E+03  0.21985813163E+03  0.00000000000E+00 0. -1.
          1   -1    0    0  502    0 -0.00000000000E+00 -0.00000000000E+00 -0.22520064937E+03  0.22520064937E+03  0.00000000000E+00 0. -1.
        -24    2    1    2    0    0 -0.45195821250E+02  0.32244908800E+02 -0.91165828013E+02  0.13420602633E+03  0.81348957602E+02 0.  0.
         23    2    1    2    0    0  0.14966565173E+03 -0.31463619209E+02  0.10762487428E+03  0.20412944847E+03  0.81828794003E+02 0.  0.
         13    1    3    3    0    0 -0.17110462202E+00 -0.21865309953E+02 -0.41059174333E+01  0.22248137318E+02  0.00000000000E+00 0. -1.
        -14    1    3    3    0    0 -0.45024716628E+02  0.54110218754E+02 -0.87059910580E+02  0.11195788901E+03  0.00000000000E+00 0.  1.
        -13    1    4    4    0    0  0.12517680294E+03 -0.24634209403E+02  0.12062541698E+03  0.17557496259E+03  0.00000000000E+00 0. -1.
         13    1    4    4    0    0  0.24488848795E+02 -0.68294098061E+01 -0.13000542700E+02  0.28554485884E+02  0.00000000000E+00 0.  1.
          2    1    1    2  501    0 -0.10446983048E+03 -0.78128959118E+00 -0.21801564009E+02  0.10672330621E+03  0.00000000000E+00 0. -1.
<scales pt_clust_5="13000.00000" pt_clust_6="13000.00000" pt_clust_7="13000.00000" pt_clust_8="13000.00000" pt_clust_9="131.47150"></scales>
<clustering>
<clus scale="   81.349">  5  6 -1 -1</clus>
<clus scale="   81.829">  7  8 -1 -1</clus>
<clus scale="   98.489">  2  5  1 -1</clus>
<clus scale="  131.471">  1  9  2 -1</clus>
<clus scale="  131.471">  1  5  2 -1</clus>
</clustering>
</event>
<event>
 9    1  0.3197504E-005  0.9448461E+02  0.7546771E-02  0.1298046E+00
         21   -1    0    0  501  502  0.00000000000E+00  0.00000000000E+00  0.10236478277E+03  0.10236478277E+03  0.00000000000E+00 0.  1.
         -2   -1    0    0    0  501 -0.00000000000E+00 -0.00000000000E+00 -0.15642486138E+03  0.15642486138E+03  0.00000000000E+00 0.  1.
        -24    2    1    2    0    0  0.19246566276E+02 -0.36172459887E+02 -0.48009901770E+02  0.10111218251E+03  0.78992693442E+02 0.  0.
         23    2    1    2    0    0 -0.10310349362E+02  0.10539715758E+01  0.40695411163E+02  0.98530913197E+02  0.89133664828E+02 0.  0.
         11    1    3    3    0    0  0.38899151504E+02  0.83261753304E+01 -0.15985113413E+02  0.42871820980E+02  0.00000000000E+00 0. -1.
        -12    1    3    3    0    0 -0.19652585227E+02 -0.44498635218E+02 -0.32024788358E+02  0.58240361535E+02  0.00000000000E+00 0.  1.
        -13    1    4    4    0    0  0.46259588929E+01  0.26248426087E+02 -0.18528359408E+02  0.32460429295E+02  0.00000000000E+00 0. -1.
         13    1    4    4    0    0 -0.14936308254E+02 -0.25194454511E+02  0.59223770571E+02  0.66070483901E+02  0.00000000000E+00 0.  1.
         -1    1    1    2    0  502 -0.89362169147E+01  0.35118488311E+02 -0.46745587999E+02  0.59146548432E+02  0.00000000000E+00 0.  1.
<scales pt_clust_5="13000.00000" pt_clust_6="13000.00000" pt_clust_7="13000.00000" pt_clust_8="13000.00000" pt_clust_9="36.23763"></scales>
<clustering>
<clus scale="   36.238">  1  9  2 -1</clus>
<clus scale="   78.993">  5  6 -1 -1</clus>
<clus scale="   84.985">  2  5  1 -1</clus>
<clus scale="   89.134">  7  8 -1 -1</clus>
<clus scale="   36.238">  1  5  2 -1</clus>
</clustering>
</event>
<event>
 9    1  0.3197504E-005  0.1180747E+03  0.7546771E-02  0.1249696E+00
         21   -1    0    0  501  502  0.00000000000E+00  0.00000000000E+00  0.20506532936E+03  0.20506532936E+03  0.00000000000E+00 0. -1.
          1   -1    0    0  502    0 -0.00000000000E+00 -0.00000000000E+00 -0.19064258818E+03  0.19064258818E+03  0.00000000000E+00 0. -1.
         23    2    1    2    0    0  0.27174774671E+02  0.66618126228E+02  0.12815768380E+01  0.11821061476E+03  0.93785200769E+02 0.  0.
        -24    2    1    2    0    0  0.58706106878E+02 -0.82507784848E+02  0.91499770004E+02  0.16015984862E+03  0.83815438031E+02 0.  0.
         13    1    4    4    0    0  0.66600120092E+02 -0.22213136364E+02  0.42528634702E+02  0.82083397791E+02  0.00000000000E+00 0. -1.
        -14    1    4    4    0    0 -0.78940132137E+01 -0.60294648484E+02  0.48971135302E+02  0.78076450824E+02  0.00000000000E+00 0.  1.
        -11    1    3    3    0    0  0.22290234626E+02 -0.13390250654E+02 -0.22726928766E+02  0.34535006347E+02  0.00000000000E+00 0.  1.
         11    1    3    3    0    0  0.48845400448E+01  0.80008376882E+02  0.24008505604E+02  0.83675608418E+02  0.00000000000E+00 0. -1.
          2    1    1    2  501    0 -0.85880881549E+02  0.15889658620E+02 -0.78358605669E+02  0.11733745416E+03  0.00000000000E+00 0. -1.
<scales pt_clust_5="13000.00000" pt_clust_6="13000.00000" pt_clust_7="13000.00000" pt_clust_8="13000.00000" pt_clust_9="87.33851"></scales>
<clustering>
<clus scale="   83.815">  5  6 -1 -1</clus>
<clus scale="   87.339">  1  9  2 -1</clus>
<clus scale="   93.785">  7  8 -1 -1</clus>
<clus scale="  110.322">  1  5  2 -1</clus>
<clus scale="   87.339">  1  5  2 -1</clus>
</clustering>
</event>
<event>
 9    1  0.3197504E-005  0.9539992E+02  0.7546771E-02  0.1298379E+00
         -4   -1    0    0    0  501 -0.00000000000E+00  0.00000000000E+00  0.22772890156E+03  0.22772890156E+03  0.00000000000E+00 0.  1.
         21   -1    0    0  501  502  0.00000000000E+00 -0.00000000000E+00 -0.67629856283E+02  0.67629856283E+02  0.00000000000E+00 0. -1.
        -24    2    1    2    0    0  0.30123387940E+02 -0.11992477267E+01  0.14719863447E+03  0.16916577944E+03  0.77722366460E+02 0.  0.
         23    2    1    2    0    0 -0.11407441980E+02  0.18889202244E+02  0.25239190088E+02  0.97636602617E+02  0.91700369467E+02 0.  0.
         13    1    3    3    0    0  0.21448340508E+02  0.21261717813E+02  0.13094878093E+02  0.32917590847E+02  0.00000000000E+00 0. -1.
        -14    1    3    3    0    0  0.86750474325E+01 -0.22460965540E+02  0.13410375638E+03  0.13624818859E+03  0.00000000000E+00 0.  1.
        -13    1    4    4    0    0  0.28147496558E+02 -0.20561940612E+02 -0.30972303844E+01  0.34995253968E+02  0.00000000000E+00 0.  1.
         13    1    4    4    0    0 -0.39554938538E+02  0.39451142856E+02  0.28336420472E+02  0.62641348649E+02  0.00000000000E+00 0. -1.
         -3    1    1    2    0  502 -0.18715945960E+02 -0.17689954517E+02 -0.12338779279E+02  0.28556375787E+02  0.00000000000E+00 0.  1.
<scales pt_clust_5="13000.00000" pt_clust_6="13000.00000" pt_clust_7="13000.00000" pt_clust_8="13000.00000" pt_clust_9="25.75308"></scales>
<clustering>
<clus scale="   25.753">  2  9  1 -1</clus>
<clus scale="   77.722">  5  6 -1 -1</clus>
<clus scale="   82.055">  1  5  2 -1</clus>
<clus scale="   91.700">  7  8 -1 -1</clus>
<clus scale="   25.753">  2  5  1 -1</clus>
</clustering>
</event>
<event>
 9    1  0.3197504E-005  0.2094287E+03  0.7546771E-02  0.1143278E+00
          1   -1    0    0  502    0 -0.00000000000E+00  0.00000000000E+00  0.67413527422E+03  0.67413527422E+03  0.00000000000E+00 0. -1.
         21   -1    0    0  501  502  0.00000000000E+00 -0.00000000000E+00 -0.16756353903E+03  0.16756353903E+03  0.00000000000E+00 0. -1.
         23    2    1    2    0    0 -0.11773753617E+03 -0.14996694714E+03  0.42256788483E+03  0.47324654352E+03  0.95112885590E+02 0.  0.
        -24    2    1    2    0    0  0.12999110600E+03  0.10600391355E+03 -0.76826582185E+02  0.20127174955E+03  0.80457915157E+02 0.  0.
         11    1    4    4    0    0  0.61494589892E+02  0.90673994288E+02 -0.20925164134E+02  0.11154021840E+03  0.00000000000E+00 0. -1.
        -12    1    4    4    0    0  0.68496516108E+02  0.15329919261E+02 -0.55901418051E+02  0.89731531156E+02  0.00000000000E+00 0.  1.
        -13    1    3    3    0    0 -0.52739389683E+02 -0.87475722366E+02  0.12028908082E+03  0.15780655307E+03  0.00000000000E+00 0.  1.
         13    1    3    3    0    0 -0.64998146492E+02 -0.62491224772E+02  0.30227880401E+03  0.31543999045E+03  0.00000000000E+00 0. -1.
          2    1    1    2  501    0 -0.12253569825E+02  0.43963033589E+02  0.16083043254E+03  0.16718052018E+03  0.00000000000E+00 0. -1.
<scales pt_clust_5="13000.00000" pt_clust_6="13000.00000" pt_clust_7="13000.00000" pt_clust_8="13000.00000" pt_clust_9="45.63880"></scales>
<clustering>
<clus scale="   45.639">  2  9  1 -1</clus>
<clus scale="   80.458">  5  6 -1 -1</clus>
<clus scale="   95.113">  7  8 -1 -1</clus>
<clus scale="  203.193">  2  5  1 -1</clus>
<clus scale="   45.639">  2  5  1 -1</clus>
</clustering>
</event>
<event>
 9    1  0.3197504E-005  0.1720465E+03  0.7546771E-02  0.1176280E+00
         21   -1    0    0  501  502  0.00000000000E+00  0.00000000000E+00  0.67946878483E+02  0.67946878483E+02  0.00000000000E+00 0. -1.
          1   -1    0    0  502    0 -0.00000000000E+00 -0.00000000000E+00 -0.70562949808E+03  0.70562949808E+03  0.00000000000E+00 0. -1.
        -24    2    1    2    0    0  0.15428556135E+03  0.31831064951E+02 -0.40914603155E+03  0.44701588747E+03  0.87209388124E+02 0.  0.
         23    2    1    2    0    0 -0.11456103262E+03 -0.24402124908E+02 -0.72271088617E+02  0.16515375552E+03  0.91285041579E+02 0.  0.
         11    1    3    3    0    0  0.58477363714E+02  0.31958692987E+02 -0.26981705004E+03  0.27792481109E+03  0.00000000000E+00 0. -1.
        -12    1    3    3    0    0  0.95808197637E+02 -0.12762803564E+00 -0.13932898151E+03  0.16909107638E+03  0.00000000000E+00 0.  1.
        -13    1    4    4    0    0 -0.24043568119E+02  0.33029701139E+02 -0.14309821318E+02  0.43287703928E+02  0.00000000000E+00 0.  1.
         13    1    4    4    0    0 -0.90517464504E+02 -0.57431826046E+02 -0.57961267299E+02  0.12186605159E+03  0.00000000000E+00 0. -1.
          2    1    1    2  501    0 -0.39724528728E+02 -0.74289400433E+01 -0.15626549943E+03  0.16140673358E+03  0.00000000000E+00 0. -1.
<scales pt_clust_5="13000.00000" pt_clust_6="13000.00000" pt_clust_7="13000.00000" pt_clust_8="13000.00000" pt_clust_9="40.41323"></scales>
<clustering>
<clus scale="   40.413">  1  9  2 -1</clus>
<clus scale="   87.209">  5  6 -1 -1</clus>
<clus scale="   91.285">  7  8 -1 -1</clus>
<clus scale="  169.919">  2  5  1 -1</clus>
<clus scale="   40.413">  1  5  2 -1</clus>
</clustering>
</event>
<event>
 9    1  0.3197504E-005  0.8322925E+02  0.7546771E-02  0.1322110E+00
         -2   -1    0    0    0  501 -0.00000000000E+00  0.00000000000E+00  0.63741612218E+03  0.63741612218E+03  0.00000000000E+00 0.  1.
         21   -1    0    0  501  502  0.00000000000E+00 -0.00000000000E+00 -0.21648529096E+02  0.21648529096E+02  0.00000000000E+00 0.  1.
        -24    2    1    2    0    0 -0.15207368282E+02 -0.72468262551E+01  0.38836155740E+03  0.39689513496E+03  0.80107854505E+02 0.  0.
         23    2    1    2    0    0  0.95238941933E+01  0.46088706465E+02  0.17184617120E+03  0.19414090411E+03  0.77101949842E+02 0.  0.
         13    1    3    3    0    0  0.21780258392E+02 -0.49461261014E+01  0.34501773151E+02  0.41100075056E+02  0.00000000000E+00 0. -1.
        -14    1    3    3    0    0 -0.36987626674E+02 -0.23007001537E+01  0.35385978424E+03  0.35579505991E+03  0.00000000000E+00 0.  1.
        -11    1    4    4    0    0 -0.18492267711E+02 -0.14359783717E+02  0.38101505620E+02  0.44720152997E+02  0.00000000000E+00 0. -1.
         11    1    4    4    0    0  0.28016161905E+02  0.60448490181E+02  0.13374466558E+03  0.14942075112E+03  0.00000000000E+00 0.  1.
         -1    1    1    2    0  502  0.56834740887E+01 -0.38841880210E+02  0.55559864481E+02  0.68028612195E+02  0.00000000000E+00 0.  1.
<scales pt_clust_5="13000.00000" pt_clust_6="13000.00000" pt_clust_7="13000.00000" pt_clust_8="13000.00000" pt_clust_9="39.25549"></scales>
<clustering>
<clus scale="   39.255">  2  9  1 -1</clus>
<clus scale="   77.102">  7  8 -1 -1</clus>
<clus scale="   80.108">  5  6 -1 -1</clus>
<clus scale="   80.340">  2  7  1 -1</clus>
<clus scale="   39.255">  2  5  1 -1</clus>
</clustering>
</event>
<event>
 9    1  0.3197504E-005  0.1015422E+03  0.7546771E-02  0.1282943E+00
         -2   -1    0    0    0  501 -0.00000000000E+00  0.00000000000E+00  0.42424646957E+03  0.42424646957E+03  0.00000000000E+00 0.  1.
         21   -1    0    0  501  502  0.00000000000E+00 -0.00000000000E+00 -0.42373822446E+02  0.42373822446E+02  0.00000000000E+00 0. -1.
        -24    2    1    2    0    0 -0.40261198284E+02 -0.10724445115E+02  0.20686718979E+03  0.22588696819E+03  0.80591006786E+02 0.  0.
         23    2    1    2    0    0  0.28072269689E+02  0.39919018966E+02  0.18051493539E+03  0.20862028175E+03  0.92494322319E+02 0.  0.
         11    1    3    3    0    0 -0.23467728878E+02 -0.66344036264E+01  0.71370948602E+01  0.25410386326E+02  0.00000000000E+00 0. -1.
        -12    1    3    3    0    0 -0.16793469406E+02 -0.40900414883E+01  0.19973009493E+03  0.20047658186E+03  0.00000000000E+00 0.  1.
        -11    1    4    4    0    0  0.24298078375E+02 -0.15082722351E+02  0.13237645186E+03  0.13543046235E+03  0.00000000000E+00 0.  1.
         11    1    4    4    0    0  0.37741913137E+01  0.55001741317E+02  0.48138483530E+02  0.73189819406E+02  0.00000000000E+00 0. -1.
         -1    1    1    2    0  502  0.12188928595E+02 -0.29194573851E+02 -0.55094780545E+01  0.32113042071E+02  0.00000000000E+00 0.  1.
<scales pt_clust_5="13000.00000" pt_clust_6="13000.00000" pt_clust_7="13000.00000" pt_clust_8="13000.00000" pt_clust_9="31.63689"></scales>
<clustering>
<clus scale="   31.637">  2  9  1 -1</clus>
<clus scale="   80.591">  5  6 -1 -1</clus>
<clus scale="   90.832">  1  5  2 -1</clus>
<clus scale="   92.494">  7  8 -1 -1</clus>
<clus scale="   31.637">  2  5  1 -1</clus>
</clustering>
</event>
<event>
 9    1  0.3197504E-005  0.1253952E+03  0.7546771E-02  0.1254297E+00
         21   -1    0    0  501  502  0.00000000000E+00  0.00000000000E+00  0.52692054165E+03  0.52692054165E+03  0.00000000000E+00 0. -1.
          1   -1    0    0  502    0 -0.00000000000E+00 -0.00000000000E+00 -0.37980934251E+03  0.37980934251E+03  0.00000000000E+00 0. -1.
        -24    2    1    2    0    0  0.25166312001E+02 -0.49329634313E+00 -0.34981841677E+03  0.35977235637E+03  0.80185017892E+02 0.  0.
         23    2    1    2    0    0 -0.24045677347E+02 -0.85556333159E+02  0.19411085381E+03  0.23214806598E+03  0.91190022647E+02 0.  0.
         11    1    3    3    0    0  0.35394278449E+02 -0.30004274676E+02 -0.27183770400E+03  0.27576937604E+03  0.00000000000E+00 0. -1.
        -12    1    3    3    0    0 -0.10227966448E+02  0.29510978333E+02 -0.77980712768E+02  0.84002980326E+02  0.00000000000E+00 0.  1.
        -11    1    4    4    0    0 -0.20662563499E+02  0.34242358356E+01  0.28015475001E+01  0.21130915499E+02  0.00000000000E+00 0.  1.
         11    1    4    4    0    0 -0.33831138476E+01 -0.88980568995E+02  0.19130930631E+03  0.21101715048E+03  0.00000000000E+00 0. -1.
          2    1    1    2  501    0 -0.11206346539E+01  0.86049629502E+02  0.30281876211E+03  0.31480946181E+03  0.00000000000E+00 0. -1.
<scales pt_clust_5="13000.00000" pt_clust_6="13000.00000" pt_clust_7="13000.00000" pt_clust_8="13000.00000" pt_clust_9="86.07163"></scales>
<clustering>
<clus scale="   80.185">  5  6 -1 -1</clus>
<clus scale="   84.043">  2  5  1 -1</clus>
<clus scale="   86.072">  1  9  2 -1</clus>
<clus scale="   91.190">  7  8 -1 -1</clus>
<clus scale="   86.072">  1  5  2 -1</clus>
</clustering>
</event>
<event>
 9    1  0.3197504E-005  0.1215809E+03  0.7546771E-02  0.1243434E+00
         21   -1    0    0  501  502  0.00000000000E+00  0.00000000000E+00  0.37623199127E+03  0.37623199127E+03  0.00000000000E+00 0.  1.
          1   -1    0    0  502    0 -0.00000000000E+00 -0.00000000000E+00 -0.16596630133E+03  0.16596630133E+03  0.00000000000E+00 0. -1.
         23    2    1    2    0    0 -0.63197465505E+02  0.75738887178E+02  0.15710560337E+03  0.20618862694E+03  0.90007114124E+02 0.  0.
        -24    2    1    2    0    0  0.49388791762E+02 -0.41477819677E+02  0.17808808843E+03  0.20573493340E+03  0.80323304860E+02 0.  0.
         11    1    4    4    0    0 -0.13477758508E+02 -0.37677432084E+02  0.70924381967E+02  0.81434064250E+02  0.00000000000E+00 0. -1.
        -12    1    4    4    0    0  0.62866550269E+02 -0.38003875930E+01  0.10716370646E+03  0.12430086915E+03  0.00000000000E+00 0.  1.
        -13    1    3    3    0    0 -0.34364578688E+02  0.65059094942E+02  0.37283373778E+02  0.82484301921E+02  0.00000000000E+00 0. -1.
         13    1    3    3    0    0 -0.28832886816E+02  0.10679792236E+02  0.11982222959E+03  0.12370432502E+03  0.00000000000E+00 0.  1.
          2    1    1    2  501    0  0.13808673743E+02 -0.34261067501E+02 -0.12492800186E+03  0.13027473226E+03  0.00000000000E+00 0. -1.
<scales pt_clust_5="13000.00000" pt_clust_6="13000.00000" pt_clust_7="13000.00000" pt_clust_8="13000.00000" pt_clust_9="36.93916"></scales>
<clustering>
<clus scale="   36.939">  1  9  2 -1</clus>
<clus scale="   80.323">  5  6 -1 -1</clus>
<clus scale="   90.007">  7  8 -1 -1</clus>
<clus scale="  114.597">  1  5  2 -1</clus>
<clus scale="   36.939">  1  5  2 -1</clus>
</clustering>
</event>
<event>
 9    1  0.3197504E-005  0.9912773E+02  0.7546771E-02  0.1286472E+00
         21   -1    0    0  501  502  0.00000000000E+00  0.00000000000E+00  0.13506985306E+03  0.13506985306E+03  0.00000000000E+00 0. -1.
         -2   -1    0    0    0  501 -0.00000000000E+00 -0.00000000000E+00 -0.15875846054E+03  0.15875846054E+03  0.00000000000E+00 0.  1.
        -24    2    1    2    0    0  0.39350844798E+02  0.19059293091E+02 -0.10886872915E+03  0.14316919976E+03  0.82056528892E+02 0.  0.
         23    2    1    2    0    0 -0.11204592753E+02 -0.20112684058E+02  0.77501826655E+02  0.12146532424E+03  0.90648932151E+02 0.  0.
         11    1    3    3    0    0  0.86746243159E+01  0.46809292943E+02 -0.37189210514E+02  0.60410234162E+02  0.00000000000E+00 0. -1.
        -12    1    3    3    0    0  0.30676220482E+02 -0.27749999853E+02 -0.71679518638E+02  0.82758965599E+02  0.00000000000E+00 0.  1.
        -13    1    4    4    0    0  0.64515197711E+01 -0.41708500699E+02  0.34633970110E+01  0.42346384223E+02  0.00000000000E+00 0.  1.
         13    1    4    4    0    0 -0.17656112525E+02  0.21595816641E+02  0.74038429644E+02  0.79118940021E+02  0.00000000000E+00 0. -1.
         -1    1    1    2    0  502 -0.28146252044E+02  0.10533909670E+01  0.76782950082E+01  0.29193789595E+02  0.00000000000E+00 0.  1.
<scales pt_clust_5="13000.00000" pt_clust_6="13000.00000" pt_clust_7="13000.00000" pt_clust_8="13000.00000" pt_clust_9="28.16596"></scales>
<clustering>
<clus scale="   28.166">  1  9  2 -1</clus>
<clus scale="   82.057">  5  6 -1 -1</clus>
<clus scale="   90.649">  7  8 -1 -1</clus>
<clus scale="   91.336">  2  5  1 -1</clus>
<clus scale="   28.166">  1  5  2 -1</clus>
</clustering>
</event>
<event>
 9    1  0.3197504E-005  0.9732893E+02  0.7546771E-02  0.1291625E+00
         21   -1    0    0  501  502  0.00000000000E+00  0.00000000000E+00  0.75482397031E+02  0.75482397031E+02  0.00000000000E+00 0.  1.
          3   -1    0    0  502    0 -0.00000000000E+00 -0.00000000000E+00 -0.21622324839E+03  0.21622324839E+03  0.00000000000E+00 0. -1.
         23    2    1    2    0    0  0.25514375081E+02  0.97680835322E+01 -0.13832894121E+03  0.16801967914E+03  0.91374601551E+02 0.  0.
        -24    2    1    2    0    0 -0.47121355043E+02 -0.17427892228E+02 -0.16639846186E+02  0.96705076458E+02  0.80937221369E+02 0.  0.
         13    1    4    4    0    0  0.18923436331E+02  0.10042118955E+02  0.49513378591E+01  0.21987640671E+02  0.00000000000E+00 0. -1.
        -14    1    4    4    0    0 -0.66044791374E+02 -0.27470011183E+02 -0.21591184045E+02  0.74717435786E+02  0.00000000000E+00 0.  1.
        -11    1    3    3    0    0 -0.60251324026E+01  0.21612135781E+02  0.30855589922E+01  0.22647456982E+02  0.00000000000E+00 0.  1.
         11    1    3    3    0    0  0.31539507483E+02 -0.11844052249E+02 -0.14141450020E+03  0.14537222215E+03  0.00000000000E+00 0. -1.
          4    1    1    2  501    0  0.21606979962E+02  0.76598086962E+01  0.14227936034E+02  0.26980889832E+02  0.00000000000E+00 0. -1.
<scales pt_clust_5="13000.00000" pt_clust_6="13000.00000" pt_clust_7="13000.00000" pt_clust_8="13000.00000" pt_clust_9="22.92453"></scales>
<clustering>
<clus scale="   22.925">  1  9  2 -1</clus>
<clus scale="   80.937">  5  6 -1 -1</clus>
<clus scale="   87.604">  1  5  2 -1</clus>
<clus scale="   91.375">  7  8 -1 -1</clus>
<clus scale="   22.925">  1  5  2 -1</clus>
</clustering>
</event>
<event>
 9    1  0.3197504E-005  0.2434583E+03  0.7546771E-02  0.1149163E+00
         21   -1    0    0  501  502  0.00000000000E+00  0.00000000000E+00  0.16465317810E+03  0.16465317810E+03  0.00000000000E+00 0. -1.
          1   -1    0    0  502    0 -0.00000000000E+00 -0.00000000000E+00 -0.63931696280E+03  0.63931696280E+03  0.00000000000E+00 0. -1.
        -24    2    1    2    0    0 -0.16731132908E+02 -0.76102941346E+02 -0.23558419792E+03  0.26102537178E+03  0.81010751854E+02 0.  0.
         23    2    1    2    0    0  0.92104539151E+02 -0.17729642369E+03 -0.81000621407E+02  0.23491660830E+03  0.93313687098E+02 0.  0.
         11    1    3    3    0    0 -0.24377031411E+02 -0.72935659222E+02 -0.23973473960E+03  0.25176694663E+03  0.00000000000E+00 0. -1.
        -12    1    3    3    0    0  0.76458985027E+01 -0.31672821239E+01  0.41505416825E+01  0.92584251481E+01  0.00000000000E+00 0.  1.
        -13    1    4    4    0    0  0.84015651627E+02 -0.14819701129E+03 -0.26219730277E+02  0.17236141718E+03  0.00000000000E+00 0. -1.
         13    1    4    4    0    0  0.80888875238E+01 -0.29099412394E+02 -0.54780891130E+02  0.62555191120E+02  0.00000000000E+00 0.  1.
          2    1    1    2  501    0 -0.75373406243E+02  0.25339936503E+03 -0.15807896537E+03  0.30802816083E+03  0.00000000000E+00 0. -1.
<scales pt_clust_5="13000.00000" pt_clust_6="13000.00000" pt_clust_7="13000.00000" pt_clust_8="13000.00000" pt_clust_9="224.86566"></scales>
<clustering>
<clus scale="   81.011">  5  6 -1 -1</clus>
<clus scale="   93.314">  7  8 -1 -1</clus>
<clus scale="  112.403">  2  5  1 -1</clus>
<clus scale="  224.866">  1  9  2 -1</clus>
<clus scale="  224.866">  1  5  2 -1</clus>
</clustering>
</event>
<event>
 9    1  0.3197504E-005  0.1167821E+03  0.7546771E-02  0.1251438E+00
         21   -1    0    0  501  502  0.00000000000E+00  0.00000000000E+00  0.10113947938E+03  0.10113947938E+03  0.00000000000E+00 0.  1.
         -4   -1    0    0    0  501 -0.00000000000E+00 -0.00000000000E+00 -0.37176438576E+03  0.37176438576E+03  0.00000000000E+00 0.  1.
        -24    2    1    2    0    0  0.76624989162E+02  0.26123407724E+02 -0.22757932370E+03  0.25429956818E+03  0.79511636904E+02 0.  0.
         23    2    1    2    0    0 -0.20384709605E+02 -0.90816479109E+02 -0.21546784328E+02  0.13022805094E+03  0.88498090783E+02 0.  0.
         13    1    3    3    0    0  0.27601467652E+02  0.42100964290E+02 -0.56762470799E+02  0.75870351930E+02  0.00000000000E+00 0. -1.
        -14    1    3    3    0    0  0.49023521510E+02 -0.15977556566E+02 -0.17081685291E+03  0.17842921625E+03  0.00000000000E+00 0.  1.
        -13    1    4    4    0    0 -0.33912359305E+02 -0.16239066182E+02 -0.37135771513E+02  0.52847146659E+02  0.00000000000E+00 0. -1.
         13    1    4    4    0    0  0.13527649700E+02 -0.74577412927E+02  0.15588987186E+02  0.77380904277E+02  0.00000000000E+00 0.  1.
         -3    1    1    2    0  502 -0.56240279557E+02  0.64693071385E+02 -0.21498798345E+02  0.88376246018E+02  0.00000000000E+00 0.  1.
<scales pt_clust_5="13000.00000" pt_clust_6="13000.00000" pt_clust_7="13000.00000" pt_clust_8="13000.00000" pt_clust_9="85.72142"></scales>
<clustering>
<clus scale="   79.512">  5  6 -1 -1</clus>
<clus scale="   85.721">  1  9  2 -1</clus>
<clus scale="   88.498">  7  8 -1 -1</clus>
<clus scale="  110.128">  2  5  1 -1</clus>
<clus scale="   85.721">  1  5  2 -1</clus>
</clustering>
</event>
<event>
 9    1  0.3197504E-005  0.1000116E+03  0.7546771E-02  0.1281904E+00
         21   -1    0    0  501  502  0.00000000000E+00  0.00000000000E+00  0.86855344123E+02  0.86855344123E+02  0.00000000000E+00 0. -1.
         -2   -1    0    0    0  501 -0.00000000000E+00 -0.00000000000E+00 -0.21247788818E+03  0.21247788818E+03  0.00000000000E+00 0.  1.
        -24    2    1    2    0    0  0.13319990581E+02 -0.35893568457E+02 -0.14095050225E+03  0.17388839417E+03  0.94362911863E+02 0.  0.
         23    2    1    2    0    0 -0.85501295370E+01  0.11128089700E+02  0.29141068873E+02  0.96689272776E+02  0.91119012722E+02 0.  0.
         11    1    3    3    0    0  0.38513333149E+02 -0.54400547627E+02 -0.11642777817E+03  0.13415708682E+03  0.00000000000E+00 0. -1.
        -12    1    3    3    0    0 -0.25193342567E+02  0.18506979169E+02 -0.24522724077E+02  0.39731307351E+02  0.00000000000E+00 0.  1.
        -13    1    4    4    0    0  0.77304164315E+01  0.46642167576E+02  0.32661147216E+02  0.57463046142E+02  0.00000000000E+00 0. -1.
         13    1    4    4    0    0 -0.16280545968E+02 -0.35514077876E+02 -0.35200783426E+01  0.39226226634E+02  0.00000000000E+00 0.  1.
         -1    1    1    2    0  502 -0.47698610445E+01  0.24765478757E+02 -0.13813110676E+02  0.28755565357E+02  0.00000000000E+00 0.  1.
<scales pt_clust_5="13000.00000" pt_clust_6="13000.00000" pt_clust_7="13000.00000" pt_clust_8="13000.00000" pt_clust_9="25.22065"></scales>
<clustering>
<clus scale="   25.221">  1  9  2 -1</clus>
<clus scale="   91.119">  7  8 -1 -1</clus>
<clus scale="   94.363">  5  6 -1 -1</clus>
<clus scale="   96.957">  1  7  2 -1</clus>
<clus scale="   25.221">  1  5  2 -1</clus>
</clustering>
</event>
<event>
 9    1  0.3197504E-005  0.1182687E+03  0.7546771E-02  0.1248165E+00
         21   -1    0    0  501  502  0.00000000000E+00  0.00000000000E+00  0.55290847817E+02  0.55290847817E+02  0.00000000000E+00 0. -1.
         -4   -1    0    0    0  501 -0.00000000000E+00 -0.00000000000E+00 -0.37192402318E+03  0.37192402318E+03  0.00000000000E+00 0.  1.
         23    2    1    2    0    0 -0.78752910610E+02 -0.14235044520E+02 -0.24885871626E+03  0.27644824378E+03  0.89935051065E+02 0.  0.
        -24    2    1    2    0    0  0.70201887222E+02 -0.82748589799E+01 -0.46478637707E+02  0.11862121128E+03  0.83150163810E+02 0.  0.
         11    1    4    4    0    0  0.76013338484E+02  0.21025189209E+02 -0.38156220649E+02  0.87612689623E+02  0.00000000000E+00 0. -1.
        -12    1    4    4    0    0 -0.58114512620E+01 -0.29300048189E+02 -0.83224170577E+01  0.31008521657E+02  0.00000000000E+00 0.  1.
        -11    1    3    3    0    0  0.15855457890E+02 -0.19828067338E+02 -0.45941155099E+02  0.52489403989E+02  0.00000000000E+00 0. -1.
         11    1    3    3    0    0 -0.94608368501E+02  0.55930228174E+01 -0.20291756116E+03  0.22395883980E+03  0.00000000000E+00 0.  1.
         -3    1    1    2    0  502  0.85510233886E+01  0.22509903500E+02 -0.21295821389E+02  0.32145415929E+02  0.00000000000E+00 0.  1.
<scales pt_clust_5="13000.00000" pt_clust_6="13000.00000" pt_clust_7="13000.00000" pt_clust_8="13000.00000" pt_clust_9="24.07936"></scales>
<clustering>
<clus scale="   24.079">  1  9  2 -1</clus>
<clus scale="   83.150">  5  6 -1 -1</clus>
<clus scale="   89.935">  7  8 -1 -1</clus>
<clus scale="  113.195">  1  5  2 -1</clus>
<clus scale="   24.079">  1  5  2 -1</clus>
</clustering>
</event>
<event>
 9    1  0.3197504E-005  0.1645669E+03  0.7546771E-02  0.1191086E+00
         21   -1    0    0  501  502  0.00000000000E+00  0.00000000000E+00  0.44070717121E+03  0.44070717121E+03  0.00000000000E+00 0.  1.
         -4   -1    0    0    0  501 -0.00000000000E+00 -0.00000000000E+00 -0.14765302902E+03  0.14765302902E+03  0.00000000000E+00 0.  1.
        -24    2    1    2    0    0 -0.51490624004E+02 -0.10131628405E+03  0.16754204229E+02  0.14048734826E+03  0.80868522240E+02 0.  0.
         23    2    1    2    0    0 -0.11899565633E+03  0.12795284306E+02  0.17507412009E+03  0.23073647690E+03  0.90910333403E+02 0.  0.
         13    1    3    3    0    0 -0.26999055461E+02 -0.48833191041E+00  0.24469572972E+02  0.36441013505E+02  0.00000000000E+00 0. -1.
        -14    1    3    3    0    0 -0.24491568543E+02 -0.10082795214E+03 -0.77153687434E+01  0.10404633476E+03  0.00000000000E+00 0.  1.
        -13    1    4    4    0    0 -0.75416612740E+02  0.50678295740E+02  0.12343348746E+03  0.15327028728E+03  0.00000000000E+00 0.  1.
         13    1    4    4    0    0 -0.43579043587E+02 -0.37883011434E+02  0.51640632639E+02  0.77466189622E+02  0.00000000000E+00 0. -1.
         -3    1    1    2    0  502  0.17048628033E+03  0.88520999742E+02  0.10122581786E+03  0.21713637507E+03  0.00000000000E+00 0.  1.
<scales pt_clust_5="13000.00000" pt_clust_6="13000.00000" pt_clust_7="13000.00000" pt_clust_8="13000.00000" pt_clust_9="137.17726"></scales>
<clustering>
<clus scale="   80.869">  5  6 -1 -1</clus>
<clus scale="   90.910">  7  8 -1 -1</clus>
<clus scale="  139.485">  2  5  1 -1</clus>
<clus scale="  137.177">  1  9  2 -1</clus>
<clus scale="  137.177">  1  5  2 -1</clus>
</clustering>
</event>
<event>
 9    1  0.3197504E-005  0.9983077E+02  0.7546771E-02  0.1286171E+00
          1   -1    0    0  502    0 -0.00000000000E+00  0.00000000000E+00  0.20534912914E+03  0.20534912914E+03  0.00000000000E+00 0. -1.
         21   -1    0    0  501  502  0.00000000000E+00 -0.00000000000E+00 -0.11057677229E+03  0.11057677229E+03  0.00000000000E+00 0.  1.
        -24    2    1    2    0    0  0.80453482853E+01  0.51328807596E+02  0.61260489872E+02  0.11404556642E+03  0.80957825330E+02 0.  0.
         23    2    1    2    0    0  0.11337330736E+02 -0.32893980507E+01 -0.48771805060E+02  0.10464826315E+03  0.91832536742E+02 0.  0.
         13    1    3    3    0    0  0.44065856490E+02  0.26000354164E+02  0.41041386480E+02  0.65591261072E+02  0.00000000000E+00 0. -1.
        -14    1    3    3    0    0 -0.36020508205E+02  0.25328453432E+02  0.20219103392E+02  0.48454305346E+02  0.00000000000E+00 0.  1.
        -11    1    4    4    0    0  0.37108500739E+02  0.12789180989E+02 -0.60475163924E+02  0.72096112441E+02  0.00000000000E+00 0.  1.
         11    1    4    4    0    0 -0.25771170003E+02 -0.16078579040E+02  0.11703358864E+02  0.32552150712E+02  0.00000000000E+00 0. -1.
          2    1    1    2  501    0 -0.19382679021E+02 -0.48039409545E+02  0.82283672038E+02  0.97232071867E+02  0.00000000000E+00 0. -1.
<scales pt_clust_5="13000.00000" pt_clust_6="13000.00000" pt_clust_7="13000.00000" pt_clust_8="13000.00000" pt_clust_9="51.80228"></scales>
<clustering>
<clus scale="   51.802">  2  9  1 -1</clus>
<clus scale="   80.958">  5  6 -1 -1</clus>
<clus scale="   89.929">  1  5  2 -1</clus>
<clus scale="   91.833">  7  8 -1 -1</clus>
<clus scale="   51.802">  2  5  1 -1</clus>
</clustering>
</event>
<event>
 9    1  0.3197504E-005  0.1016085E+03  0.7546771E-02  0.1281341E+00
         21   -1    0    0  501  502  0.00000000000E+00  0.00000000000E+00  0.67070892152E+02  0.67070892152E+02  0.00000000000E+00 0. -1.
          1   -1    0    0  502    0 -0.00000000000E+00 -0.00000000000E+00 -0.25994909555E+03  0.25994909555E+03  0.00000000000E+00 0. -1.
        -24    2    1    2    0    0  0.42014305336E+02  0.29596217928E+02 -0.17738274692E+03  0.20142966746E+03  0.80424710484E+02 0.  0.
         23    2    1    2    0    0 -0.36673128690E+02 -0.39404143676E+01 -0.44658976769E+01  0.97157951516E+02  0.89773481983E+02 0.  0.
         13    1    3    3    0    0 -0.10112108066E+02  0.35722851516E+02 -0.41079848087E+02  0.55370847644E+02  0.00000000000E+00 0. -1.
        -14    1    3    3    0    0  0.52126413402E+02 -0.61266335879E+01 -0.13630289884E+03  0.14605881981E+03  0.00000000000E+00 0.  1.
        -13    1    4    4    0    0 -0.18027659937E+02  0.28383327081E+02  0.30958055489E+02  0.45705699630E+02  0.00000000000E+00 0. -1.
         13    1    4    4    0    0 -0.18645468753E+02 -0.32323741448E+02 -0.35423953166E+02  0.51452251886E+02  0.00000000000E+00 0.  1.
          2    1    1    2  501    0 -0.53411766453E+01 -0.25655803561E+02 -0.11029558796E+02  0.28432368729E+02  0.00000000000E+00 0. -1.
<scales pt_clust_5="13000.00000" pt_clust_6="13000.00000" pt_clust_7="13000.00000" pt_clust_8="13000.00000" pt_clust_9="26.20589"></scales>
<clustering>
<clus scale="   26.206">  1  9  2 -1</clus>
<clus scale="   80.425">  5  6 -1 -1</clus>
<clus scale="   89.773">  7  8 -1 -1</clus>
<clus scale="   93.451">  2  5  1 -1</clus>
<clus scale="   26.206">  1  5  2 -1</clus>
</clustering>
</event>
<event>
 9    1  0.3197504E-005  0.9306589E+02  0.7546771E-02  0.1300835E+00
         -2   -1    0    0    0  501 -0.00000000000E+00  0.00000000000E+00  0.47106980447E+03  0.47106980447E+03  0.00000000000E+00 0.  1.
         21   -1    0    0  501  502  0.00000000000E+00 -0.00000000000E+00 -0.34530847400E+02  0.34530847400E+02  0.00000000000E+00 0. -1.
        -24    2    1    2    0    0  0.16308740098E+02  0.96320653832E+01  0.17062492594E+03  0.19060382035E+03  0.82814245700E+02 0.  0.
         23    2    1    2    0    0 -0.69193564724E+01  0.47875026324E+02  0.12380770605E+03  0.16140831064E+03  0.91566364051E+02 0.  0.
         11    1    3    3    0    0 -0.12864221980E+02  0.32942597771E+02  0.34335684886E+02  0.49291400991E+02  0.00000000000E+00 0. -1.
        -12    1    3    3    0    0  0.29172962077E+02 -0.23310532388E+02  0.13628924105E+03  0.14131241935E+03  0.00000000000E+00 0.  1.
        -13    1    4    4    0    0  0.26068076277E+02  0.18237977012E+02  0.11067810710E+03  0.11515994007E+03  0.00000000000E+00 0.  1.
         13    1    4    4    0    0 -0.32987432750E+02  0.29637049312E+02  0.13129598952E+02  0.46248370566E+02  0.00000000000E+00 0. -1.
         -1    1    1    2    0  502 -0.93893836252E+01 -0.57507091707E+02  0.14210632508E+03  0.15358852089E+03  0.00000000000E+00 0.  1.
<scales pt_clust_5="13000.00000" pt_clust_6="13000.00000" pt_clust_7="13000.00000" pt_clust_8="13000.00000" pt_clust_9="58.26860"></scales>
<clustering>
<clus scale="   58.269">  2  9  1 -1</clus>
<clus scale="   82.814">  5  6 -1 -1</clus>
<clus scale="   84.469">  1  5  2 -1</clus>
<clus scale="   91.566">  7  8 -1 -1</clus>
<clus scale="   58.269">  2  5  1 -1</clus>
</clustering>
</event>
<event>
 9    1  0.3197504E-005  0.9941292E+02  0.7546771E-02  0.1285030E+00
         21   -1    0    0  501  502  0.00000000000E+00  0.00000000000E+00  0.38289029087E+03  0.38289029087E+03  0.00000000000E+00 0. -1.
          1   -1    0    0  502    0 -0.00000000000E+00 -0.00000000000E+00 -0.87949227027E+02  0.87949227027E+02  0.00000000000E+00 0. -1.
        -24    2    1    2    0    0 -0.45820947021E+02 -0.95629383396E+01 -0.50217506873E+02  0.10658396889E+03  0.81531193125E+02 0.  0.
         23    2    1    2    0    0  0.23286433379E+02  0.14652893975E+02  0.26364733180E+03  0.27953368629E+03  0.88725424320E+02 0.  0.
         13    1    3    3    0    0 -0.48900599912E+02  0.27982550965E+02 -0.30139565447E+02  0.63895893730E+02  0.00000000000E+00 0. -1.
        -14    1    3    3    0    0  0.30796528908E+01 -0.37545489304E+02 -0.20077941426E+02  0.42688075160E+02  0.00000000000E+00 0.  1.
        -13    1    4    4    0    0 -0.10716837116E+02  0.32595958975E+02  0.40421790459E+02  0.53021394580E+02  0.00000000000E+00 0. -1.
         13    1    4    4    0    0  0.34003270495E+02 -0.17943065000E+02  0.22322554135E+03  0.22651229171E+03  0.00000000000E+00 0.  1.
          2    1    1    2  501    0  0.22534513642E+02 -0.50899556352E+01  0.81511238916E+02  0.84721862722E+02  0.00000000000E+00 0. -1.
<scales pt_clust_5="13000.00000" pt_clust_6="13000.00000" pt_clust_7="13000.00000" pt_clust_8="13000.00000" pt_clust_9="23.10221"></scales>
<clustering>
<clus scale="   23.102">  1  9  2 -1</clus>
<clus scale="   81.531">  5  6 -1 -1</clus>
<clus scale="   88.725">  7  8 -1 -1</clus>
<clus scale="   93.049">  2  5  1 -1</clus>
<clus scale="   23.102">  1  5  2 -1</clus>
</clustering>
</event>
<event>
 9    1  0.3197504E-005  0.9525513E+02  0.7546771E-02  0.1297315E+00
         21   -1    0    0  501  502  0.00000000000E+00  0.00000000000E+00  0.56536868124E+02  0.56536868124E+02  0.00000000000E+00 0. -1.
          1   -1    0    0  502    0 -0.00000000000E+00 -0.00000000000E+00 -0.39089836032E+03  0.39089836032E+03  0.00000000000E+00 0. -1.
        -24    2    1    2    0    0  0.12697067273E+02 -0.24362177411E+02 -0.25586733837E+03  0.26935464167E+03  0.79555621677E+02 0.  0.
         23    2    1    2    0    0  0.38502978151E+02  0.39123089201E+02 -0.54060551551E+02  0.11946036766E+03  0.91296992136E+02 0.  0.
         13    1    3    3    0    0  0.10770423251E+02 -0.45627128811E+02 -0.23452618821E+03  0.23916598808E+03  0.00000000000E+00 0. -1.
        -14    1    3    3    0    0  0.19266440224E+01  0.21264951400E+02 -0.21341150161E+02  0.30188653588E+02  0.00000000000E+00 0.  1.
        -11    1    4    4    0    0  0.10488895001E+02 -0.26923947672E+02 -0.34692107680E+02  0.45149288055E+02  0.00000000000E+00 0.  1.
         11    1    4    4    0    0  0.28014083149E+02  0.66047036873E+02 -0.19368443871E+02  0.74311079607E+02  0.00000000000E+00 0. -1.
          2    1    1    2  501    0 -0.51200045424E+02 -0.14760911790E+02 -0.24433602275E+02  0.58620219109E+02  0.00000000000E+00 0. -1.
<scales pt_clust_5="13000.00000" pt_clust_6="13000.00000" pt_clust_7="13000.00000" pt_clust_8="13000.00000" pt_clust_9="53.28536"></scales>
<clustering>
<clus scale="   53.285">  1  9  2 -1</clus>
<clus scale="   79.556">  5  6 -1 -1</clus>
<clus scale="   84.068">  2  5  1 -1</clus>
<clus scale="   91.297">  7  8 -1 -1</clus>
<clus scale="   53.285">  1  5  2 -1</clus>
</clustering>
</event>
<event>
 9    1  0.3197504E-005  0.9566807E+02  0.7546771E-02  0.1295402E+00
         21   -1    0    0  501  502  0.00000000000E+00  0.00000000000E+00  0.10702106568E+03  0.10702106568E+03  0.00000000000E+00 0.  1.
         -4   -1    0    0    0  501 -0.00000000000E+00 -0.00000000000E+00 -0.36764567332E+03  0.36764567332E+03  0.00000000000E+00 0.  1.
        -24    2    1    2    0    0 -0.12997553451E+02  0.26480938145E+02 -0.32185110131E+03  0.33330081809E+03  0.81431734901E+02 0.  0.
         23    2    1    2    0    0 -0.16669566994E+02 -0.12113215528E+02  0.39350792556E+02  0.10180437660E+03  0.91602629685E+02 0.  0.
         11    1    3    3    0    0  0.21184542684E+02  0.94281594439E+01 -0.25374967076E+02  0.34373885339E+02  0.00000000000E+00 0. -1.
        -12    1    3    3    0    0 -0.34182096135E+02  0.17052778701E+02 -0.29647613423E+03  0.29892693275E+03  0.00000000000E+00 0.  1.
        -13    1    4    4    0    0 -0.49109710720E+02 -0.29289839979E+02  0.24412983664E+02  0.62174369192E+02  0.00000000000E+00 0.  1.
         13    1    4    4    0    0  0.32440143725E+02  0.17176624451E+02  0.14937808892E+02  0.39630007405E+02  0.00000000000E+00 0. -1.
         -3    1    1    2    0  502  0.29667120446E+02 -0.14367722617E+02  0.21875701119E+02  0.39561544310E+02  0.00000000000E+00 0.  1.
<scales pt_clust_5="13000.00000" pt_clust_6="13000.00000" pt_clust_7="13000.00000" pt_clust_8="13000.00000" pt_clust_9="32.96315"></scales>
<clustering>
<clus scale="   32.963">  1  9  2 -1</clus>
<clus scale="   81.432">  5  6 -1 -1</clus>
<clus scale="   85.979">  2  5  1 -1</clus>
<clus scale="   91.603">  7  8 -1 -1</clus>
<clus scale="   32.963">  1  5  2 -1</clus>
</clustering>
</event>
<event>
 9    1  0.3197504E-005  0.3449805E+03  0.7546771E-02  0.1119836E+00
         -4   -1    0    0    0  501 -0.00000000000E+00  0.00000000000E+00  0.28421906507E+03  0.28421906507E+03  0.00000000000E+00 0.  1.
         21   -1    0    0  501  502  0.00000000000E+00 -0.00000000000E+00 -0.55205577904E+03  0.55205577904E+03  0.00000000000E+00 0.  1.
        -24    2    1    2    0    0 -0.52460294178E+01 -0.84894926397E+01 -0.69853153033E+02  0.10675005155E+03  0.80103172266E+02 0.  0.
         23    2    1    2    0    0 -0.16371724654E+03 -0.28542031390E+03 -0.18946744534E+03  0.39040226718E+03  0.90818087247E+02 0.  0.
         11    1    3    3    0    0 -0.26278050893E+02  0.28832229184E+01 -0.77309553762E+02  0.81704443184E+02  0.00000000000E+00 0. -1.
        -12    1    3    3    0    0  0.21032021475E+02 -0.11372715558E+02  0.74564007295E+01  0.25045608364E+02  0.00000000000E+00 0.  1.
        -13    1    4    4    0    0 -0.17124099344E+03 -0.23728891252E+03 -0.16182203030E+03  0.33438880862E+03  0.00000000000E+00 0.  1.
         13    1    4    4    0    0  0.75237469086E+01 -0.48131401380E+02 -0.27645415045E+02  0.56013458556E+02  0.00000000000E+00 0. -1.
         -3    1    1    2    0  502  0.16896327595E+03  0.29390980654E+03 -0.85161156000E+01  0.33912252539E+03  0.00000000000E+00 0.  1.
<scales pt_clust_5="13000.00000" pt_clust_6="13000.00000" pt_clust_7="13000.00000" pt_clust_8="13000.00000" pt_clust_9="332.81186"></scales>
<clustering>
<clus scale="   80.103">  5  6 -1 -1</clus>
<clus scale="   80.722">  1  5  2 -1</clus>
<clus scale="   90.818">  7  8 -1 -1</clus>
<clus scale="  332.812">  2  9  1 -1</clus>
<clus scale="  332.812">  2  5  1 -1</clus>
</clustering>
</event>
<event>
 9    1  0.3197504E-005  0.1048114E+03  0.7546771E-02  0.1274198E+00
         21   -1    0    0  501  502  0.00000000000E+00  0.00000000000E+00  0.51736441463E+03  0.51736441463E+03  0.00000000000E+00 0. -1.
          1   -1    0    0  502    0 -0.00000000000E+00 -0.00000000000E+00 -0.12708113275E+03  0.12708113275E+03  0.00000000000E+00 0. -1.
        -24    2    1    2    0    0  0.39867903192E+02 -0.41644429114E+02 -0.80739752895E+02  0.12753661586E+03  0.80143449549E+02 0.  0.
         23    2    1    2    0    0 -0.63263472722E+02 -0.41170400204E+01  0.12016933168E+03  0.16231086934E+03  0.88797145387E+02 0.  0.
         11    1    3    3    0    0  0.88367042287E+01 -0.46658158990E+02 -0.83419492351E+02  0.95988972524E+02  0.00000000000E+00 0. -1.
        -12    1    3    3    0    0  0.31031198963E+02  0.50137298763E+01  0.26797394562E+01  0.31547643334E+02  0.00000000000E+00 0.  1.
        -13    1    4    4    0    0 -0.57385705337E+02 -0.37818984885E+02  0.52498523190E+02  0.86484043221E+02  0.00000000000E+00 0. -1.
         13    1    4    4    0    0 -0.58777673853E+01  0.33701944864E+02  0.67670808489E+02  0.75826826114E+02  0.00000000000E+00 0.  1.
          2    1    1    2  501    0  0.23395569530E+02  0.45761469134E+02  0.35085370309E+03  0.35459806219E+03  0.00000000000E+00 0. -1.
<scales pt_clust_5="13000.00000" pt_clust_6="13000.00000" pt_clust_7="13000.00000" pt_clust_8="13000.00000" pt_clust_9="51.39518"></scales>
<clustering>
<clus scale="   51.395">  1  9  2 -1</clus>
<clus scale="   80.143">  5  6 -1 -1</clus>
<clus scale="   88.797">  7  8 -1 -1</clus>
<clus scale="   97.588">  2  5  1 -1</clus>
<clus scale="   51.395">  1  5  2 -1</clus>
</clustering>
</event>
<event>
 9    1  0.3197504E-005  0.1051799E+03  0.7546771E-02  0.1275287E+00
         -2   -1    0    0    0  501 -0.00000000000E+00  0.00000000000E+00  0.15113676961E+03  0.15113676961E+03  0.00000000000E+00 0.  1.
         21   -1    0    0  501  502  0.00000000000E+00 -0.00000000000E+00 -0.22893145419E+03  0.22893145419E+03  0.00000000000E+00 0.  1.
        -24    2    1    2    0    0  0.61364050839E+02 -0.27395856363E+02  0.68497695482E+02  0.12448593531E+03  0.79301539214E+02 0.  0.
         23    2    1    2    0    0 -0.16052697015E+02 -0.59128918728E+02 -0.61682760303E+02  0.12635983206E+03  0.91695834853E+02 0.  0.
         13    1    3    3    0    0 -0.39940536151E+01 -0.33375094118E+02  0.65679996464E+01  0.34248912261E+02  0.00000000000E+00 0. -1.
        -14    1    3    3    0    0  0.65358104454E+02  0.59792377555E+01  0.61929695836E+02  0.90237023046E+02  0.00000000000E+00 0.  1.
        -11    1    4    4    0    0  0.29374766121E+02  0.34707903817E+01 -0.31832448366E+02  0.43453745977E+02  0.00000000000E+00 0.  1.
         11    1    4    4    0    0 -0.45427463136E+02 -0.62599709109E+02 -0.29850311937E+02  0.82906086087E+02  0.00000000000E+00 0. -1.
         -1    1    1    2    0  502 -0.45311353824E+02  0.86524775090E+02 -0.84609619753E+02  0.12922245643E+03  0.00000000000E+00 0.  1.
<scales pt_clust_5="13000.00000" pt_clust_6="13000.00000" pt_clust_7="13000.00000" pt_clust_8="13000.00000" pt_clust_9="97.67116"></scales>
<clustering>
<clus scale="   79.302">  5  6 -1 -1</clus>
<clus scale="   91.696">  7  8 -1 -1</clus>
<clus scale="   97.671">  2  9  1 -1</clus>
<clus scale="   94.570">  1  5  2 -1</clus>
<clus scale="   97.671">  2  5  1 -1</clus>
</clustering>
</event>
<event>
 9    1  0.3197504E-005  0.9296159E+02  0.7546771E-02  0.1297479E+00
         -2   -1    0    0    0  501 -0.00000000000E+00  0.00000000000E+00  0.73641494831E+02  0.73641494831E+02  0.00000000000E+00 0.  1.
         21   -1    0    0  501  502  0.00000000000E+00 -0.00000000000E+00 -0.31929808959E+03  0.31929808959E+03  0.00000000000E+00 0. -1.
        -24    2    1    2    0    0  0.27381632872E+01 -0.81687593262E+01  0.88745568691E+01  0.89166183365E+02  0.88304158051E+02 0.  0.
         23    2    1    2    0    0  0.13016384017E+02  0.51312592240E+02 -0.11101426436E+03  0.15308599943E+03  0.91152333781E+02 0.  0.
         13    1    3    3    0    0  0.27412743968E+02  0.31440696326E+02  0.27376129371E+00  0.41713916893E+02  0.00000000000E+00 0. -1.
        -14    1    3    3    0    0 -0.24674580680E+02 -0.39609455652E+02  0.86007955754E+01  0.47452266472E+02  0.00000000000E+00 0.  1.
        -11    1    4    4    0    0 -0.36002789411E+02  0.14835701315E+02 -0.20855454389E+02  0.44172942585E+02  0.00000000000E+00 0.  1.
         11    1    4    4    0    0  0.49019173428E+02  0.36476890925E+02 -0.90158809972E+02  0.10891305684E+03  0.00000000000E+00 0. -1.
         -1    1    1    2    0  502 -0.15754547304E+02 -0.43143832914E+02 -0.14351688726E+03  0.15068740163E+03  0.00000000000E+00 0.  1.
<scales pt_clust_5="13000.00000" pt_clust_6="13000.00000" pt_clust_7="13000.00000" pt_clust_8="13000.00000" pt_clust_9="45.93034"></scales>
<clustering>
<clus scale="   45.930">  2  9  1 -1</clus>
<clus scale="   88.304">  5  6 -1 -1</clus>
<clus scale="   90.171">  1  5  2 -1</clus>
<clus scale="   91.152">  7  8 -1 -1</clus>
<clus scale="   45.930">  2  5  1 -1</clus>
</clustering>
</event>
