<event>
 9    1  0.2423659E-006  0.2629599E+03  0.7546771E-02  0.1137415E+00
          2   -1    0    0  502    0  0.00000000000E+00  0.00000000000E+00  0.73129240521E+03  0.73129240521E+03  0.00000000000E+00 0. -1.
         -2   -1    0    0    0  501 -0.00000000000E+00 -0.00000000000E+00 -0.33019525398E+03  0.33019525398E+03  0.00000000000E+00 0.  1.
         23    2    1    2    0    0  0.58309279873E+02  0.46079679548E+02 -0.12190986293E+03  0.16982560469E+03  0.91953316110E+02 0.  0.
         23    2    1    2    0    0 -0.69661184962E+02  0.23201821429E+03  0.55416494778E+03  0.61159398932E+03  0.90902618067E+02 0.  0.
        -11    1    3    3    0    0  0.60837555526E+02  0.11712460503E+00 -0.31819684216E+02  0.68656494115E+02  0.00000000000E+00 0.  1.
         11    1    3    3    0    0 -0.25282756531E+01  0.45962554943E+02 -0.90090178714E+02  0.10116911058E+03  0.00000000000E+00 0. -1.
        -13    1    4    4    0    0 -0.17613840021E+02  0.53486609981E+02  0.54175677402E+02  0.78141338801E+02  0.00000000000E+00 0.  1.
         13    1    4    4    0    0 -0.52047344940E+02  0.17853160430E+03  0.49998927038E+03  0.53345265052E+03  0.00000000000E+00 0. -1.
         21    1    1    2  502  501  0.11351905089E+02 -0.27809789383E+03 -0.31157933617E+02  0.28006806518E+03  0.00000000000E+00 0.  1.
<scales pt_clust_5="13000.00000" pt_clust_6="13000.00000" pt_clust_7="13000.00000" pt_clust_8="13000.00000" pt_clust_9="246.74812"></scales>
<clustering>
<clus scale="   90.903">  7  8 -1 -1</clus>
<clus scale="   91.953">  5  6 -1 -1</clus>
<clus scale="  118.232">  2  5  1 -1</clus>
<clus scale="  246.748">  2  9  1 -1</clus>
<clus scale="  262.960">  1  5  2 -1</clus>
</clustering>
</event>
<event>
 9    1  0.2423659E-006  0.9726125E+02  0.7546771E-02  0.1287199E+00
         -1   -1    0    0    0  501 -0.00000000000E+00  0.00000000000E+00  0.19074225258E+03  0.19074225258E+03  0.00000000000E+00 0.  1.
          1   -1    0    0  502    0  0.00000000000E+00 -0.00000000000E+00 -0.27794051194E+03  0.27794051194E+03  0.00000000000E+00 0. -1.
         23    2    1    2    0    0  0.37444068044E+02  0.92956527221E+01  0.14177678130E+03  0.17202708446E+03  0.89466165001E+02 0.  0.
         23    2    1    2    0    0 -0.55989649476E+01  0.34940134610E+02 -0.22072039029E+03  0.24152805790E+03  0.91466664145E+02 0.  0.
        -11    1    4    4    0    0  0.42476255472E+02  0.89836316229E+01 -0.95181867350E+02  0.10461608762E+03  0.00000000000E+00 0.  1.
         11    1    4    4    0    0 -0.48075220420E+02  0.25956502987E+02 -0.12553852294E+03  0.13691197029E+03  0.00000000000E+00 0. -1.
        -13    1    3    3    0    0  0.56023931397E+02  0.30170826852E+02  0.12261478506E+03  0.13814248151E+03  0.00000000000E+00 0.  1.
         13    1    3    3    0    0 -0.18579863353E+02 -0.20875174130E+02  0.19161996243E+02  0.33884602952E+02  0.00000000000E+00 0. -1.
         21    1    1    2  502  501 -0.31845103097E+02 -0.44235787332E+02 -0.82546503657E+01  0.55127622158E+02  0.00000000000E+00 0. -1.
<scales pt_clust_5="13000.00000" pt_clust_6="13000.00000" pt_clust_7="13000.00000" pt_clust_8="13000.00000" pt_clust_9="54.50610"></scales>
<clustering>
<clus scale="   54.506">  1  9  2 -1</clus>
<clus scale="   89.466">  7  8 -1 -1</clus>
<clus scale="   91.467">  5  6 -1 -1</clus>
<clus scale="   95.382">  1  7  2 -1</clus>
<clus scale="   97.261">  2  5  1 -1</clus>
</clustering>
</event>
<event>
 9    1  0.2423659E-006  0.1062437E+03  0.7546771E-02  0.1274187E+00
          1   -1    0    0  502    0  0.00000000000E+00  0.00000000000E+00  0.22676864827E+03  0.22676864827E+03  0.00000000000E+00 0. -1.
         -1   -1    0    0    0  501 -0.00000000000E+00 -0.00000000000E+00 -0.77530966085E+02  0.77530966085E+02  0.00000000000E+00 0.  1.
         23    2    1    2    0    0 -0.11874198472E+02 -0.20193225448E+02  0.52084822484E+01  0.10485724847E+03  0.10207424419E+03 0.  0.
         23    2    1    2    0    0 -0.68761402611E+01  0.45684080410E+02  0.80850007210E+02  0.12878141993E+03  0.88958495633E+02 0.  0.
        -13    1    4    4    0    0 -0.57395323633E+01 -0.21551767676E+02 -0.16305587535E+01  0.22362460589E+02  0.00000000000E+00 0.  1.
         13    1    4    4    0    0 -0.11366078978E+01  0.67235848086E+02  0.82480565964E+02  0.10641895934E+03  0.00000000000E+00 0. -1.
        -13    1    3    3    0    0 -0.47524389815E+01 -0.39666592741E+02  0.44885265644E+02  0.60089194768E+02  0.00000000000E+00 0.  1.
         13    1    3    3    0    0 -0.71217594906E+01  0.19473367293E+02 -0.39676783396E+02  0.44768053706E+02  0.00000000000E+00 0. -1.
         21    1    1    2  502  501  0.18750338733E+02 -0.25490854962E+02  0.63179192731E+02  0.70660945956E+02  0.00000000000E+00 0.  1.
<scales pt_clust_5="13000.00000" pt_clust_6="13000.00000" pt_clust_7="13000.00000" pt_clust_8="13000.00000" pt_clust_9="31.64426"></scales>
<clustering>
<clus scale="   31.644">  1  9  2 -1</clus>
<clus scale="   88.958">  5  6 -1 -1</clus>
<clus scale="   93.713">  1  5  2 -1</clus>
<clus scale="  102.074">  7  8 -1 -1</clus>
<clus scale="   31.644">  1  5  2 -1</clus>
</clustering>
</event>
<event>
 9    1  0.2423659E-006  0.1446270E+03  0.7546771E-02  0.1229098E+00
          2   -1    0    0  502    0  0.00000000000E+00  0.00000000000E+00  0.12048492218E+04  0.12048492218E+04  0.00000000000E+00 0. -1.
         -2   -1    0    0    0  501 -0.00000000000E+00 -0.00000000000E+00 -0.85422728460E+02  0.85422728460E+02  0.00000000000E+00 0.  1.
         23    2    1    2    0    0  0.34052097276E+01  0.22792985527E+02  0.13138152069E+03  0.15996432701E+03  0.88297034455E+02 0.  0.
         23    2    1    2    0    0 -0.10463040813E+02 -0.14565262620E+03  0.32470803376E+02  0.16684184946E+03  0.73876159323E+02 0.  0.
        -11    1    4    4    0    0 -0.35856235221E+02 -0.11232110264E+03  0.76802677219E+01  0.11815534781E+03  0.00000000000E+00 0.  1.
         11    1    4    4    0    0  0.25393194408E+02 -0.33331523559E+02  0.24790535654E+02  0.48686501651E+02  0.00000000000E+00 0. -1.
        -11    1    3    3    0    0 -0.38968170688E+01 -0.30940178405E+02  0.22917287008E+02  0.38699894919E+02  0.00000000000E+00 0.  1.
         11    1    3    3    0    0  0.73020267964E+01  0.53733163932E+02  0.10846423368E+03  0.12126443209E+03  0.00000000000E+00 0. -1.
         21    1    1    2  502  501  0.70578310855E+01  0.12285964067E+03  0.95557416923E+03  0.96346577375E+03  0.00000000000E+00 0. -1.
<scales pt_clust_5="13000.00000" pt_clust_6="13000.00000" pt_clust_7="13000.00000" pt_clust_8="13000.00000" pt_clust_9="124.33538"></scales>
<clustering>
<clus scale="   73.876">  5  6 -1 -1</clus>
<clus scale="   88.297">  7  8 -1 -1</clus>
<clus scale="   91.255">  2  7  1 -1</clus>
<clus scale="  124.335">  1  9  2 -1</clus>
<clus scale="  124.335">  1  5  2 -1</clus>
</clustering>
</event>
<event>
 9    1  0.2423659E-006  0.2126097E+03  0.7546771E-02  0.1170472E+00
         -2   -1    0    0    0  501 -0.00000000000E+00  0.00000000000E+00  0.17803525894E+03  0.17803525894E+03  0.00000000000E+00 0.  1.
          2   -1    0    0  502    0  0.00000000000E+00 -0.00000000000E+00 -0.62997675834E+03  0.62997675834E+03  0.00000000000E+00 0. -1.
         23    2    1    2    0    0  0.43825860580E+02 -0.18013759152E+02  0.87846589170E+01  0.10312606978E+03  0.91173540362E+02 0.  0.
         23    2    1    2    0    0  0.12589845565E+03 -0.85373629601E+02  0.25094515013E+02  0.17998879348E+03  0.92882470505E+02 0.  0.
        -11    1    3    3    0    0  0.26914283631E+02  0.15115911356E+02  0.42767125565E+02  0.52743686528E+02  0.00000000000E+00 0. -1.
         11    1    3    3    0    0  0.16911576950E+02 -0.33129670508E+02 -0.33982466648E+02  0.50382383254E+02  0.00000000000E+00 0.  1.
        -11    1    4    4    0    0  0.48630433205E+02  0.74231010135E+01  0.32577948994E+02  0.59002917072E+02  0.00000000000E+00 0. -1.
         11    1    4    4    0    0  0.77268022445E+02 -0.92796730615E+02 -0.74834339807E+01  0.12098587641E+03  0.00000000000E+00 0.  1.
         21    1    1    2  502  501 -0.16972431623E+03  0.10338738875E+03 -0.48582067332E+03  0.52489715402E+03  0.00000000000E+00 0. -1.
<scales pt_clust_5="13000.00000" pt_clust_6="13000.00000" pt_clust_7="13000.00000" pt_clust_8="13000.00000" pt_clust_9="191.24787"></scales>
<clustering>
<clus scale="   91.174">  5  6 -1 -1</clus>
<clus scale="   92.882">  7  8 -1 -1</clus>
<clus scale="  102.751">  1  5  2 -1</clus>
<clus scale="  191.248">  2  9  1 -1</clus>
<clus scale="  191.248">  2  5  1 -1</clus>
</clustering>
</event>
<event>
 9    1  0.2423659E-006  0.1280946E+03  0.7546771E-02  0.1237573E+00
          1   -1    0    0  502    0  0.00000000000E+00  0.00000000000E+00  0.17720717454E+03  0.17720717454E+03  0.00000000000E+00 0. -1.
         -1   -1    0    0    0  501 -0.00000000000E+00 -0.00000000000E+00 -0.46708376497E+03  0.46708376497E+03  0.00000000000E+00 0.  1.
         23    2    1    2    0    0 -0.59279257502E+02  0.44075445910E+00 -0.87811853712E+02  0.14103548243E+03  0.93090606500E+02 0.  0.
         23    2    1    2    0    0 -0.70054031316E+02 -0.48624854269E+02  0.10698806718E+03  0.16478471584E+03  0.91845589442E+02 0.  0.
        -13    1    3    3    0    0  0.64249223271E+01 -0.24997319761E+02  0.31245641903E+01  0.25998240778E+02  0.00000000000E+00 0. -1.
         13    1    3    3    0    0 -0.65704179829E+02  0.25438074220E+02 -0.90936417902E+02  0.11503724166E+03  0.00000000000E+00 0.  1.
        -13    1    4    4    0    0 -0.23749300280E+02 -0.13412021511E+02 -0.13911556223E+02  0.30617690660E+02  0.00000000000E+00 0.  1.
         13    1    4    4    0    0 -0.46304731036E+02 -0.35212832757E+02  0.12089962341E+03  0.13416702518E+03  0.00000000000E+00 0. -1.
         21    1    1    2  502  501  0.12933328882E+03  0.48184099809E+02 -0.30905280390E+03  0.33847074123E+03  0.00000000000E+00 0.  1.
<scales pt_clust_5="13000.00000" pt_clust_6="13000.00000" pt_clust_7="13000.00000" pt_clust_8="13000.00000" pt_clust_9="89.28949"></scales>
<clustering>
<clus scale="   91.846">  7  8 -1 -1</clus>
<clus scale="   93.091">  5  6 -1 -1</clus>
<clus scale="  110.363">  2  5  1 -1</clus>
<clus scale="   89.289">  2  9  1 -1</clus>
<clus scale="  128.095">  1  5  2 -1</clus>
</clustering>
</event>
<event>
 9    1  0.2423659E-006  0.1043242E+03  0.7546771E-02  0.1272335E+00
          1   -1    0    0  502    0  0.00000000000E+00  0.00000000000E+00  0.11319622614E+03  0.11319622614E+03  0.00000000000E+00 0. -1.
         -1   -1    0    0    0  501 -0.00000000000E+00 -0.00000000000E+00 -0.19565694972E+03  0.19565694972E+03  0.00000000000E+00 0.  1.
         23    2    1    2    0    0 -0.28891014188E+02  0.27371379677E+02 -0.90854491793E+02  0.13608004419E+03  0.93163064679E+02 0.  0.
         23    2    1    2    0    0  0.71751854474E+02 -0.49872676898E+01 -0.18237538388E+02  0.11757053580E+03  0.91197706230E+02 0.  0.
        -13    1    3    3    0    0  0.28570838826E+02  0.25865096347E+02 -0.16067106823E+02  0.41754616055E+02  0.00000000000E+00 0.  1.
         13    1    3    3    0    0 -0.57461853015E+02  0.15062833295E+01 -0.74787384970E+02  0.94325428131E+02  0.00000000000E+00 0. -1.
        -13    1    4    4    0    0  0.41741155949E+02  0.19205816278E+02 -0.49793346879E+02  0.67753707443E+02  0.00000000000E+00 0.  1.
         13    1    4    4    0    0  0.30010698524E+02 -0.24193083967E+02  0.31555808490E+02  0.49816828354E+02  0.00000000000E+00 0. -1.
         21    1    1    2  502  501 -0.42860840285E+02 -0.22384111987E+02  0.26631306601E+02  0.55202595869E+02  0.00000000000E+00 0. -1.
<scales pt_clust_5="13000.00000" pt_clust_6="13000.00000" pt_clust_7="13000.00000" pt_clust_8="13000.00000" pt_clust_9="48.35390"></scales>
<clustering>
<clus scale="   48.354">  1  9  2 -1</clus>
<clus scale="   91.198">  7  8 -1 -1</clus>
<clus scale="   93.163">  5  6 -1 -1</clus>
<clus scale="  102.573">  1  7  2 -1</clus>
<clus scale="   48.354">  1  5  2 -1</clus>
</clustering>
</event>
<event>
 9    1  0.2423659E-006  0.9805061E+02  0.7546771E-02  0.1287103E+00
          1   -1    0    0  502    0  0.00000000000E+00  0.00000000000E+00  0.42079488325E+03  0.42079488325E+03  0.00000000000E+00 0. -1.
         -1   -1    0    0    0  501 -0.00000000000E+00 -0.00000000000E+00 -0.52543487971E+02  0.52543487971E+02  0.00000000000E+00 0.  1.
         23    2    1    2    0    0  0.50924332965E+01  0.38144686896E+02  0.18301873471E+03  0.20824581494E+03  0.91594280219E+02 0.  0.
         23    2    1    2    0    0 -0.54004619750E+01  0.19600885820E+01  0.20018625800E+03  0.22228954267E+03  0.96462925276E+02 0.  0.
        -11    1    4    4    0    0  0.43957585832E+02  0.67177607409E+01  0.12040354066E+03  0.12835267923E+03  0.00000000000E+00 0. -1.
         11    1    4    4    0    0 -0.49358047807E+02 -0.47576721588E+01  0.79782717342E+02  0.93936863447E+02  0.00000000000E+00 0.  1.
        -13    1    3    3    0    0 -0.15155130104E+02 -0.22669410601E+02  0.22329030634E+02  0.35244371955E+02  0.00000000000E+00 0.  1.
         13    1    3    3    0    0  0.20247563401E+02  0.60814097496E+02  0.16068970408E+03  0.17300144298E+03  0.00000000000E+00 0. -1.
         21    1    1    2  502  501  0.30802867846E+00 -0.40104775478E+02 -0.14953597434E+02  0.42803013609E+02  0.00000000000E+00 0.  1.
<scales pt_clust_5="13000.00000" pt_clust_6="13000.00000" pt_clust_7="13000.00000" pt_clust_8="13000.00000" pt_clust_9="40.10596"></scales>
<clustering>
<clus scale="   40.106">  2  9  1 -1</clus>
<clus scale="   91.594">  7  8 -1 -1</clus>
<clus scale="   93.265">  2  7  1 -1</clus>
<clus scale="   96.463">  5  6 -1 -1</clus>
<clus scale="   98.051">  1  5  2 -1</clus>
</clustering>
</event>
<event>
 9    1  0.2423659E-006  0.1015283E+03  0.7546771E-02  0.1277727E+00
          1   -1    0    0  502    0  0.00000000000E+00  0.00000000000E+00  0.20626038654E+03  0.20626038654E+03  0.00000000000E+00 0. -1.
         -1   -1    0    0    0  501 -0.00000000000E+00 -0.00000000000E+00 -0.93861439283E+02  0.93861439283E+02  0.00000000000E+00 0.  1.
         23    2    1    2    0    0 -0.31275006682E+02  0.50354570626E+02  0.51865400094E+02  0.12097328897E+03  0.91819431987E+02 0.  0.
         23    2    1    2    0    0 -0.30497321857E+02 -0.31047872004E+02  0.47065616507E+02  0.11304290668E+03  0.93109986027E+02 0.  0.
        -11    1    4    4    0    0 -0.93534698396E+01  0.28540622181E+02  0.39116104990E+02  0.49316571070E+02  0.00000000000E+00 0.  1.
         11    1    4    4    0    0 -0.21143852018E+02 -0.59588494186E+02  0.79495115175E+01  0.63726335614E+02  0.00000000000E+00 0. -1.
        -11    1    3    3    0    0 -0.11432721937E+02  0.47552482942E+02 -0.15010826014E+02  0.51159267611E+02  0.00000000000E+00 0.  1.
         11    1    3    3    0    0 -0.19842284745E+02  0.28020876839E+01  0.66876226108E+02  0.69814021355E+02  0.00000000000E+00 0. -1.
         21    1    1    2  502  501  0.61772328539E+02 -0.19306698621E+02  0.13467930658E+02  0.66105630176E+02  0.00000000000E+00 0. -1.
<scales pt_clust_5="13000.00000" pt_clust_6="13000.00000" pt_clust_7="13000.00000" pt_clust_8="13000.00000" pt_clust_9="64.71916"></scales>
<clustering>
<clus scale="   64.719">  2  9  1 -1</clus>
<clus scale="   91.819">  7  8 -1 -1</clus>
<clus scale="   93.110">  5  6 -1 -1</clus>
<clus scale="  100.346">  2  7  1 -1</clus>
<clus scale="  101.528">  1  5  2 -1</clus>
</clustering>
</event>
<event>
 9    1  0.2423659E-006  0.1440793E+03  0.7546771E-02  0.1226879E+00
         -1   -1    0    0    0  501 -0.00000000000E+00  0.00000000000E+00  0.40913369769E+02  0.40913369769E+02  0.00000000000E+00 0.  1.
          1   -1    0    0  502    0  0.00000000000E+00 -0.00000000000E+00 -0.80595554464E+03  0.80595554464E+03  0.00000000000E+00 0. -1.
         23    2    1    2    0    0 -0.19856117811E+02 -0.23602120150E+02 -0.13632517233E+03  0.16710484746E+03  0.91586854649E+02 0.  0.
         23    2    1    2    0    0 -0.94065118693E+02 -0.25768068076E+02 -0.33555544988E+03  0.36139453391E+03  0.92175426782E+02 0.  0.
        -11    1    4    4    0    0 -0.83572095488E+01  0.30522768700E+02 -0.77326024264E+02  0.83551160310E+02  0.00000000000E+00 0.  1.
         11    1    4    4    0    0 -0.85707909144E+02 -0.56290836776E+02 -0.25822942562E+03  0.27784337360E+03  0.00000000000E+00 0. -1.
        -13    1    3    3    0    0 -0.13405145207E+02  0.35000137654E+02 -0.58353787616E+02  0.69353241330E+02  0.00000000000E+00 0.  1.
         13    1    3    3    0    0 -0.64509726046E+01 -0.58602257804E+02 -0.77971384713E+02  0.97751606132E+02  0.00000000000E+00 0. -1.
         21    1    1    2  502  501  0.11392123650E+03  0.49370188226E+02 -0.29316155265E+03  0.31836953304E+03  0.00000000000E+00 0.  1.
<scales pt_clust_5="13000.00000" pt_clust_6="13000.00000" pt_clust_7="13000.00000" pt_clust_8="13000.00000" pt_clust_9="110.73639"></scales>
<clustering>
<clus scale="   91.587">  7  8 -1 -1</clus>
<clus scale="   92.175">  5  6 -1 -1</clus>
<clus scale="   96.641">  1  7  2 -1</clus>
<clus scale="  110.736">  1  9  2 -1</clus>
<clus scale="  144.079">  2  5  1 -1</clus>
</clustering>
</event>
<event>
 9    1  0.2423659E-006  0.9430261E+02  0.7546771E-02  0.1294065E+00
          4   -1    0    0  502    0  0.00000000000E+00  0.00000000000E+00  0.27290845962E+03  0.27290845962E+03  0.00000000000E+00 0. -1.
         -4   -1    0    0    0  501 -0.00000000000E+00 -0.00000000000E+00 -0.97503514947E+02  0.97503514947E+02  0.00000000000E+00 0.  1.
         23    2    1    2    0    0  0.88901125106E+01 -0.20661761269E+02 -0.27763414244E+02  0.99852277295E+02  0.93240161044E+02 0.  0.
         23    2    1    2    0    0 -0.10913204725E+02 -0.13743604351E+02  0.21501612655E+03  0.23411533305E+03  0.90939924079E+02 0.  0.
        -11    1    3    3    0    0 -0.42189702239E+02 -0.49856366427E+01 -0.12456342256E+02  0.44271751830E+02  0.00000000000E+00 0. -1.
         11    1    3    3    0    0  0.51079814749E+02 -0.15676124626E+02 -0.15307071988E+02  0.55580525465E+02  0.00000000000E+00 0.  1.
        -11    1    4    4    0    0  0.30310377353E+02 -0.16656963493E+02  0.16797901508E+03  0.17150254492E+03  0.00000000000E+00 0. -1.
         11    1    4    4    0    0 -0.41223582078E+02  0.29133591418E+01  0.47037111476E+02  0.62612788125E+02  0.00000000000E+00 0.  1.
         21    1    1    2  502  501  0.20230922141E+01  0.34405365620E+02 -0.11847767639E+02  0.36444364222E+02  0.00000000000E+00 0.  1.
<scales pt_clust_5="13000.00000" pt_clust_6="13000.00000" pt_clust_7="13000.00000" pt_clust_8="13000.00000" pt_clust_9="34.46479"></scales>
<clustering>
<clus scale="   34.465">  2  9  1 -1</clus>
<clus scale="   90.940">  7  8 -1 -1</clus>
<clus scale="   92.029">  1  7  2 -1</clus>
<clus scale="   93.240">  5  6 -1 -1</clus>
<clus scale="   92.029">  1  5  2 -1</clus>
</clustering>
</event>
<event>
 9    1  0.2423659E-006  0.9964319E+02  0.7546771E-02  0.1281549E+00
         -1   -1    0    0    0  501 -0.00000000000E+00  0.00000000000E+00  0.16062306317E+03  0.16062306317E+03  0.00000000000E+00 0.  1.
          1   -1    0    0  502    0  0.00000000000E+00 -0.00000000000E+00 -0.31275103518E+03  0.31275103518E+03  0.00000000000E+00 0. -1.
         23    2    1    2    0    0 -0.31157061181E+01 -0.32255393179E+02  0.98697681841E+02  0.13977094196E+03  0.93512383146E+02 0.  0.
         23    2    1    2    0    0 -0.23788044285E+02  0.40758927311E+02 -0.26053029377E+02  0.10706650463E+03  0.92505755864E+02 0.  0.
        -11    1    4    4    0    0 -0.13664415201E+02 -0.27628661302E+02 -0.21896270484E+02  0.37808806240E+02  0.00000000000E+00 0. -1.
         11    1    4    4    0    0 -0.10123629084E+02  0.68387588613E+02 -0.41567588932E+01  0.69257698393E+02  0.00000000000E+00 0.  1.
        -13    1    3    3    0    0  0.21679060749E+02 -0.45908402781E+02  0.17370908913E+02  0.53659217263E+02  0.00000000000E+00 0. -1.
         13    1    3    3    0    0 -0.24794766867E+02  0.13653009602E+02  0.81326772928E+02  0.86111724696E+02  0.00000000000E+00 0.  1.
         21    1    1    2  502  501  0.26903750403E+02 -0.85035341315E+01 -0.22477262447E+03  0.22653665176E+03  0.00000000000E+00 0. -1.
<scales pt_clust_5="13000.00000" pt_clust_6="13000.00000" pt_clust_7="13000.00000" pt_clust_8="13000.00000" pt_clust_9="28.21563"></scales>
<clustering>
<clus scale="   28.216">  2  9  1 -1</clus>
<clus scale="   92.506">  5  6 -1 -1</clus>
<clus scale="   93.512">  7  8 -1 -1</clus>
<clus scale="   98.699">  2  5  1 -1</clus>
<clus scale="   28.216">  2  5  1 -1</clus>
</clustering>
</event>
<event>
 9    1  0.2423659E-006  0.1044858E+03  0.7546771E-02  0.1273863E+00
          1   -1    0    0  502    0  0.00000000000E+00  0.00000000000E+00  0.53737188493E+03  0.53737188493E+03  0.00000000000E+00 0. -1.
         -1   -1    0    0    0  501 -0.00000000000E+00 -0.00000000000E+00 -0.44178852181E+02  0.44178852181E+02  0.00000000000E+00 0.  1.
         23    2    1    2    0    0 -0.31392777257E+02 -0.19467895390E+02  0.83228368202E+02  0.12628923450E+03  0.87507165782E+02 0.  0.
         23    2    1    2    0    0  0.10689201064E+02  0.82705409524E+02  0.21028303081E+03  0.24478495733E+03  0.93521540318E+02 0.  0.
        -13    1    4    4    0    0  0.37822331395E+02  0.79865534074E+01  0.11136821094E+03  0.11788635288E+03  0.00000000000E+00 0. -1.
         13    1    4    4    0    0 -0.27133130331E+02  0.74718856117E+02  0.98914819876E+02  0.12689860445E+03  0.00000000000E+00 0.  1.
        -13    1    3    3    0    0 -0.39265753482E+02  0.22229155781E+02  0.18228200138E+02  0.48664176182E+02  0.00000000000E+00 0.  1.
         13    1    3    3    0    0  0.78729762245E+01 -0.41697051172E+02  0.65000168064E+02  0.77625058321E+02  0.00000000000E+00 0. -1.
         21    1    1    2  502  501  0.20703576193E+02 -0.63237514134E+02  0.19968163373E+03  0.21047654527E+03  0.00000000000E+00 0. -1.
<scales pt_clust_5="13000.00000" pt_clust_6="13000.00000" pt_clust_7="13000.00000" pt_clust_8="13000.00000" pt_clust_9="66.54037"></scales>
<clustering>
<clus scale="   66.540">  1  9  2 -1</clus>
<clus scale="   87.507">  7  8 -1 -1</clus>
<clus scale="   93.522">  5  6 -1 -1</clus>
<clus scale="   99.139">  2  7  1 -1</clus>
<clus scale="   66.540">  1  5  2 -1</clus>
</clustering>
</event>
<event>
 9    1  0.2423659E-006  0.1061202E+03  0.7546771E-02  0.1270873E+00
         -1   -1    0    0    0  501 -0.00000000000E+00  0.00000000000E+00  0.37571271385E+02  0.37571271385E+02  0.00000000000E+00 0.  1.
          1   -1    0    0  502    0  0.00000000000E+00 -0.00000000000E+00 -0.48432599906E+03  0.48432599906E+03  0.00000000000E+00 0. -1.
         23    2    1    2    0    0 -0.35100484865E+02  0.33557474000E+01 -0.10506397104E+03  0.14585912917E+03  0.94832180585E+02 0.  0.
         23    2    1    2    0    0  0.67012696678E+02 -0.26397235015E+01 -0.18111318149E+03  0.21231868735E+03  0.88201875441E+02 0.  0.
        -11    1    4    4    0    0  0.25695235440E+02  0.36874727474E+02 -0.12230164479E+03  0.13029843810E+03  0.00000000000E+00 0. -1.
         11    1    4    4    0    0  0.41317461237E+02 -0.39514450975E+02 -0.58811536698E+02  0.82020249254E+02  0.00000000000E+00 0.  1.
        -13    1    3    3    0    0 -0.44634404637E+02 -0.37532741819E+02 -0.51507135708E+02  0.77806952225E+02  0.00000000000E+00 0.  1.
         13    1    3    3    0    0  0.95339197719E+01  0.40888489219E+02 -0.53556835327E+02  0.68052176946E+02  0.00000000000E+00 0. -1.
         21    1    1    2  502  501 -0.31912211813E+02 -0.71602389853E+00 -0.16057757514E+03  0.16371945392E+03  0.00000000000E+00 0.  1.
<scales pt_clust_5="13000.00000" pt_clust_6="13000.00000" pt_clust_7="13000.00000" pt_clust_8="13000.00000" pt_clust_9="31.92024"></scales>
<clustering>
<clus scale="   31.920">  2  9  1 -1</clus>
<clus scale="   88.202">  5  6 -1 -1</clus>
<clus scale="   94.832">  7  8 -1 -1</clus>
<clus scale="  100.239">  2  5  1 -1</clus>
<clus scale="   31.920">  2  5  1 -1</clus>
</clustering>
</event>
<event>
 9    1  0.2423659E-006  0.1411872E+03  0.7546771E-02  0.1212731E+00
         -3   -1    0    0    0  501 -0.00000000000E+00  0.00000000000E+00  0.13327266590E+03  0.13327266590E+03  0.00000000000E+00 0.  1.
          3   -1    0    0  502    0  0.00000000000E+00 -0.00000000000E+00 -0.51848967484E+03  0.51848967484E+03  0.00000000000E+00 0. -1.
         23    2    1    2    0    0  0.89902503718E+02 -0.38482751492E+02  0.59217062635E+02  0.14812041608E+03  0.94178632475E+02 0.  0.
         23    2    1    2    0    0 -0.13905214263E+03 -0.62090851242E+01 -0.32138944376E+03  0.36380978352E+03  0.98449646592E+02 0.  0.
        -13    1    4    4    0    0 -0.10682221309E+03  0.25629891955E+02 -0.28584035325E+03  0.30622309534E+03  0.00000000000E+00 0. -1.
         13    1    4    4    0    0 -0.32229929538E+02 -0.31838977079E+02 -0.35549090511E+02  0.57586688181E+02  0.00000000000E+00 0.  1.
        -13    1    3    3    0    0  0.53633916865E+02 -0.66304242466E+02  0.19307871385E+02  0.87439370450E+02  0.00000000000E+00 0.  1.
         13    1    3    3    0    0  0.36268586853E+02  0.27821490974E+02  0.39909191249E+02  0.60681045628E+02  0.00000000000E+00 0. -1.
         21    1    1    2  502  501  0.49149638910E+02  0.44691836616E+02 -0.12304462781E+03  0.13983214115E+03  0.00000000000E+00 0. -1.
<scales pt_clust_5="13000.00000" pt_clust_6="13000.00000" pt_clust_7="13000.00000" pt_clust_8="13000.00000" pt_clust_9="66.43077"></scales>
<clustering>
<clus scale="   66.431">  2  9  1 -1</clus>
<clus scale="   94.179">  7  8 -1 -1</clus>
<clus scale="   98.450">  5  6 -1 -1</clus>
<clus scale="  138.243">  1  7  2 -1</clus>
<clus scale="   66.431">  2  5  1 -1</clus>
</clustering>
</event>
<event>
 9    1  0.2423659E-006  0.1595721E+03  0.7546771E-02  0.1214563E+00
         -2   -1    0    0    0  501 -0.00000000000E+00  0.00000000000E+00  0.85318477329E+02  0.85318477329E+02  0.00000000000E+00 0.  1.
          2   -1    0    0  502    0  0.00000000000E+00 -0.00000000000E+00 -0.44147628216E+03  0.44147628216E+03  0.00000000000E+00 0. -1.
         23    2    1    2    0    0  0.13921469900E+03  0.39891240856E+02 -0.11454790907E+03  0.20546402899E+03  0.90123250178E+02 0.  0.
         23    2    1    2    0    0 -0.32097353438E+02  0.99708737087E+01 -0.86575412939E+02  0.12640498295E+03  0.85751146756E+02 0.  0.
        -13    1    4    4    0    0 -0.99620461315E+01 -0.37627081013E+02 -0.44573251953E+02  0.59176130140E+02  0.00000000000E+00 0. -1.
         13    1    4    4    0    0 -0.22135307306E+02  0.47597954722E+02 -0.42002160986E+02  0.67228852815E+02  0.00000000000E+00 0.  1.
        -13    1    3    3    0    0  0.21504990361E+02  0.46329545713E+02 -0.22106372367E+02  0.55655935134E+02  0.00000000000E+00 0.  1.
         13    1    3    3    0    0  0.11770970864E+03 -0.64383048570E+01 -0.92441536702E+02  0.14980809386E+03  0.00000000000E+00 0. -1.
         21    1    1    2  502  501 -0.10711734557E+03 -0.49862114565E+02 -0.15503448283E+03  0.19492574754E+03  0.00000000000E+00 0.  1.
<scales pt_clust_5="13000.00000" pt_clust_6="13000.00000" pt_clust_7="13000.00000" pt_clust_8="13000.00000" pt_clust_9="131.68547"></scales>
<clustering>
<clus scale="   85.751">  5  6 -1 -1</clus>
<clus scale="   90.123">  7  8 -1 -1</clus>
<clus scale="   92.103">  2  5  1 -1</clus>
<clus scale="  131.685">  2  9  1 -1</clus>
<clus scale="   92.103">  2  5  1 -1</clus>
</clustering>
</event>
<event>
 9    1  0.2423659E-006  0.9430101E+02  0.7546771E-02  0.1294386E+00
         -2   -1    0    0    0  501 -0.00000000000E+00  0.00000000000E+00  0.17571334860E+03  0.17571334860E+03  0.00000000000E+00 0.  1.
          2   -1    0    0  502    0  0.00000000000E+00 -0.00000000000E+00 -0.10133975612E+03  0.10133975612E+03  0.00000000000E+00 0. -1.
         23    2    1    2    0    0  0.44972771083E+02  0.97937969408E+01  0.34152082277E+02  0.10866986947E+03  0.92327174810E+02 0.  0.
         23    2    1    2    0    0  0.64379007877E+01 -0.18155268476E+02 -0.14719294617E+02  0.92676806050E+02  0.89449831780E+02 0.  0.
        -11    1    4    4    0    0 -0.39897778028E+02  0.35097762360E+01 -0.10179920281E+02  0.41325319088E+02  0.00000000000E+00 0.  1.
         11    1    4    4    0    0  0.46335678816E+02 -0.21665044712E+02 -0.45393743362E+01  0.51351486961E+02  0.00000000000E+00 0. -1.
        -13    1    3    3    0    0 -0.67607450234E+00 -0.37062207738E+02  0.64301819739E+01  0.37621955815E+02  0.00000000000E+00 0. -1.
         13    1    3    3    0    0  0.45648845586E+02  0.46856004679E+02  0.27721900303E+02  0.71047913651E+02  0.00000000000E+00 0.  1.
         21    1    1    2  502  501 -0.51410671871E+02  0.83614715357E+01  0.54940804821E+02  0.75706429204E+02  0.00000000000E+00 0.  1.
<scales pt_clust_5="13000.00000" pt_clust_6="13000.00000" pt_clust_7="13000.00000" pt_clust_8="13000.00000" pt_clust_9="52.08619"></scales>
<clustering>
<clus scale="   52.086">  1  9  2 -1</clus>
<clus scale="   89.450">  5  6 -1 -1</clus>
<clus scale="   91.486">  2  5  1 -1</clus>
<clus scale="   92.327">  7  8 -1 -1</clus>
<clus scale="   91.486">  2  5  1 -1</clus>
</clustering>
</event>
<event>
 9    1  0.2423659E-006  0.1618951E+03  0.7546771E-02  0.1203241E+00
          1   -1    0    0  502    0  0.00000000000E+00  0.00000000000E+00  0.12640596437E+04  0.12640596437E+04  0.00000000000E+00 0. -1.
         -1   -1    0    0    0  501 -0.00000000000E+00 -0.00000000000E+00 -0.10148445868E+03  0.10148445868E+03  0.00000000000E+00 0.  1.
         23    2    1    2    0    0 -0.52329310897E+02 -0.42282358266E+02 -0.34401412824E+02  0.11751471100E+03  0.90000530539E+02 0.  0.
         23    2    1    2    0    0  0.55397448679E+02 -0.99655159160E+02  0.24186104911E+03  0.28242005849E+03  0.90908164075E+02 0.  0.
        -11    1    4    4    0    0  0.76840758505E+02 -0.89861686337E+02  0.17224519533E+03  0.20892111466E+03  0.00000000000E+00 0.  1.
         11    1    4    4    0    0 -0.21443309826E+02 -0.97934728233E+01  0.69615853782E+02  0.73498943830E+02  0.00000000000E+00 0. -1.
        -13    1    3    3    0    0 -0.73408243493E+02 -0.19031711269E+02 -0.39840489820E+02  0.85663532939E+02  0.00000000000E+00 0.  1.
         13    1    3    3    0    0  0.21078932596E+02 -0.23250646997E+02  0.54390769962E+01  0.31851178059E+02  0.00000000000E+00 0. -1.
         21    1    1    2  502  501 -0.30681377821E+01  0.14193751743E+03  0.95511554875E+03  0.96560933290E+03  0.00000000000E+00 0. -1.
<scales pt_clust_5="13000.00000" pt_clust_6="13000.00000" pt_clust_7="13000.00000" pt_clust_8="13000.00000" pt_clust_9="133.96169"></scales>
<clustering>
<clus scale="   90.001">  7  8 -1 -1</clus>
<clus scale="   90.908">  5  6 -1 -1</clus>
<clus scale="  112.367">  2  7  1 -1</clus>
<clus scale="  133.962">  1  9  2 -1</clus>
<clus scale="  133.962">  1  5  2 -1</clus>
</clustering>
</event>
<event>
 9    1  0.2423659E-006  0.1228017E+03  0.7546771E-02  0.1250907E+00
         -1   -1    0    0    0  501 -0.00000000000E+00  0.00000000000E+00  0.16521518948E+03  0.16521518948E+03  0.00000000000E+00 0.  1.
          1   -1    0    0  502    0  0.00000000000E+00 -0.00000000000E+00 -0.10232609794E+03  0.10232609794E+03  0.00000000000E+00 0. -1.
         23    2    1    2    0    0 -0.39408211827E+02 -0.20282656006E+02  0.63012171391E+02  0.14126294117E+03  0.11840731189E+03 0.  0.
         23    2    1    2    0    0  0.65972013998E+01  0.23372087534E+02  0.19822508879E+01  0.93255030095E+02  0.90015519647E+02 0.  0.
        -11    1    4    4    0    0  0.11952738505E+02 -0.17675771001E+02 -0.32838218778E+02  0.39161836662E+02  0.00000000000E+00 0.  1.
         11    1    4    4    0    0 -0.53555371051E+01  0.41047858535E+02  0.34820469666E+02  0.54093193433E+02  0.00000000000E+00 0. -1.
        -11    1    3    3    0    0 -0.29134461619E+02  0.26964714114E+02  0.80572719700E+02  0.89821355038E+02  0.00000000000E+00 0.  1.
         11    1    3    3    0    0 -0.10273750207E+02 -0.47247370120E+02 -0.17560548309E+02  0.51441586129E+02  0.00000000000E+00 0. -1.
         21    1    1    2  502  501  0.32811010427E+02 -0.30894315279E+01 -0.21053307470E+01  0.33023316156E+02  0.00000000000E+00 0. -1.
<scales pt_clust_5="13000.00000" pt_clust_6="13000.00000" pt_clust_7="13000.00000" pt_clust_8="13000.00000" pt_clust_9="32.95614"></scales>
<clustering>
<clus scale="   32.956">  2  9  1 -1</clus>
<clus scale="   90.016">  5  6 -1 -1</clus>
<clus scale="   95.722">  2  5  1 -1</clus>
<clus scale="  118.407">  7  8 -1 -1</clus>
<clus scale="   32.956">  2  5  1 -1</clus>
</clustering>
</event>
<event>
 9    1  0.2423659E-006  0.1117328E+03  0.7546771E-02  0.1258005E+00
         -2   -1    0    0    0  501 -0.00000000000E+00  0.00000000000E+00  0.44589995025E+02  0.44589995025E+02  0.00000000000E+00 0.  1.
          2   -1    0    0  502    0  0.00000000000E+00 -0.00000000000E+00 -0.56789023524E+03  0.56789023524E+03  0.00000000000E+00 0. -1.
         23    2    1    2    0    0 -0.12112858200E+02 -0.89674998611E+02 -0.30711315402E+03  0.33257393313E+03  0.89992249204E+02 0.  0.
         23    2    1    2    0    0  0.26154816914E+02  0.39067855408E+02 -0.20212720719E+03  0.22553774238E+03  0.88326063991E+02 0.  0.
        -11    1    4    4    0    0  0.20107610762E+02 -0.27005664628E+02 -0.65042418505E+02  0.73240276744E+02  0.00000000000E+00 0.  1.
         11    1    4    4    0    0  0.60472061513E+01  0.66073520036E+02 -0.13708478868E+03  0.15229746564E+03  0.00000000000E+00 0. -1.
        -11    1    3    3    0    0 -0.43037826332E+02 -0.21632766483E+02 -0.78981482265E+02  0.92511110803E+02  0.00000000000E+00 0.  1.
         11    1    3    3    0    0  0.30924968132E+02 -0.68042232128E+02 -0.22813167175E+03  0.24006282233E+03  0.00000000000E+00 0. -1.
         21    1    1    2  502  501 -0.14041958714E+02  0.50607143203E+02 -0.14059879006E+02  0.54368554748E+02  0.00000000000E+00 0.  1.
<scales pt_clust_5="13000.00000" pt_clust_6="13000.00000" pt_clust_7="13000.00000" pt_clust_8="13000.00000" pt_clust_9="52.51914"></scales>
<clustering>
<clus scale="   52.519">  1  9  2 -1</clus>
<clus scale="   88.326">  5  6 -1 -1</clus>
<clus scale="   89.992">  7  8 -1 -1</clus>
<clus scale="  110.395">  2  5  1 -1</clus>
<clus scale="  110.395">  2  5  1 -1</clus>
</clustering>
</event>
<event>
 9    1  0.2423659E-006  0.9399832E+02  0.7546771E-02  0.1300703E+00
          1   -1    0    0  502    0  0.00000000000E+00  0.00000000000E+00  0.19162550364E+03  0.19162550364E+03  0.00000000000E+00 0. -1.
         -1   -1    0    0    0  501 -0.00000000000E+00 -0.00000000000E+00 -0.10194230660E+03  0.10194230660E+03  0.00000000000E+00 0.  1.
         23    2    1    2    0    0  0.12156141362E+02 -0.70246301966E+01 -0.51898399549E+02  0.10764465562E+03  0.93256693091E+02 0.  0.
         23    2    1    2    0    0 -0.10487738382E+02 -0.22780107884E+02  0.76983833216E+02  0.11476152862E+03  0.81331248008E+02 0.  0.
        -11    1    3    3    0    0 -0.30155973792E+02  0.24247003076E+02 -0.35558127512E+02  0.52551692130E+02  0.00000000000E+00 0.  1.
         11    1    3    3    0    0  0.42312115154E+02 -0.31271633272E+02 -0.16340272037E+02  0.55092963494E+02  0.00000000000E+00 0. -1.
        -11    1    4    4    0    0  0.20186360081E+02 -0.19167646202E+02  0.79048371993E+02  0.83806520683E+02  0.00000000000E+00 0. -1.
         11    1    4    4    0    0 -0.30674098463E+02 -0.36124616818E+01 -0.20645387767E+01  0.30955007936E+02  0.00000000000E+00 0.  1.
         21    1    1    2  502  501 -0.16684029799E+01  0.29804738081E+02  0.64597763378E+02  0.71161625994E+02  0.00000000000E+00 0.  1.
<scales pt_clust_5="13000.00000" pt_clust_6="13000.00000" pt_clust_7="13000.00000" pt_clust_8="13000.00000" pt_clust_9="29.85140"></scales>
<clustering>
<clus scale="   29.851">  1  9  2 -1</clus>
<clus scale="   81.331">  7  8 -1 -1</clus>
<clus scale="   82.181">  1  7  2 -1</clus>
<clus scale="   93.257">  5  6 -1 -1</clus>
<clus scale="   29.851">  1  5  2 -1</clus>
</clustering>
</event>
<event>
 9    1  0.2423659E-006  0.1206412E+03  0.7546771E-02  0.1250665E+00
          1   -1    0    0  502    0  0.00000000000E+00  0.00000000000E+00  0.75870836483E+03  0.75870836483E+03  0.00000000000E+00 0. -1.
         -1   -1    0    0    0  501 -0.00000000000E+00 -0.00000000000E+00 -0.44978978635E+02  0.44978978635E+02  0.00000000000E+00 0.  1.
         23    2    1    2    0    0 -0.37792529838E+02 -0.59701510035E+02  0.95982497761E+02  0.15141377831E+03  0.93386009523E+02 0.  0.
         23    2    1    2    0    0 -0.59471995901E+02  0.17748684271E+02  0.25704923515E+03  0.27634375170E+03  0.80247278599E+02 0.  0.
        -11    1    3    3    0    0  0.27781717242E+02 -0.31489654458E+02  0.54667929749E+02  0.68934785804E+02  0.00000000000E+00 0. -1.
         11    1    3    3    0    0 -0.65574247080E+02 -0.28211855577E+02  0.41314568012E+02  0.82478992509E+02  0.00000000000E+00 0.  1.
        -11    1    4    4    0    0 -0.18946449065E+02 -0.32040018684E+02  0.97476146156E+02  0.10434140980E+03  0.00000000000E+00 0. -1.
         11    1    4    4    0    0 -0.40525546836E+02  0.49788702955E+02  0.15957308899E+03  0.17200234190E+03  0.00000000000E+00 0.  1.
         21    1    1    2  502  501  0.97264525739E+02  0.41952825764E+02  0.36069765328E+03  0.37592981345E+03  0.00000000000E+00 0. -1.
<scales pt_clust_5="13000.00000" pt_clust_6="13000.00000" pt_clust_7="13000.00000" pt_clust_8="13000.00000" pt_clust_9="76.37646"></scales>
<clustering>
<clus scale="   80.247">  7  8 -1 -1</clus>
<clus scale="   93.386">  5  6 -1 -1</clus>
<clus scale="  101.447">  1  7  2 -1</clus>
<clus scale="   76.376">  1  9  2 -1</clus>
<clus scale="  101.447">  1  5  2 -1</clus>
</clustering>
</event>
<event>
 9    1  0.2423659E-006  0.1273287E+03  0.7546771E-02  0.1233425E+00
          1   -1    0    0  502    0  0.00000000000E+00  0.00000000000E+00  0.14304828661E+03  0.14304828661E+03  0.00000000000E+00 0. -1.
         -1   -1    0    0    0  501 -0.00000000000E+00 -0.00000000000E+00 -0.22818070506E+03  0.22818070506E+03  0.00000000000E+00 0.  1.
         23    2    1    2    0    0 -0.16158947537E+02 -0.96850929256E+02 -0.10856349361E+03  0.17271154769E+03  0.91662601301E+02 0.  0.
         23    2    1    2    0    0 -0.22380333065E+02  0.58997837511E+02 -0.32050795868E+02  0.12108120753E+03  0.98243478975E+02 0.  0.
        -11    1    3    3    0    0 -0.24477215466E+02 -0.53325344540E+02 -0.11385373666E+03  0.12808356569E+03  0.00000000000E+00 0. -1.
         11    1    3    3    0    0  0.83182679287E+01 -0.43525584716E+02  0.52902430503E+01  0.44627982004E+02  0.00000000000E+00 0.  1.
        -11    1    4    4    0    0 -0.18566843431E+02  0.85071775516E+02 -0.11848153758E+02  0.87876694361E+02  0.00000000000E+00 0. -1.
         11    1    4    4    0    0 -0.38134896337E+01 -0.26073938005E+02 -0.20202642110E+02  0.33204513165E+02  0.00000000000E+00 0.  1.
         21    1    1    2  502  501  0.38539280602E+02  0.37853091745E+02  0.55481871029E+02  0.77436236459E+02  0.00000000000E+00 0. -1.
<scales pt_clust_5="13000.00000" pt_clust_6="13000.00000" pt_clust_7="13000.00000" pt_clust_8="13000.00000" pt_clust_9="54.01974"></scales>
<clustering>
<clus scale="   54.020">  1  9  2 -1</clus>
<clus scale="   91.663">  5  6 -1 -1</clus>
<clus scale="   98.243">  7  8 -1 -1</clus>
<clus scale="  122.323">  2  5  1 -1</clus>
<clus scale="   54.020">  1  5  2 -1</clus>
</clustering>
</event>
<event>
 9    1  0.2423659E-006  0.9837459E+02  0.7546771E-02  0.1286546E+00
         -2   -1    0    0    0  501 -0.00000000000E+00  0.00000000000E+00  0.33706807254E+02  0.33706807254E+02  0.00000000000E+00 0.  1.
          2   -1    0    0  502    0  0.00000000000E+00 -0.00000000000E+00 -0.51393032101E+03  0.51393032101E+03  0.00000000000E+00 0. -1.
         23    2    1    2    0    0 -0.21907080553E+01 -0.35097346090E+02 -0.72271548761E+02  0.11747875122E+03  0.85682304617E+02 0.  0.
         23    2    1    2    0    0 -0.29061658235E+02  0.41876298845E+02 -0.31259093562E+03  0.32957810799E+03  0.91161570017E+02 0.  0.
        -11    1    4    4    0    0  0.98582537448E+01  0.60211005123E+02 -0.19746969768E+03  0.20668050660E+03  0.00000000000E+00 0. -1.
         11    1    4    4    0    0 -0.38919911979E+02 -0.18334706278E+02 -0.11512123794E+03  0.12289760139E+03  0.00000000000E+00 0.  1.
        -11    1    3    3    0    0 -0.14084632341E+02 -0.14271348281E+02  0.16222875823E+02  0.25792052069E+02  0.00000000000E+00 0.  1.
         11    1    3    3    0    0  0.11893924286E+02 -0.20825997809E+02 -0.88494424584E+02  0.91686699156E+02  0.00000000000E+00 0. -1.
         21    1    1    2  502  501  0.31252366290E+02 -0.67789527546E+01 -0.95361029374E+02  0.10058026905E+03  0.00000000000E+00 0. -1.
<scales pt_clust_5="13000.00000" pt_clust_6="13000.00000" pt_clust_7="13000.00000" pt_clust_8="13000.00000" pt_clust_9="31.97913"></scales>
<clustering>
<clus scale="   31.979">  2  9  1 -1</clus>
<clus scale="   85.682">  7  8 -1 -1</clus>
<clus scale="   91.162">  5  6 -1 -1</clus>
<clus scale="   93.320">  1  7  2 -1</clus>
<clus scale="   31.979">  2  5  1 -1</clus>
</clustering>
</event>
<event>
 9    1  0.2423659E-006  0.4231818E+03  0.7546771E-02  0.1060650E+00
          1   -1    0    0  502    0  0.00000000000E+00  0.00000000000E+00  0.12450540047E+04  0.12450540047E+04  0.00000000000E+00 0. -1.
         -1   -1    0    0    0  501 -0.00000000000E+00 -0.00000000000E+00 -0.25786683102E+03  0.25786683102E+03  0.00000000000E+00 0.  1.
         23    2    1    2    0    0 -0.45301682452E+03  0.30267471007E+02  0.35698003306E+03  0.58463221212E+03  0.90662651297E+02 0.  0.
         23    2    1    2    0    0  0.10039637207E+03  0.15980130902E+03  0.41217346781E+03  0.46221186788E+03  0.90205062779E+02 0.  0.
        -11    1    3    3    0    0 -0.12263279043E+03  0.44930002175E+02  0.12403990447E+03  0.18012052711E+03  0.00000000000E+00 0. -1.
         11    1    3    3    0    0 -0.33038403409E+03 -0.14662531168E+02  0.23294012859E+03  0.40451168501E+03  0.00000000000E+00 0.  1.
        -11    1    4    4    0    0  0.14685559950E+02  0.67935743873E+02  0.74337081121E+02  0.10176901589E+03  0.00000000000E+00 0.  1.
         11    1    4    4    0    0  0.85710812122E+02  0.91865565144E+02  0.33783638669E+03  0.36044285198E+03  0.00000000000E+00 0. -1.
         21    1    1    2  502  501  0.35262045245E+03 -0.19006878002E+03  0.21803367280E+03  0.45607675571E+03  0.00000000000E+00 0. -1.
<scales pt_clust_5="13000.00000" pt_clust_6="13000.00000" pt_clust_7="13000.00000" pt_clust_8="13000.00000" pt_clust_9="413.35588"></scales>
<clustering>
<clus scale="   90.205">  7  8 -1 -1</clus>
<clus scale="   90.663">  5  6 -1 -1</clus>
<clus scale="  209.172">  1  7  2 -1</clus>
<clus scale="  413.356">  2  9  1 -1</clus>
<clus scale="  209.172">  1  5  2 -1</clus>
</clustering>
</event>
<event>
 9    1  0.2423659E-006  0.1368877E+03  0.7546771E-02  0.1217772E+00
          2   -1    0    0  502    0  0.00000000000E+00  0.00000000000E+00  0.25029587058E+03  0.25029587058E+03  0.00000000000E+00 0. -1.
         -2   -1    0    0    0  501 -0.00000000000E+00 -0.00000000000E+00 -0.32712073679E+03  0.32712073679E+03  0.00000000000E+00 0.  1.
         23    2    1    2    0    0  0.10117639324E+03 -0.36513948705E+02 -0.26507627293E+03  0.30066104121E+03  0.92529456031E+02 0.  0.
         23    2    1    2    0    0 -0.22188091294E+02  0.68344014055E+02  0.12345097351E+03  0.16974434690E+03  0.91704878768E+02 0.  0.
        -11    1    4    4    0    0 -0.11761519860E+02  0.90745105674E+02  0.10193284804E+03  0.13697924318E+03  0.00000000000E+00 0.  1.
         11    1    4    4    0    0 -0.10426571434E+02 -0.22401091619E+02  0.21518125473E+02  0.32765103715E+02  0.00000000000E+00 0. -1.
        -11    1    3    3    0    0  0.90461519989E+02 -0.81421792107E+01 -0.11002327332E+03  0.14266990696E+03  0.00000000000E+00 0.  1.
         11    1    3    3    0    0  0.10714873251E+02 -0.28371769495E+02 -0.15505299961E+03  0.15799113425E+03  0.00000000000E+00 0. -1.
         21    1    1    2  502  501 -0.78988301946E+02 -0.31830065349E+02  0.64800433208E+02  0.10701121926E+03  0.00000000000E+00 0. -1.
<scales pt_clust_5="13000.00000" pt_clust_6="13000.00000" pt_clust_7="13000.00000" pt_clust_8="13000.00000" pt_clust_9="85.16047"></scales>
<clustering>
<clus scale="   85.160">  1  9  2 -1</clus>
<clus scale="   91.705">  5  6 -1 -1</clus>
<clus scale="   92.529">  7  8 -1 -1</clus>
<clus scale="  136.332">  1  5  2 -1</clus>
<clus scale="   85.160">  1  5  2 -1</clus>
</clustering>
</event>
<event>
 9    1  0.2423659E-006  0.1040529E+03  0.7546771E-02  0.1275539E+00
         -1   -1    0    0    0  501 -0.00000000000E+00  0.00000000000E+00  0.87288593178E+02  0.87288593178E+02  0.00000000000E+00 0.  1.
          1   -1    0    0  502    0  0.00000000000E+00 -0.00000000000E+00 -0.26210810898E+03  0.26210810898E+03  0.00000000000E+00 0. -1.
         23    2    1    2    0    0  0.56768437248E+02  0.45215479976E+00 -0.23903310501E+02  0.10884516810E+03  0.89738745561E+02 0.  0.
         23    2    1    2    0    0 -0.10257777479E+02 -0.40429470767E+02 -0.14429584697E+03  0.17886477366E+03  0.97116176292E+02 0.  0.
        -11    1    4    4    0    0 -0.47425279060E+02 -0.11695556352E+02 -0.11103170849E+03  0.12130120949E+03  0.00000000000E+00 0. -1.
         11    1    4    4    0    0  0.37167501581E+02 -0.28733914415E+02 -0.33264138478E+02  0.57563564171E+02  0.00000000000E+00 0.  1.
        -11    1    3    3    0    0  0.52365506226E+02  0.38367117284E+02 -0.27510415088E+02  0.70505353480E+02  0.00000000000E+00 0. -1.
         11    1    3    3    0    0  0.44029310218E+01 -0.37914962484E+02  0.36071045872E+01  0.38339814622E+02  0.00000000000E+00 0.  1.
         21    1    1    2  502  501 -0.46510659769E+02  0.39977315967E+02 -0.66203583306E+01  0.61686760399E+02  0.00000000000E+00 0. -1.
<scales pt_clust_5="13000.00000" pt_clust_6="13000.00000" pt_clust_7="13000.00000" pt_clust_8="13000.00000" pt_clust_9="61.33048"></scales>
<clustering>
<clus scale="   61.330">  1  9  2 -1</clus>
<clus scale="   89.739">  7  8 -1 -1</clus>
<clus scale="   97.116">  5  6 -1 -1</clus>
<clus scale="   97.203">  1  7  2 -1</clus>
<clus scale="  104.053">  2  5  1 -1</clus>
</clustering>
</event>
<event>
 9    1  0.2423659E-006  0.1796524E+03  0.7546771E-02  0.1199127E+00
         -2   -1    0    0    0  501 -0.00000000000E+00  0.00000000000E+00  0.52111459052E+02  0.52111459052E+02  0.00000000000E+00 0.  1.
          2   -1    0    0  502    0  0.00000000000E+00 -0.00000000000E+00 -0.13535024414E+04  0.13535024414E+04  0.00000000000E+00 0. -1.
         23    2    1    2    0    0  0.32712487624E+02  0.63232883535E+01 -0.54588262770E+02  0.10517656735E+03  0.83499347696E+02 0.  0.
         23    2    1    2    0    0  0.21819400457E+02  0.14326746077E+03 -0.34971381081E+03  0.38932832246E+03  0.90967805528E+02 0.  0.
        -13    1    4    4    0    0 -0.28219745988E+02  0.78733155379E+02 -0.12653380505E+03  0.15167751198E+03  0.00000000000E+00 0. -1.
         13    1    4    4    0    0  0.50039146446E+02  0.64534305393E+02 -0.22318000576E+03  0.23765081047E+03  0.00000000000E+00 0.  1.
        -13    1    3    3    0    0 -0.41982534029E+01  0.39357829723E+02 -0.31192323354E+02  0.50394693454E+02  0.00000000000E+00 0.  1.
         13    1    3    3    0    0  0.36910741027E+02 -0.33034541370E+02 -0.23395939417E+02  0.54781873899E+02  0.00000000000E+00 0. -1.
         21    1    1    2  502  501 -0.54531888082E+02 -0.14959074912E+03 -0.89708890874E+03  0.91110901061E+03  0.00000000000E+00 0.  1.
<scales pt_clust_5="13000.00000" pt_clust_6="13000.00000" pt_clust_7="13000.00000" pt_clust_8="13000.00000" pt_clust_9="154.91882"></scales>
<clustering>
<clus scale="   83.499">  7  8 -1 -1</clus>
<clus scale="   89.901">  1  7  2 -1</clus>
<clus scale="   90.968">  5  6 -1 -1</clus>
<clus scale="  154.919">  2  9  1 -1</clus>
<clus scale="  154.919">  2  5  1 -1</clus>
</clustering>
</event>
<event>
 9    1  0.2423659E-006  0.1040017E+03  0.7546771E-02  0.1276929E+00
          3   -1    0    0  502    0  0.00000000000E+00  0.00000000000E+00  0.22864485766E+03  0.22864485766E+03  0.00000000000E+00 0. -1.
         -3   -1    0    0    0  501 -0.00000000000E+00 -0.00000000000E+00 -0.96768710865E+02  0.96768710865E+02  0.00000000000E+00 0.  1.
         23    2    1    2    0    0  0.17833653931E+02  0.32689134264E+02 -0.64713038980E+01  0.10922795196E+03  0.10248048109E+03 0.  0.
         23    2    1    2    0    0 -0.89878581269E+01  0.32458818676E+02  0.69435254046E+02  0.12094174683E+03  0.93119789080E+02 0.  0.
        -11    1    4    4    0    0 -0.15131560161E+01  0.64402172872E+02  0.34731445358E+02  0.73186083434E+02  0.00000000000E+00 0.  1.
         11    1    4    4    0    0 -0.74747021108E+01 -0.31943354196E+02  0.34703808688E+02  0.47755663396E+02  0.00000000000E+00 0. -1.
        -11    1    3    3    0    0 -0.18984358161E+01  0.54636338678E+02 -0.37585359884E+02  0.66342993905E+02  0.00000000000E+00 0.  1.
         11    1    3    3    0    0  0.19732089747E+02 -0.21947204415E+02  0.31114055986E+02  0.42884958054E+02  0.00000000000E+00 0. -1.
         21    1    1    2  502  501 -0.88457958042E+01 -0.65147952940E+02  0.68912196651E+02  0.95243869739E+02  0.00000000000E+00 0. -1.
<scales pt_clust_5="13000.00000" pt_clust_6="13000.00000" pt_clust_7="13000.00000" pt_clust_8="13000.00000" pt_clust_9="65.74575"></scales>
<clustering>
<clus scale="   65.746">  1  9  2 -1</clus>
<clus scale="   93.120">  5  6 -1 -1</clus>
<clus scale="   94.791">  1  5  2 -1</clus>
<clus scale="  102.480">  7  8 -1 -1</clus>
<clus scale="   65.746">  1  5  2 -1</clus>
</clustering>
</event>
<event>
 9    1  0.5548512E-006  0.1019104E+03  0.7546771E-02  0.1283340E+00
         -1   -1    0    0    0  501 -0.00000000000E+00  0.00000000000E+00  0.19665019550E+03  0.19665019550E+03  0.00000000000E+00 0.  1.
          1   -1    0    0  502    0  0.00000000000E+00 -0.00000000000E+00 -0.25696793263E+03  0.25696793263E+03  0.00000000000E+00 0. -1.
         23    2    1    2    0    0  0.45930369342E+02 -0.29158375554E+02  0.14688287439E+03  0.18189181625E+03  0.92467531247E+02 0.  0.
         23    2    1    2    0    0 -0.41723187584E+02  0.77561501377E+01 -0.22602739553E+03  0.24291306098E+03  0.78213741881E+02 0.  0.
        -13    1    3    3    0    0  0.66618059760E+02 -0.42716701293E+02  0.89883271652E+02  0.11975677425E+03  0.00000000000E+00 0.  1.
         13    1    3    3    0    0 -0.20687690417E+02  0.13558325739E+02  0.56999602739E+02  0.62135041997E+02  0.00000000000E+00 0. -1.
        -13    1    4    4    0    0 -0.64032397821E+02 -0.14771207638E+01 -0.17768919517E+03  0.18888033232E+03  0.00000000000E+00 0. -1.
         13    1    4    4    0    0  0.22309210237E+02  0.92332709015E+01 -0.48338200359E+02  0.54032728664E+02  0.00000000000E+00 0.  1.
         21    1    1    2  502  501 -0.42071817583E+01  0.21402225416E+02  0.18826784016E+02  0.28813250901E+02  0.00000000000E+00 0. -1.
<scales pt_clust_5="13000.00000" pt_clust_6="13000.00000" pt_clust_7="13000.00000" pt_clust_8="13000.00000" pt_clust_9="21.81182"></scales>
<clustering>
<clus scale="   21.812">  1  9  2 -1</clus>
<clus scale="   78.214">  7  8 -1 -1</clus>
<clus scale="   89.179">  2  7  1 -1</clus>
<clus scale="   92.468">  5  6 -1 -1</clus>
<clus scale="   89.179">  2  5  1 -1</clus>
</clustering>
</event>
<event>
 9    1  0.2423659E-006  0.1263181E+03  0.7546771E-02  0.1233316E+00
         -3   -1    0    0    0  501 -0.00000000000E+00  0.00000000000E+00  0.17470716559E+03  0.17470716559E+03  0.00000000000E+00 0.  1.
          3   -1    0    0  502    0  0.00000000000E+00 -0.00000000000E+00 -0.14392928115E+03  0.14392928115E+03  0.00000000000E+00 0. -1.
         23    2    1    2    0    0  0.31231862246E+02  0.55961572384E+02  0.35170092678E+02  0.11756514598E+03  0.92073347541E+02 0.  0.
         23    2    1    2    0    0 -0.70512226689E+02 -0.73970506415E+02 -0.42654977079E+02  0.14335381455E+03  0.91034384409E+02 0.  0.
        -11    1    3    3    0    0  0.27736294909E+02 -0.14512469426E+02 -0.11069773820E+02  0.33203218467E+02  0.00000000000E+00 0. -1.
         11    1    3    3    0    0  0.34955673365E+01  0.70474041810E+02  0.46239866499E+02  0.84361927514E+02  0.00000000000E+00 0.  1.
        -13    1    4    4    0    0 -0.77253951554E+00 -0.56054500170E+02 -0.44112982918E+02  0.71334837692E+02  0.00000000000E+00 0. -1.
         13    1    4    4    0    0 -0.69739687173E+02 -0.17916006245E+02  0.14580058382E+01  0.72018976859E+02  0.00000000000E+00 0.  1.
         21    1    1    2  502  501  0.39280364443E+02  0.18008934031E+02  0.38262768842E+02  0.57717486216E+02  0.00000000000E+00 0.  1.
<scales pt_clust_5="13000.00000" pt_clust_6="13000.00000" pt_clust_7="13000.00000" pt_clust_8="13000.00000" pt_clust_9="43.21191"></scales>
<clustering>
<clus scale="   43.212">  1  9  2 -1</clus>
<clus scale="   91.034">  7  8 -1 -1</clus>
<clus scale="   92.073">  5  6 -1 -1</clus>
<clus scale="  125.563">  2  7  1 -1</clus>
<clus scale="  125.563">  2  5  1 -1</clus>
</clustering>
</event>
<event>
 9    1  0.2423659E-006  0.1713022E+03  0.7546771E-02  0.1180015E+00
          1   -1    0    0  502    0  0.00000000000E+00  0.00000000000E+00  0.29266193645E+03  0.29266193645E+03  0.00000000000E+00 0. -1.
         -1   -1    0    0    0  501 -0.00000000000E+00 -0.00000000000E+00 -0.33617445097E+03  0.33617445097E+03  0.00000000000E+00 0.  1.
         23    2    1    2    0    0  0.87776040378E+02 -0.64263747003E+02 -0.68761918682E+02  0.17381202001E+03  0.11682445974E+03 0.  0.
         23    2    1    2    0    0 -0.68024435878E+02  0.11157882104E+03  0.20870816122E+03  0.26453563374E+03  0.96658407688E+02 0.  0.
        -13    1    4    4    0    0 -0.16870540907E+01  0.21378093720E+02 -0.61018294555E+01  0.22295770121E+02  0.00000000000E+00 0.  1.
         13    1    4    4    0    0 -0.66337381787E+02  0.90200727323E+02  0.21480999068E+03  0.24223986362E+03  0.00000000000E+00 0. -1.
        -13    1    3    3    0    0  0.92225877711E+02 -0.91221965846E+02 -0.44115730928E+02  0.13701553667E+03  0.00000000000E+00 0.  1.
         13    1    3    3    0    0 -0.44498373340E+01  0.26958218843E+02 -0.24646187754E+02  0.36796483341E+02  0.00000000000E+00 0. -1.
         21    1    1    2  502  501 -0.19751604500E+02 -0.47315074039E+02 -0.18345875707E+03  0.19048873367E+03  0.00000000000E+00 0.  1.
<scales pt_clust_5="13000.00000" pt_clust_6="13000.00000" pt_clust_7="13000.00000" pt_clust_8="13000.00000" pt_clust_9="51.27224"></scales>
<clustering>
<clus scale="   51.272">  2  9  1 -1</clus>
<clus scale="   96.658">  5  6 -1 -1</clus>
<clus scale="  116.824">  7  8 -1 -1</clus>
<clus scale="  158.238">  1  5  2 -1</clus>
<clus scale="  158.238">  1  5  2 -1</clus>
</clustering>
</event>
<event>
 9    1  0.2423659E-006  0.1004405E+03  0.7546771E-02  0.1279887E+00
         -1   -1    0    0    0  501 -0.00000000000E+00  0.00000000000E+00  0.12395376178E+03  0.12395376178E+03  0.00000000000E+00 0.  1.
          1   -1    0    0  502    0  0.00000000000E+00 -0.00000000000E+00 -0.35922469069E+03  0.35922469069E+03  0.00000000000E+00 0. -1.
         23    2    1    2    0    0 -0.48718766453E+02  0.96391531303E+00  0.75691982945E+02  0.12773791171E+03  0.90626985318E+02 0.  0.
         23    2    1    2    0    0 -0.93973993495E+01  0.30408927508E+02 -0.24183148061E+03  0.25983249308E+03  0.89540189083E+02 0.  0.
        -11    1    3    3    0    0 -0.66886257584E+02  0.21662234229E+02  0.34829499058E+02  0.78460931998E+02  0.00000000000E+00 0. -1.
         11    1    3    3    0    0  0.18167491130E+02 -0.20698318916E+02  0.40862483887E+02  0.49276979710E+02  0.00000000000E+00 0.  1.
        -13    1    4    4    0    0 -0.15191412387E+02  0.59880613995E+02 -0.19152202591E+03  0.20123904530E+03  0.00000000000E+00 0. -1.
         13    1    4    4    0    0  0.57940130372E+01 -0.29471686486E+02 -0.50309454698E+02  0.58593447786E+02  0.00000000000E+00 0.  1.
         21    1    1    2  502  501  0.58116165803E+02 -0.31372842821E+02 -0.69131431243E+02  0.95608047674E+02  0.00000000000E+00 0.  1.
<scales pt_clust_5="13000.00000" pt_clust_6="13000.00000" pt_clust_7="13000.00000" pt_clust_8="13000.00000" pt_clust_9="66.04350"></scales>
<clustering>
<clus scale="   66.044">  2  9  1 -1</clus>
<clus scale="   89.540">  7  8 -1 -1</clus>
<clus scale="   90.627">  5  6 -1 -1</clus>
<clus scale="   99.461">  2  7  1 -1</clus>
<clus scale="   66.044">  2  5  1 -1</clus>
</clustering>
</event>
<event>
 9    1  0.2423659E-006  0.1876029E+03  0.7546771E-02  0.1181413E+00
         -2   -1    0    0    0  501 -0.00000000000E+00  0.00000000000E+00  0.77037726597E+02  0.77037726597E+02  0.00000000000E+00 0.  1.
          2   -1    0    0  502    0  0.00000000000E+00 -0.00000000000E+00 -0.88215815188E+03  0.88215815188E+03  0.00000000000E+00 0. -1.
         23    2    1    2    0    0  0.42845076860E+02 -0.57734479238E+02 -0.71746325983E+02  0.13703178812E+03  0.91984808310E+02 0.  0.
         23    2    1    2    0    0  0.52514413644E+02  0.18064769253E+03 -0.34116572022E+03  0.40022985015E+03  0.91643504115E+02 0.  0.
        -13    1    4    4    0    0 -0.14480373062E+02  0.56457056524E+02 -0.16201716774E+03  0.17218200568E+03  0.00000000000E+00 0. -1.
         13    1    4    4    0    0  0.66994786706E+02  0.12419063601E+03 -0.17914855247E+03  0.22804784448E+03  0.00000000000E+00 0.  1.
        -13    1    3    3    0    0 -0.27353074626E+02 -0.25448253857E+02 -0.36051416418E+02  0.51918291012E+02  0.00000000000E+00 0. -1.
         13    1    3    3    0    0  0.70198151486E+02 -0.32286225381E+02 -0.35694909565E+02  0.85113497110E+02  0.00000000000E+00 0.  1.
         21    1    1    2  502  501 -0.95359490504E+02 -0.12291321329E+03 -0.39220837909E+03  0.42193424021E+03  0.00000000000E+00 0. -1.
<scales pt_clust_5="13000.00000" pt_clust_6="13000.00000" pt_clust_7="13000.00000" pt_clust_8="13000.00000" pt_clust_9="163.69577"></scales>
<clustering>
<clus scale="   91.644">  5  6 -1 -1</clus>
<clus scale="   91.985">  7  8 -1 -1</clus>
<clus scale="  116.748">  1  7  2 -1</clus>
<clus scale="  163.696">  2  9  1 -1</clus>
<clus scale="  163.696">  2  5  1 -1</clus>
</clustering>
</event>
<event>
 9    1  0.2423659E-006  0.2954725E+03  0.7546771E-02  0.1124210E+00
         -1   -1    0    0    0  501 -0.00000000000E+00  0.00000000000E+00  0.52284936587E+03  0.52284936587E+03  0.00000000000E+00 0.  1.
          1   -1    0    0  502    0  0.00000000000E+00 -0.00000000000E+00 -0.26329374389E+03  0.26329374389E+03  0.00000000000E+00 0. -1.
         23    2    1    2    0    0  0.21267632911E+03 -0.98569099839E+02 -0.93511597158E+01  0.25137524649E+03  0.90304938721E+02 0.  0.
         23    2    1    2    0    0  0.63342821496E+02 -0.31487153313E+02 -0.17202111239E+02  0.11648626064E+03  0.90936144780E+02 0.  0.
        -11    1    4    4    0    0  0.26307287088E+02 -0.60820314444E+02 -0.19827206983E+02  0.69168649978E+02  0.00000000000E+00 0.  1.
         11    1    4    4    0    0  0.37035534408E+02  0.29333161132E+02  0.26250957437E+01  0.47317610659E+02  0.00000000000E+00 0. -1.
        -13    1    3    3    0    0  0.93383519082E+02 -0.11042257491E+02 -0.36641793480E+02  0.10092093002E+03  0.00000000000E+00 0. -1.
         13    1    3    3    0    0  0.11929281002E+03 -0.87526842348E+02  0.27290633764E+02  0.15045431647E+03  0.00000000000E+00 0.  1.
         21    1    1    2  502  501 -0.27601915060E+03  0.13005625315E+03  0.28610889293E+03  0.41828160263E+03  0.00000000000E+00 0.  1.
<scales pt_clust_5="13000.00000" pt_clust_6="13000.00000" pt_clust_7="13000.00000" pt_clust_8="13000.00000" pt_clust_9="281.33432"></scales>
<clustering>
<clus scale="   90.305">  7  8 -1 -1</clus>
<clus scale="   90.936">  5  6 -1 -1</clus>
<clus scale="  115.209">  2  5  1 -1</clus>
<clus scale="  281.334">  1  9  2 -1</clus>
<clus scale="  115.209">  2  5  1 -1</clus>
</clustering>
</event>
<event>
 9    1  0.2423659E-006  0.9252129E+02  0.7546771E-02  0.1301497E+00
         -1   -1    0    0    0  501 -0.00000000000E+00  0.00000000000E+00  0.12007424161E+03  0.12007424161E+03  0.00000000000E+00 0.  1.
          1   -1    0    0  502    0  0.00000000000E+00 -0.00000000000E+00 -0.87515533616E+02  0.87515533616E+02  0.00000000000E+00 0. -1.
         23    2    1    2    0    0  0.48618585790E+01 -0.14231731283E+02  0.30718968918E+02  0.91115537115E+02  0.84452390187E+02 0.  0.
         23    2    1    2    0    0  0.13733882121E+02  0.10031171733E+00  0.16087139630E+01  0.93117184275E+02  0.92084702672E+02 0.  0.
        -11    1    4    4    0    0  0.69595698295E+01  0.25640963086E+02  0.39086124979E+02  0.47261186676E+02  0.00000000000E+00 0.  1.
         11    1    4    4    0    0  0.67743122915E+01 -0.25540651369E+02 -0.37477411016E+02  0.45855997599E+02  0.00000000000E+00 0. -1.
        -13    1    3    3    0    0 -0.25030330960E+02  0.22014910853E+02  0.28867405088E+02  0.44096494694E+02  0.00000000000E+00 0. -1.
         13    1    3    3    0    0  0.29892189539E+02 -0.36246642136E+02  0.18515638300E+01  0.47019042421E+02  0.00000000000E+00 0.  1.
         21    1    1    2  502  501 -0.18595740700E+02  0.14131419566E+02  0.23102510920E+00  0.23357053832E+02  0.00000000000E+00 0.  1.
<scales pt_clust_5="13000.00000" pt_clust_6="13000.00000" pt_clust_7="13000.00000" pt_clust_8="13000.00000" pt_clust_9="23.35591"></scales>
<clustering>
<clus scale="   23.356">  2  9  1 -1</clus>
<clus scale="   84.452">  7  8 -1 -1</clus>
<clus scale="   84.928">  1  7  2 -1</clus>
<clus scale="   92.085">  5  6 -1 -1</clus>
<clus scale="   23.356">  2  5  1 -1</clus>
</clustering>
</event>
<event>
 9    1  0.2423659E-006  0.9735815E+02  0.7546771E-02  0.1286205E+00
          1   -1    0    0  502    0  0.00000000000E+00  0.00000000000E+00  0.73862594752E+02  0.73862594752E+02  0.00000000000E+00 0. -1.
         -1   -1    0    0    0  501 -0.00000000000E+00 -0.00000000000E+00 -0.18243059300E+03  0.18243059300E+03  0.00000000000E+00 0.  1.
         23    2    1    2    0    0 -0.27559450391E+02  0.40121426346E+02 -0.65512400387E+02  0.12245463423E+03  0.91290802829E+02 0.  0.
         23    2    1    2    0    0  0.13730480410E+01 -0.18298752190E+02 -0.30956975108E+02  0.97667661253E+02  0.90795969923E+02 0.  0.
        -11    1    4    4    0    0  0.35172561167E+02  0.17050114012E+02 -0.29090575984E+02  0.48724501619E+02  0.00000000000E+00 0.  1.
         11    1    4    4    0    0 -0.33799513126E+02 -0.35348866203E+02 -0.18663991240E+01  0.48943159635E+02  0.00000000000E+00 0. -1.
        -13    1    3    3    0    0 -0.30123045489E+02  0.73926318981E+01 -0.80572224421E+02  0.86336158265E+02  0.00000000000E+00 0.  1.
         13    1    3    3    0    0  0.25635950974E+01  0.32728794448E+02  0.15059824033E+02  0.36118475961E+02  0.00000000000E+00 0. -1.
         21    1    1    2  502  501  0.26186402350E+02 -0.21822674156E+02 -0.12098622755E+02  0.36170892275E+02  0.00000000000E+00 0. -1.
<scales pt_clust_5="13000.00000" pt_clust_6="13000.00000" pt_clust_7="13000.00000" pt_clust_8="13000.00000" pt_clust_9="34.08749"></scales>
<clustering>
<clus scale="   34.087">  1  9  2 -1</clus>
<clus scale="   90.796">  5  6 -1 -1</clus>
<clus scale="   91.291">  7  8 -1 -1</clus>
<clus scale="   96.894">  1  5  2 -1</clus>
<clus scale="   34.087">  1  5  2 -1</clus>
</clustering>
</event>
<event>
 9    1  0.2423659E-006  0.1484491E+03  0.7546771E-02  0.1223506E+00
          3   -1    0    0  502    0  0.00000000000E+00  0.00000000000E+00  0.10708857128E+03  0.10708857128E+03  0.00000000000E+00 0. -1.
         -3   -1    0    0    0  501 -0.00000000000E+00 -0.00000000000E+00 -0.30940233607E+03  0.30940233607E+03  0.00000000000E+00 0.  1.
         23    2    1    2    0    0  0.25669235877E+02 -0.85142457965E+01 -0.58941118425E+02  0.11161464452E+03  0.90842563696E+02 0.  0.
         23    2    1    2    0    0 -0.10823189967E+03  0.72381257373E+02 -0.54993506729E+02  0.16810469801E+03  0.91003918513E+02 0.  0.
        -11    1    4    4    0    0 -0.86874325152E+02  0.85422231528E+02 -0.68391636255E+02  0.13971944002E+03  0.00000000000E+00 0.  1.
         11    1    4    4    0    0 -0.21357574517E+02 -0.13040974155E+02  0.13398129526E+02  0.28385257987E+02  0.00000000000E+00 0. -1.
        -13    1    3    3    0    0  0.12591403926E+02 -0.37440520932E+02  0.53998168255E+01  0.39868459742E+02  0.00000000000E+00 0.  1.
         13    1    3    3    0    0  0.13077831951E+02  0.28926275135E+02 -0.64340935250E+02  0.71746184781E+02  0.00000000000E+00 0. -1.
         21    1    1    2  502  501  0.82562663792E+02 -0.63867011576E+02 -0.88379139640E+02  0.13677156482E+03  0.00000000000E+00 0.  1.
<scales pt_clust_5="13000.00000" pt_clust_6="13000.00000" pt_clust_7="13000.00000" pt_clust_8="13000.00000" pt_clust_9="117.28347"></scales>
<clustering>
<clus scale="   90.843">  7  8 -1 -1</clus>
<clus scale="   91.004">  5  6 -1 -1</clus>
<clus scale="   94.783">  2  7  1 -1</clus>
<clus scale="  117.283">  2  9  1 -1</clus>
<clus scale="  148.449">  1  5  2 -1</clus>
</clustering>
</event>
<event>
 9    1  0.2423659E-006  0.9192203E+02  0.7546771E-02  0.1298786E+00
          1   -1    0    0  502    0  0.00000000000E+00  0.00000000000E+00  0.20966629423E+03  0.20966629423E+03  0.00000000000E+00 0. -1.
         -1   -1    0    0    0  501 -0.00000000000E+00 -0.00000000000E+00 -0.10500673304E+03  0.10500673304E+03  0.00000000000E+00 0.  1.
         23    2    1    2    0    0 -0.14122900839E+01  0.55966596347E+01 -0.55073550004E+02  0.10633889794E+03  0.90782972761E+02 0.  0.
         23    2    1    2    0    0  0.22796004956E+02  0.43972712575E+01  0.75943614851E+02  0.12128344516E+03  0.91669229275E+02 0.  0.
        -13    1    3    3    0    0  0.24703696898E+02 -0.32996708361E+02 -0.12123754188E+02  0.42965577137E+02  0.00000000000E+00 0. -1.
         13    1    3    3    0    0 -0.26115986982E+02  0.38593367996E+02 -0.42949795817E+02  0.63373320806E+02  0.00000000000E+00 0.  1.
        -13    1    4    4    0    0  0.31031225532E+02  0.34435334572E+02  0.86820733255E+01  0.47160445527E+02  0.00000000000E+00 0.  1.
         13    1    4    4    0    0 -0.82352205759E+01 -0.30038063314E+02  0.67261541526E+02  0.74122999629E+02  0.00000000000E+00 0. -1.
         21    1    1    2  502  501 -0.21383714872E+02 -0.99939308922E+01  0.83789496347E+02  0.87050684171E+02  0.00000000000E+00 0. -1.
<scales pt_clust_5="13000.00000" pt_clust_6="13000.00000" pt_clust_7="13000.00000" pt_clust_8="13000.00000" pt_clust_9="23.60385"></scales>
<clustering>
<clus scale="   23.604">  1  9  2 -1</clus>
<clus scale="   90.783">  5  6 -1 -1</clus>
<clus scale="   91.038">  2  5  1 -1</clus>
<clus scale="   91.669">  7  8 -1 -1</clus>
<clus scale="   23.604">  1  5  2 -1</clus>
</clustering>
</event>
<event>
 9    1  0.2423659E-006  0.9294497E+02  0.7546771E-02  0.1297435E+00
          2   -1    0    0  502    0  0.00000000000E+00  0.00000000000E+00  0.81210682997E+03  0.81210682997E+03  0.00000000000E+00 0. -1.
         -2   -1    0    0    0  501 -0.00000000000E+00 -0.00000000000E+00 -0.31155274638E+02  0.31155274638E+02  0.00000000000E+00 0.  1.
         23    2    1    2    0    0  0.91964723313E+01  0.25115041068E+02  0.93369104466E+02  0.13374073272E+03  0.91942664350E+02 0.  0.
         23    2    1    2    0    0 -0.17838932349E+02  0.41341381200E+02  0.30086735765E+03  0.31704244062E+03  0.89260321218E+02 0.  0.
        -11    1    3    3    0    0  0.33177781045E+02  0.36190160741E+02  0.15456858423E+02  0.51472394172E+02  0.00000000000E+00 0. -1.
         11    1    3    3    0    0 -0.23981308714E+02 -0.11075119673E+02  0.77912246043E+02  0.82268338545E+02  0.00000000000E+00 0.  1.
        -13    1    4    4    0    0 -0.26531343893E+02  0.60162847439E+02  0.28003922160E+03  0.28765508175E+03  0.00000000000E+00 0. -1.
         13    1    4    4    0    0  0.86924115437E+01 -0.18821466239E+02  0.20828136051E+02  0.29387358867E+02  0.00000000000E+00 0.  1.
         21    1    1    2  502  501  0.86424600182E+01 -0.66456422268E+02  0.38671509321E+03  0.39247893127E+03  0.00000000000E+00 0. -1.
<scales pt_clust_5="13000.00000" pt_clust_6="13000.00000" pt_clust_7="13000.00000" pt_clust_8="13000.00000" pt_clust_9="67.01603"></scales>
<clustering>
<clus scale="   67.016">  1  9  2 -1</clus>
<clus scale="   89.260">  7  8 -1 -1</clus>
<clus scale="   90.292">  1  7  2 -1</clus>
<clus scale="   91.943">  5  6 -1 -1</clus>
<clus scale="   67.016">  1  5  2 -1</clus>
</clustering>
</event>
<event>
 9    1  0.2423659E-006  0.9477998E+02  0.7546771E-02  0.1295329E+00
         -1   -1    0    0    0  501 -0.00000000000E+00  0.00000000000E+00  0.29709324387E+03  0.29709324387E+03  0.00000000000E+00 0.  1.
          1   -1    0    0  502    0  0.00000000000E+00 -0.00000000000E+00 -0.86603328183E+02  0.86603328183E+02  0.00000000000E+00 0. -1.
         23    2    1    2    0    0 -0.68825668644E+02  0.88081106031E+01  0.56169582634E+02  0.12361502822E+03  0.85504957239E+02 0.  0.
         23    2    1    2    0    0 -0.95558950984E+01 -0.15577601399E+02  0.81750352967E+01  0.94105811879E+02  0.91951595043E+02 0.  0.
        -13    1    4    4    0    0  0.33688736221E+02  0.18270426061E+02 -0.14546233098E+01  0.38351731977E+02  0.00000000000E+00 0.  1.
         13    1    4    4    0    0 -0.43244631320E+02 -0.33848027460E+02  0.96296586065E+01  0.55754079902E+02  0.00000000000E+00 0. -1.
        -13    1    3    3    0    0 -0.51211095593E+02 -0.29009056916E+02  0.56937040085E+02  0.81889732132E+02  0.00000000000E+00 0. -1.
         13    1    3    3    0    0 -0.17614573051E+02  0.37817167519E+02 -0.76745745033E+00  0.41725296091E+02  0.00000000000E+00 0.  1.
         21    1    1    2  502  501  0.78381563743E+02  0.67694907958E+01  0.14614529775E+03  0.16597573195E+03  0.00000000000E+00 0.  1.
<scales pt_clust_5="13000.00000" pt_clust_6="13000.00000" pt_clust_7="13000.00000" pt_clust_8="13000.00000" pt_clust_9="78.67335"></scales>
<clustering>
<clus scale="   78.673">  1  9  2 -1</clus>
<clus scale="   85.505">  7  8 -1 -1</clus>
<clus scale="   88.540">  1  7  2 -1</clus>
<clus scale="   91.952">  5  6 -1 -1</clus>
<clus scale="   94.780">  2  5  1 -1</clus>
</clustering>
</event>
<event>
 9    1  0.2423659E-006  0.1018774E+03  0.7546771E-02  0.1277740E+00
         -1   -1    0    0    0  501 -0.00000000000E+00  0.00000000000E+00  0.67168676638E+02  0.67168676638E+02  0.00000000000E+00 0.  1.
          1   -1    0    0  502    0  0.00000000000E+00 -0.00000000000E+00 -0.39533064795E+03  0.39533064795E+03  0.00000000000E+00 0. -1.
         23    2    1    2    0    0  0.31167470591E+02 -0.48802417928E+02 -0.41687855493E+02  0.11721215290E+03  0.92993141004E+02 0.  0.
         23    2    1    2    0    0 -0.41826474523E+02 -0.14517586076E+02 -0.78062007653E+02  0.12720772721E+03  0.90154947435E+02 0.  0.
        -11    1    3    3    0    0  0.54950139451E+02 -0.57283454246E+02 -0.45779181187E+02  0.91633211153E+02  0.00000000000E+00 0.  1.
         11    1    3    3    0    0 -0.23782668859E+02  0.84810363184E+01  0.40913256942E+01  0.25578941750E+02  0.00000000000E+00 0. -1.
        -13    1    4    4    0    0  0.86071329697E+01  0.25295574234E+02 -0.81779466536E+00  0.26732332519E+02  0.00000000000E+00 0. -1.
         13    1    4    4    0    0 -0.50433607493E+02 -0.39813160309E+02 -0.77244212988E+02  0.10047539469E+03  0.00000000000E+00 0.  1.
         21    1    1    2  502  501  0.10659003932E+02  0.63320004004E+02 -0.20841210816E+03  0.21807944447E+03  0.00000000000E+00 0. -1.
<scales pt_clust_5="13000.00000" pt_clust_6="13000.00000" pt_clust_7="13000.00000" pt_clust_8="13000.00000" pt_clust_9="64.21088"></scales>
<clustering>
<clus scale="   64.211">  2  9  1 -1</clus>
<clus scale="   90.155">  7  8 -1 -1</clus>
<clus scale="   92.993">  5  6 -1 -1</clus>
<clus scale="   99.293">  2  7  1 -1</clus>
<clus scale="   64.211">  2  5  1 -1</clus>
</clustering>
</event>
<event>
 9    1  0.2423659E-006  0.1070776E+03  0.7546771E-02  0.1273957E+00
         -3   -1    0    0    0  501 -0.00000000000E+00  0.00000000000E+00  0.14804014243E+03  0.14804014243E+03  0.00000000000E+00 0.  1.
          3   -1    0    0  502    0  0.00000000000E+00 -0.00000000000E+00 -0.95078396846E+02  0.95078396846E+02  0.00000000000E+00 0. -1.
         23    2    1    2    0    0  0.10265471343E+02 -0.26496566813E+01  0.52225374710E+02  0.10611633637E+03  0.91764843481E+02 0.  0.
         23    2    1    2    0    0  0.13306113847E+02  0.41492979180E+01 -0.14644031779E+02  0.10881665097E+03  0.10692215169E+03 0.  0.
        -11    1    3    3    0    0  0.21774899199E+02 -0.27853910127E+02  0.66225822948E+02  0.75072272975E+02  0.00000000000E+00 0.  1.
         11    1    3    3    0    0 -0.11509427857E+02  0.25204253446E+02 -0.14000448239E+02  0.31044063397E+02  0.00000000000E+00 0. -1.
        -13    1    4    4    0    0 -0.37341749613E+02  0.10647784966E+02  0.23223251067E+02  0.45244900033E+02  0.00000000000E+00 0.  1.
         13    1    4    4    0    0  0.50647863460E+02 -0.64984870482E+01 -0.37867282846E+02  0.63571750937E+02  0.00000000000E+00 0. -1.
         21    1    1    2  502  501 -0.23571585190E+02 -0.14996412367E+01  0.15380402658E+02  0.28185551939E+02  0.00000000000E+00 0. -1.
<scales pt_clust_5="13000.00000" pt_clust_6="13000.00000" pt_clust_7="13000.00000" pt_clust_8="13000.00000" pt_clust_9="23.61924"></scales>
<clustering>
<clus scale="   23.619">  1  9  2 -1</clus>
<clus scale="   91.765">  5  6 -1 -1</clus>
<clus scale="   91.946">  1  5  2 -1</clus>
<clus scale="  106.922">  7  8 -1 -1</clus>
<clus scale="  107.078">  2  5  1 -1</clus>
</clustering>
</event>
<event>
 9    1  0.2423659E-006  0.9253630E+02  0.7546771E-02  0.1297064E+00
         -1   -1    0    0    0  501 -0.00000000000E+00  0.00000000000E+00  0.11140146410E+03  0.11140146410E+03  0.00000000000E+00 0.  1.
          1   -1    0    0  502    0  0.00000000000E+00 -0.00000000000E+00 -0.28984747277E+03  0.28984747277E+03  0.00000000000E+00 0. -1.
         23    2    1    2    0    0 -0.20594753010E+02 -0.39697841147E+01  0.75179721793E+02  0.11929281152E+03  0.90215748483E+02 0.  0.
         23    2    1    2    0    0 -0.21040032452E+00  0.99434532526E+01 -0.14568062636E+03  0.17186214446E+03  0.90635728454E+02 0.  0.
        -11    1    3    3    0    0  0.26952653723E+02 -0.28375849560E+02  0.30048661350E+02  0.49341224447E+02  0.00000000000E+00 0.  1.
         11    1    3    3    0    0 -0.47547406733E+02  0.24406065445E+02  0.45131060443E+02  0.69951587074E+02  0.00000000000E+00 0. -1.
        -13    1    4    4    0    0  0.41717228753E+02 -0.12349693366E+02 -0.64171574157E+02  0.77529562303E+02  0.00000000000E+00 0.  1.
         13    1    4    4    0    0 -0.41927629078E+02  0.22293146618E+02 -0.81509052198E+02  0.94332582157E+02  0.00000000000E+00 0. -1.
         21    1    1    2  502  501  0.20805153334E+02 -0.59736691379E+01 -0.10794510410E+03  0.11009398089E+03  0.00000000000E+00 0.  1.
<scales pt_clust_5="13000.00000" pt_clust_6="13000.00000" pt_clust_7="13000.00000" pt_clust_8="13000.00000" pt_clust_9="21.64576"></scales>
<clustering>
<clus scale="   21.646">  2  9  1 -1</clus>
<clus scale="   90.216">  5  6 -1 -1</clus>
<clus scale="   90.636">  7  8 -1 -1</clus>
<clus scale="   92.125">  1  5  2 -1</clus>
<clus scale="   21.646">  2  5  1 -1</clus>
</clustering>
</event>
<event>
 9    1  0.2423659E-006  0.2022443E+03  0.7546771E-02  0.1147931E+00
          2   -1    0    0  502    0  0.00000000000E+00  0.00000000000E+00  0.89169107054E+03  0.89169107054E+03  0.00000000000E+00 0. -1.
         -2   -1    0    0    0  501 -0.00000000000E+00 -0.00000000000E+00 -0.84364581762E+02  0.84364581762E+02  0.00000000000E+00 0.  1.
         23    2    1    2    0    0  0.10860812994E+03  0.65560178239E+02  0.27506159463E+03  0.31625304605E+03  0.90902395120E+02 0.  0.
         23    2    1    2    0    0 -0.19252824982E+03 -0.15402958173E+03  0.30943754015E+03  0.40579187505E+03  0.90128883126E+02 0.  0.
        -11    1    3    3    0    0  0.19045665540E+02 -0.17363978452E+02  0.17264119302E+02  0.31020879079E+02  0.00000000000E+00 0.  1.
         11    1    3    3    0    0  0.89562464404E+02  0.82924156691E+02  0.25779747533E+03  0.28523216698E+03  0.00000000000E+00 0. -1.
        -13    1    4    4    0    0 -0.10758968360E+03 -0.42179001035E+02  0.95716757528E+02  0.15005434288E+03  0.00000000000E+00 0.  1.
         13    1    4    4    0    0 -0.84938566216E+02 -0.11185058069E+03  0.21372078263E+03  0.25573753217E+03  0.00000000000E+00 0. -1.
         21    1    1    2  502  501  0.83920119876E+02  0.88469403490E+02  0.22282735399E+03  0.25401073119E+03  0.00000000000E+00 0.  1.
<scales pt_clust_5="13000.00000" pt_clust_6="13000.00000" pt_clust_7="13000.00000" pt_clust_8="13000.00000" pt_clust_9="121.94024"></scales>
<clustering>
<clus scale="   90.129">  7  8 -1 -1</clus>
<clus scale="   90.902">  5  6 -1 -1</clus>
<clus scale="  121.940">  1  9  2 -1</clus>
<clus scale="  201.898">  1  7  2 -1</clus>
<clus scale="  121.940">  1  5  2 -1</clus>
</clustering>
</event>
<event>
 9    1  0.2423659E-006  0.9488574E+02  0.7546771E-02  0.1292890E+00
         -1   -1    0    0    0  501 -0.00000000000E+00  0.00000000000E+00  0.25726966613E+03  0.25726966613E+03  0.00000000000E+00 0.  1.
          1   -1    0    0  502    0  0.00000000000E+00 -0.00000000000E+00 -0.13833122094E+03  0.13833122094E+03  0.00000000000E+00 0. -1.
         23    2    1    2    0    0  0.51522150617E+02 -0.65070438469E+01  0.11333013409E+03  0.15406457340E+03  0.90527895488E+02 0.  0.
         23    2    1    2    0    0  0.23526003004E+02 -0.24408143074E+02  0.83090147724E+02  0.12932486528E+03  0.93122058962E+02 0.  0.
        -11    1    4    4    0    0 -0.35049185810E+02 -0.17502607055E+02  0.24599693798E+02  0.46259394880E+02  0.00000000000E+00 0. -1.
         11    1    4    4    0    0  0.58575188814E+02 -0.69055360184E+01  0.58490453926E+02  0.83065470400E+02  0.00000000000E+00 0.  1.
        -13    1    3    3    0    0  0.66771612282E+01  0.35371721095E+02  0.16895442476E+02  0.39764294433E+02  0.00000000000E+00 0.  1.
         13    1    3    3    0    0  0.44844989389E+02 -0.41878764942E+02  0.96434691610E+02  0.11430027897E+03  0.00000000000E+00 0. -1.
         21    1    1    2  502  501 -0.75048153621E+02  0.30915186921E+02 -0.77481836615E+02  0.11221144839E+03  0.00000000000E+00 0. -1.
<scales pt_clust_5="13000.00000" pt_clust_6="13000.00000" pt_clust_7="13000.00000" pt_clust_8="13000.00000" pt_clust_9="81.16634"></scales>
<clustering>
<clus scale="   81.166">  2  9  1 -1</clus>
<clus scale="   90.528">  7  8 -1 -1</clus>
<clus scale="   92.341">  1  7  2 -1</clus>
<clus scale="   93.122">  5  6 -1 -1</clus>
<clus scale="   81.166">  2  5  1 -1</clus>
</clustering>
</event>
<event>
 9    1  0.2423659E-006  0.1041637E+03  0.7546771E-02  0.1272767E+00
          1   -1    0    0  502    0  0.00000000000E+00  0.00000000000E+00  0.62064638354E+02  0.62064638354E+02  0.00000000000E+00 0. -1.
         -1   -1    0    0    0  501 -0.00000000000E+00 -0.00000000000E+00 -0.22542604618E+03  0.22542604618E+03  0.00000000000E+00 0.  1.
         23    2    1    2    0    0  0.36995145267E+02  0.91433329126E+01 -0.92618683339E+02  0.13513403497E+03  0.90723456685E+02 0.  0.
         23    2    1    2    0    0 -0.59697591693E+02 -0.14725707590E+02 -0.55962386296E+02  0.12469761166E+03  0.92935766829E+02 0.  0.
        -11    1    3    3    0    0 -0.19022558270E+02 -0.20465994432E+02 -0.73331418059E+01  0.28887533989E+02  0.00000000000E+00 0.  1.
         11    1    3    3    0    0  0.56017703537E+02  0.29609327345E+02 -0.85285541533E+02  0.10624650098E+03  0.00000000000E+00 0. -1.
        -13    1    4    4    0    0 -0.74599330102E+02  0.33986276341E+01 -0.13077136250E+02  0.75813074163E+02  0.00000000000E+00 0.  1.
         13    1    4    4    0    0  0.14901738409E+02 -0.18124335224E+02 -0.42885250046E+02  0.48884537498E+02  0.00000000000E+00 0. -1.
         21    1    1    2  502  501  0.22702446426E+02  0.55823746777E+01 -0.14780338189E+02  0.27659037904E+02  0.00000000000E+00 0. -1.
<scales pt_clust_5="13000.00000" pt_clust_6="13000.00000" pt_clust_7="13000.00000" pt_clust_8="13000.00000" pt_clust_9="23.37871"></scales>
<clustering>
<clus scale="   23.379">  1  9  2 -1</clus>
<clus scale="   90.723">  5  6 -1 -1</clus>
<clus scale="   92.936">  7  8 -1 -1</clus>
<clus scale="  102.195">  2  5  1 -1</clus>
<clus scale="   23.379">  1  5  2 -1</clus>
</clustering>
</event>
<event>
 9    1  0.2423659E-006  0.1225268E+03  0.7546771E-02  0.1239060E+00
         -4   -1    0    0    0  501 -0.00000000000E+00  0.00000000000E+00  0.10739893217E+03  0.10739893217E+03  0.00000000000E+00 0.  1.
          4   -1    0    0  502    0  0.00000000000E+00 -0.00000000000E+00 -0.21727669460E+03  0.21727669460E+03  0.00000000000E+00 0. -1.
         23    2    1    2    0    0  0.64854172541E+02  0.24786354004E+02 -0.85183843305E+01  0.11419155278E+03  0.90259186872E+02 0.  0.
         23    2    1    2    0    0 -0.81532399926E+02 -0.37302302377E+02 -0.12550368429E+03  0.17858172683E+03  0.90007024090E+02 0.  0.
        -11    1    4    4    0    0 -0.77753788262E+02  0.10753103917E+01 -0.46332142444E+02  0.90517817611E+02  0.00000000000E+00 0.  1.
         11    1    4    4    0    0 -0.37786116635E+01 -0.38377612769E+02 -0.79171541846E+02  0.88063909215E+02  0.00000000000E+00 0. -1.
        -13    1    3    3    0    0 -0.19298318996E+02  0.81419128667E+01  0.14378190827E+02  0.25405673238E+02  0.00000000000E+00 0.  1.
         13    1    3    3    0    0  0.84152491537E+02  0.16644441137E+02 -0.22896575158E+02  0.88785879545E+02  0.00000000000E+00 0. -1.
         21    1    1    2  502  501  0.16678227385E+02  0.12515948374E+02  0.24144306192E+02  0.31902347153E+02  0.00000000000E+00 0.  1.
<scales pt_clust_5="13000.00000" pt_clust_6="13000.00000" pt_clust_7="13000.00000" pt_clust_8="13000.00000" pt_clust_9="20.85215"></scales>
<clustering>
<clus scale="   20.852">  1  9  2 -1</clus>
<clus scale="   90.007">  5  6 -1 -1</clus>
<clus scale="   90.259">  7  8 -1 -1</clus>
<clus scale="  122.341">  2  5  1 -1</clus>
<clus scale="  122.341">  2  5  1 -1</clus>
</clustering>
</event>
<event>
 9    1  0.2423659E-006  0.9548820E+02  0.7546771E-02  0.1290497E+00
         -1   -1    0    0    0  501 -0.00000000000E+00  0.00000000000E+00  0.18121503378E+02  0.18121503378E+02  0.00000000000E+00 0.  1.
          1   -1    0    0  502    0  0.00000000000E+00 -0.00000000000E+00 -0.95189721830E+03  0.95189721830E+03  0.00000000000E+00 0. -1.
         23    2    1    2    0    0  0.47445817111E+01 -0.30827124293E+02 -0.21815977719E+03  0.23795872223E+03  0.89765485881E+02 0.  0.
         23    2    1    2    0    0 -0.49874366014E+02  0.79267175226E+01 -0.48355535789E+03  0.49454528669E+03  0.90548170607E+02 0.  0.
        -13    1    4    4    0    0  0.54569203730E+01  0.39241041325E+02 -0.20933993562E+03  0.21305596906E+03  0.00000000000E+00 0.  1.
         13    1    4    4    0    0 -0.55331286387E+02 -0.31314323802E+02 -0.27421542227E+03  0.28148931763E+03  0.00000000000E+00 0. -1.
        -13    1    3    3    0    0  0.41460384244E+02 -0.34103145377E+02 -0.16302446122E+03  0.17163613530E+03  0.00000000000E+00 0. -1.
         13    1    3    3    0    0 -0.36715802533E+02  0.32760210843E+01 -0.55135315972E+02  0.66322586931E+02  0.00000000000E+00 0.  1.
         21    1    1    2  502  501  0.45129784303E+02  0.22900406770E+02 -0.23206057984E+03  0.23751471276E+03  0.00000000000E+00 0.  1.
<scales pt_clust_5="13000.00000" pt_clust_6="13000.00000" pt_clust_7="13000.00000" pt_clust_8="13000.00000" pt_clust_9="50.60757"></scales>
<clustering>
<clus scale="   50.608">  2  9  1 -1</clus>
<clus scale="   89.765">  7  8 -1 -1</clus>
<clus scale="   90.548">  5  6 -1 -1</clus>
<clus scale="   94.746">  1  7  2 -1</clus>
<clus scale="   50.608">  2  5  1 -1</clus>
</clustering>
</event>
<event>
 9    1  0.2423659E-006  0.1285913E+03  0.7546771E-02  0.1234923E+00
          1   -1    0    0  502    0  0.00000000000E+00  0.00000000000E+00  0.10979017412E+03  0.10979017412E+03  0.00000000000E+00 0. -1.
         -1   -1    0    0    0  501 -0.00000000000E+00 -0.00000000000E+00 -0.32780827554E+03  0.32780827554E+03  0.00000000000E+00 0.  1.
         23    2    1    2    0    0 -0.43860697837E+02 -0.14108639264E+02 -0.15012650198E+03  0.18189020067E+03  0.91778341593E+02 0.  0.
         23    2    1    2    0    0  0.91371544978E+02 -0.65658302551E+02  0.10956715383E+02  0.13390060411E+03  0.71760366800E+02 0.  0.
        -11    1    3    3    0    0 -0.54634351187E+02 -0.44486361576E+02 -0.10399875544E+03  0.12561723540E+03  0.00000000000E+00 0.  1.
         11    1    3    3    0    0  0.10773653351E+02  0.30377722312E+02 -0.46127746541E+02  0.56272965270E+02  0.00000000000E+00 0. -1.
        -13    1    4    4    0    0  0.27490308397E+02  0.42235651998E+01 -0.20034776987E+02  0.34277512274E+02  0.00000000000E+00 0.  1.
         13    1    4    4    0    0  0.63881236581E+02 -0.69881867751E+02  0.30991492370E+02  0.99623091835E+02  0.00000000000E+00 0. -1.
         21    1    1    2  502  501 -0.47510847141E+02  0.79766941815E+02 -0.78848314816E+02  0.12180764488E+03  0.00000000000E+00 0. -1.
<scales pt_clust_5="13000.00000" pt_clust_6="13000.00000" pt_clust_7="13000.00000" pt_clust_8="13000.00000" pt_clust_9="92.84420"></scales>
<clustering>
<clus scale="   71.760">  7  8 -1 -1</clus>
<clus scale="   91.778">  5  6 -1 -1</clus>
<clus scale="   92.844">  2  9  1 -1</clus>
<clus scale="  115.161">  1  7  2 -1</clus>
<clus scale="  115.161">  1  5  2 -1</clus>
</clustering>
</event>
<event>
 9    1  0.2423659E-006  0.9639185E+02  0.7546771E-02  0.1288712E+00
          1   -1    0    0  502    0  0.00000000000E+00  0.00000000000E+00  0.71846573019E+02  0.71846573019E+02  0.00000000000E+00 0. -1.
         -1   -1    0    0    0  501 -0.00000000000E+00 -0.00000000000E+00 -0.44624132488E+03  0.44624132488E+03  0.00000000000E+00 0.  1.
         23    2    1    2    0    0 -0.22068764249E+02  0.11532125683E+02 -0.29076051238E+03  0.30547039680E+03  0.90279939534E+02 0.  0.
         23    2    1    2    0    0  0.20587653915E+02 -0.46933251057E+02 -0.12167491804E+03  0.16063167044E+03  0.91494078063E+02 0.  0.
        -11    1    3    3    0    0 -0.32268281307E+02 -0.30282062626E+02 -0.20244898063E+03  0.20722894357E+03  0.00000000000E+00 0.  1.
         11    1    3    3    0    0  0.10199517058E+02  0.41814188309E+02 -0.88311531752E+02  0.98241453229E+02  0.00000000000E+00 0. -1.
        -13    1    4    4    0    0 -0.16035891422E+02  0.15172729774E+02 -0.37218301022E+01  0.22387799396E+02  0.00000000000E+00 0.  1.
         13    1    4    4    0    0  0.36623545337E+02 -0.62105980831E+02 -0.11795308793E+03  0.13824387104E+03  0.00000000000E+00 0. -1.
         21    1    1    2  502  501  0.14811103341E+01  0.35401125374E+02  0.38040678550E+02  0.51985830666E+02  0.00000000000E+00 0. -1.
<scales pt_clust_5="13000.00000" pt_clust_6="13000.00000" pt_clust_7="13000.00000" pt_clust_8="13000.00000" pt_clust_9="35.43210"></scales>
<clustering>
<clus scale="   35.432">  1  9  2 -1</clus>
<clus scale="   90.280">  5  6 -1 -1</clus>
<clus scale="   91.494">  7  8 -1 -1</clus>
<clus scale="   95.240">  2  5  1 -1</clus>
<clus scale="   35.432">  1  5  2 -1</clus>
</clustering>
</event>
<event>
 9    1  0.2423659E-006  0.1172983E+03  0.7546771E-02  0.1250246E+00
          1   -1    0    0  502    0  0.00000000000E+00  0.00000000000E+00  0.11001760269E+03  0.11001760269E+03  0.00000000000E+00 0. -1.
         -1   -1    0    0    0  501 -0.00000000000E+00 -0.00000000000E+00 -0.35325579990E+03  0.35325579990E+03  0.00000000000E+00 0.  1.
         23    2    1    2    0    0 -0.15417896157E+01  0.25120034861E+02 -0.79708500771E+02  0.12123588245E+03  0.87814012730E+02 0.  0.
         23    2    1    2    0    0  0.25076946475E+02 -0.87401781379E+02  0.31939462954E+02  0.13554027602E+03  0.95305364471E+02 0.  0.
        -11    1    3    3    0    0  0.44117188379E+01 -0.32812769682E+02 -0.28390605399E+02  0.43613846336E+02  0.00000000000E+00 0.  1.
         11    1    3    3    0    0 -0.59535084536E+01  0.57932804543E+02 -0.51317895372E+02  0.77622036114E+02  0.00000000000E+00 0. -1.
        -13    1    4    4    0    0 -0.46308783696E+01 -0.21243441200E+02 -0.32113484134E+02  0.38781499348E+02  0.00000000000E+00 0.  1.
         13    1    4    4    0    0  0.29707824845E+02 -0.66158340179E+02  0.64052947088E+02  0.96758776671E+02  0.00000000000E+00 0. -1.
         21    1    1    2  502  501 -0.23535156859E+02  0.62281746518E+02 -0.19546915939E+03  0.20649724413E+03  0.00000000000E+00 0.  1.
<scales pt_clust_5="13000.00000" pt_clust_6="13000.00000" pt_clust_7="13000.00000" pt_clust_8="13000.00000" pt_clust_9="66.58017"></scales>
<clustering>
<clus scale="   66.580">  2  9  1 -1</clus>
<clus scale="   87.814">  5  6 -1 -1</clus>
<clus scale="   95.305">  7  8 -1 -1</clus>
<clus scale="  111.297">  2  5  1 -1</clus>
<clus scale="  117.298">  1  5  2 -1</clus>
</clustering>
</event>
<event>
 9    1  0.2423659E-006  0.2004615E+03  0.7546771E-02  0.1176159E+00
          1   -1    0    0  502    0  0.00000000000E+00  0.00000000000E+00  0.47106358328E+03  0.47106358328E+03  0.00000000000E+00 0. -1.
         -1   -1    0    0    0  501 -0.00000000000E+00 -0.00000000000E+00 -0.13401920780E+03  0.13401920780E+03  0.00000000000E+00 0.  1.
         23    2    1    2    0    0  0.19376794485E+03 -0.47390172687E+02  0.61681932144E+02  0.22802473636E+03  0.91644829193E+02 0.  0.
         23    2    1    2    0    0 -0.52505668573E+02  0.13169229189E+01  0.97401852153E+02  0.14522245120E+03  0.94041799279E+02 0.  0.
        -11    1    4    4    0    0  0.38269172990E+01  0.39361305365E+02  0.40047041698E+02  0.56282530192E+02  0.00000000000E+00 0. -1.
         11    1    4    4    0    0 -0.56332585872E+02 -0.38044382446E+02  0.57354810454E+02  0.88939921008E+02  0.00000000000E+00 0.  1.
        -11    1    3    3    0    0  0.93406862855E+02 -0.21563294232E+02  0.77398800978E+02  0.12320873378E+03  0.00000000000E+00 0. -1.
         11    1    3    3    0    0  0.10036108200E+03 -0.25826878455E+02 -0.15716868834E+02  0.10481600258E+03  0.00000000000E+00 0.  1.
         21    1    1    2  502  501 -0.14126227628E+03  0.46073249768E+02  0.17796059119E+03  0.23183560352E+03  0.00000000000E+00 0.  1.
<scales pt_clust_5="13000.00000" pt_clust_6="13000.00000" pt_clust_7="13000.00000" pt_clust_8="13000.00000" pt_clust_9="178.28643"></scales>
<clustering>
<clus scale="   91.645">  7  8 -1 -1</clus>
<clus scale="   94.042">  5  6 -1 -1</clus>
<clus scale="  107.715">  1  5  2 -1</clus>
<clus scale="  178.286">  1  9  2 -1</clus>
<clus scale="  107.715">  1  5  2 -1</clus>
</clustering>
</event>
<event>
 9    1  0.2423659E-006  0.9561666E+02  0.7546771E-02  0.1298251E+00
          2   -1    0    0  502    0  0.00000000000E+00  0.00000000000E+00  0.54775009914E+03  0.54775009914E+03  0.00000000000E+00 0. -1.
         -2   -1    0    0    0  501 -0.00000000000E+00 -0.00000000000E+00 -0.25613564031E+02  0.25613564031E+02  0.00000000000E+00 0.  1.
         23    2    1    2    0    0  0.52764749244E+01  0.95587206206E+01  0.18118079227E+03  0.20473410535E+03  0.94712005996E+02 0.  0.
         23    2    1    2    0    0  0.24946269697E+02  0.22510953110E+02  0.15901274867E+03  0.18142610861E+03  0.80630758807E+02 0.  0.
        -13    1    3    3    0    0 -0.19051634314E+02 -0.20491789490E+02  0.10752091761E+02  0.29974750771E+02  0.00000000000E+00 0.  1.
         13    1    3    3    0    0  0.24328109239E+02  0.30050510110E+02  0.17042870051E+03  0.17475935458E+03  0.00000000000E+00 0. -1.
        -13    1    4    4    0    0  0.43663523746E+02  0.37929031422E+02  0.13686761061E+03  0.14858619574E+03  0.00000000000E+00 0. -1.
         13    1    4    4    0    0 -0.18717254048E+02 -0.15418078312E+02  0.22145138063E+02  0.32839912877E+02  0.00000000000E+00 0.  1.
         21    1    1    2  502  501 -0.30222744622E+02 -0.32069673731E+02  0.18194299418E+03  0.18720344921E+03  0.00000000000E+00 0. -1.
<scales pt_clust_5="13000.00000" pt_clust_6="13000.00000" pt_clust_7="13000.00000" pt_clust_8="13000.00000" pt_clust_9="44.06675"></scales>
<clustering>
<clus scale="   44.067">  1  9  2 -1</clus>
<clus scale="   80.631">  7  8 -1 -1</clus>
<clus scale="   81.691">  1  7  2 -1</clus>
<clus scale="   94.712">  5  6 -1 -1</clus>
<clus scale="   44.067">  1  5  2 -1</clus>
</clustering>
</event>
<event>
 9    1  0.2423659E-006  0.9573601E+02  0.7546771E-02  0.1290846E+00
         -1   -1    0    0    0  501 -0.00000000000E+00  0.00000000000E+00  0.57299534757E+02  0.57299534757E+02  0.00000000000E+00 0.  1.
          1   -1    0    0  502    0  0.00000000000E+00 -0.00000000000E+00 -0.32161510651E+03  0.32161510651E+03  0.00000000000E+00 0. -1.
         23    2    1    2    0    0  0.35008718065E+02  0.14026018370E+02 -0.14304211131E+02  0.95970472452E+02  0.87082613619E+02 0.  0.
         23    2    1    2    0    0 -0.54073865726E+01 -0.29200502328E+02 -0.21418624016E+03  0.23405712508E+03  0.89582828479E+02 0.  0.
        -13    1    3    3    0    0 -0.27309721970E+02  0.88778899560E+01  0.76154707015E+01  0.29709144016E+02  0.00000000000E+00 0.  1.
         13    1    3    3    0    0  0.62318440035E+02  0.51481284139E+01 -0.21919681833E+02  0.66261328437E+02  0.00000000000E+00 0. -1.
        -13    1    4    4    0    0 -0.24027210014E+02 -0.43939922554E+02 -0.20047486464E+03  0.20663541557E+03  0.00000000000E+00 0.  1.
         13    1    4    4    0    0  0.18619823441E+02  0.14739420226E+02 -0.13711375523E+02  0.27421709508E+02  0.00000000000E+00 0. -1.
         21    1    1    2  502  501 -0.29601331493E+02  0.15174483958E+02 -0.35825120462E+02  0.48887043740E+02  0.00000000000E+00 0. -1.
<scales pt_clust_5="13000.00000" pt_clust_6="13000.00000" pt_clust_7="13000.00000" pt_clust_8="13000.00000" pt_clust_9="33.26415"></scales>
<clustering>
<clus scale="   33.264">  2  9  1 -1</clus>
<clus scale="   87.083">  5  6 -1 -1</clus>
<clus scale="   89.583">  7  8 -1 -1</clus>
<clus scale="   93.401">  1  5  2 -1</clus>
<clus scale="   33.264">  2  5  1 -1</clus>
</clustering>
</event>
<event>
 9    1  0.2423659E-006  0.1135587E+03  0.7546771E-02  0.1265903E+00
         -2   -1    0    0    0  501 -0.00000000000E+00  0.00000000000E+00  0.66109350154E+02  0.66109350154E+02  0.00000000000E+00 0.  1.
          2   -1    0    0  502    0  0.00000000000E+00 -0.00000000000E+00 -0.44230292988E+03  0.44230292988E+03  0.00000000000E+00 0. -1.
         23    2    1    2    0    0 -0.77638716142E+01  0.18032779040E+02 -0.42740683012E+01  0.11417276286E+03  0.11239080610E+03 0.  0.
         23    2    1    2    0    0 -0.28134321523E+02 -0.80362264918E+01 -0.25578892312E+03  0.27227671599E+03  0.88603137054E+02 0.  0.
        -11    1    4    4    0    0 -0.95647228406E+00 -0.38657987662E+02 -0.19621960635E+03  0.19999372182E+03  0.00000000000E+00 0. -1.
         11    1    4    4    0    0 -0.27177849239E+02  0.30621761170E+02 -0.59569316767E+02  0.72282994172E+02  0.00000000000E+00 0.  1.
        -11    1    3    3    0    0 -0.44199915459E+02 -0.14265676432E+02  0.29403542140E+02  0.54970085874E+02  0.00000000000E+00 0. -1.
         11    1    3    3    0    0  0.36436043845E+02  0.32298455472E+02 -0.33677610441E+02  0.59202676983E+02  0.00000000000E+00 0.  1.
         21    1    1    2  502  501  0.35898193137E+02 -0.99965525480E+01 -0.11613058831E+03  0.12196280119E+03  0.00000000000E+00 0. -1.
<scales pt_clust_5="13000.00000" pt_clust_6="13000.00000" pt_clust_7="13000.00000" pt_clust_8="13000.00000" pt_clust_9="37.26408"></scales>
<clustering>
<clus scale="   37.264">  2  9  1 -1</clus>
<clus scale="   88.603">  5  6 -1 -1</clus>
<clus scale="   90.080">  2  5  1 -1</clus>
<clus scale="  112.391">  7  8 -1 -1</clus>
<clus scale="   37.264">  2  5  1 -1</clus>
</clustering>
</event>
<event>
 9    1  0.2423659E-006  0.1060739E+03  0.7546771E-02  0.1268123E+00
         -1   -1    0    0    0  501 -0.00000000000E+00  0.00000000000E+00  0.19484471458E+03  0.19484471458E+03  0.00000000000E+00 0.  1.
          1   -1    0    0  502    0  0.00000000000E+00 -0.00000000000E+00 -0.14254676310E+03  0.14254676310E+03  0.00000000000E+00 0. -1.
         23    2    1    2    0    0  0.59801112146E+02 -0.21039433970E+02  0.12047481999E+03  0.16358457551E+03  0.90702261810E+02 0.  0.
         23    2    1    2    0    0 -0.26996208813E+02  0.28150752540E+02 -0.76898938641E+00  0.98503816552E+02  0.90449711839E+02 0.  0.
        -11    1    3    3    0    0  0.43420893099E+02  0.14751562604E+02  0.10873714340E+02  0.47129823046E+02  0.00000000000E+00 0.  1.
         11    1    3    3    0    0  0.16380219047E+02 -0.35790996574E+02  0.10960110565E+03  0.11645475246E+03  0.00000000000E+00 0. -1.
        -13    1    4    4    0    0 -0.24807676306E+02 -0.13720543008E+02 -0.34527164734E+02  0.44674368587E+02  0.00000000000E+00 0. -1.
         13    1    4    4    0    0 -0.21885325071E+01  0.41871295548E+02  0.33758175347E+02  0.53829447965E+02  0.00000000000E+00 0.  1.
         21    1    1    2  502  501 -0.32804903333E+02 -0.71113185698E+01 -0.67407879123E+02  0.75303085609E+02  0.00000000000E+00 0.  1.
<scales pt_clust_5="13000.00000" pt_clust_6="13000.00000" pt_clust_7="13000.00000" pt_clust_8="13000.00000" pt_clust_9="33.56684"></scales>
<clustering>
<clus scale="   33.567">  2  9  1 -1</clus>
<clus scale="   90.450">  7  8 -1 -1</clus>
<clus scale="   90.702">  5  6 -1 -1</clus>
<clus scale="  105.858">  2  7  1 -1</clus>
<clus scale="   33.567">  2  5  1 -1</clus>
</clustering>
</event>
<event>
 9    1  0.2423659E-006  0.1012860E+03  0.7546771E-02  0.1277840E+00
          2   -1    0    0  502    0  0.00000000000E+00  0.00000000000E+00  0.29721906868E+03  0.29721906868E+03  0.00000000000E+00 0. -1.
         -2   -1    0    0    0  501 -0.00000000000E+00 -0.00000000000E+00 -0.87682845668E+02  0.87682845668E+02  0.00000000000E+00 0.  1.
         23    2    1    2    0    0 -0.18697954152E+02  0.56403158113E+02 -0.22540759701E+01  0.11053082080E+03  0.93172161905E+02 0.  0.
         23    2    1    2    0    0 -0.35464795802E+01 -0.83623004819E+01  0.55213894251E+02  0.10908676473E+03  0.93642098085E+02 0.  0.
        -11    1    4    4    0    0 -0.32008686229E+02 -0.40139804799E+02  0.32412836515E+02  0.60715334919E+02  0.00000000000E+00 0.  1.
         11    1    4    4    0    0  0.28462206648E+02  0.31777504317E+02  0.22801057735E+02  0.48371429809E+02  0.00000000000E+00 0. -1.
        -13    1    3    3    0    0 -0.45718974216E+02  0.41383473879E+02  0.27593221650E+02  0.67558880946E+02  0.00000000000E+00 0.  1.
         13    1    3    3    0    0  0.27021020064E+02  0.15019684234E+02 -0.29847297620E+02  0.42971939856E+02  0.00000000000E+00 0. -1.
         21    1    1    2  502  501  0.22244433732E+02 -0.48040857631E+02  0.15657640473E+03  0.16528432882E+03  0.00000000000E+00 0. -1.
<scales pt_clust_5="13000.00000" pt_clust_6="13000.00000" pt_clust_7="13000.00000" pt_clust_8="13000.00000" pt_clust_9="52.94090"></scales>
<clustering>
<clus scale="   52.941">  1  9  2 -1</clus>
<clus scale="   93.172">  7  8 -1 -1</clus>
<clus scale="   93.642">  5  6 -1 -1</clus>
<clus scale="  100.852">  2  7  1 -1</clus>
<clus scale="   52.941">  1  5  2 -1</clus>
</clustering>
</event>
<event>
 9    1  0.2423659E-006  0.9696774E+02  0.7546771E-02  0.1287011E+00
         -2   -1    0    0    0  501 -0.00000000000E+00  0.00000000000E+00  0.19425492350E+02  0.19425492350E+02  0.00000000000E+00 0.  1.
          2   -1    0    0  502    0  0.00000000000E+00 -0.00000000000E+00 -0.81256585547E+03  0.81256585547E+03  0.00000000000E+00 0. -1.
         23    2    1    2    0    0  0.38687560234E+02 -0.14579717030E+02 -0.28112058653E+03  0.29865493446E+03  0.91960264460E+02 0.  0.
         23    2    1    2    0    0  0.57772597534E+01  0.34193721925E+02 -0.29941962130E+03  0.31525235747E+03  0.92354490535E+02 0.  0.
        -11    1    3    3    0    0  0.64136820607E+02  0.83731132385E+01 -0.20949205934E+03  0.21925000276E+03  0.00000000000E+00 0.  1.
         11    1    3    3    0    0 -0.25449260372E+02 -0.22952830269E+02 -0.71628527185E+02  0.79404931696E+02  0.00000000000E+00 0. -1.
        -13    1    4    4    0    0  0.40303751087E+02  0.39306386270E+02 -0.12106263252E+03  0.13351234155E+03  0.00000000000E+00 0.  1.
         13    1    4    4    0    0 -0.34526491333E+02 -0.51126643443E+01 -0.17835698878E+03  0.18174001592E+03  0.00000000000E+00 0. -1.
         21    1    1    2  502  501 -0.44464819988E+02 -0.19614004895E+02 -0.21260015530E+03  0.21808405590E+03  0.00000000000E+00 0. -1.
<scales pt_clust_5="13000.00000" pt_clust_6="13000.00000" pt_clust_7="13000.00000" pt_clust_8="13000.00000" pt_clust_9="48.59866"></scales>
<clustering>
<clus scale="   48.599">  2  9  1 -1</clus>
<clus scale="   91.960">  5  6 -1 -1</clus>
<clus scale="   92.354">  7  8 -1 -1</clus>
<clus scale="   96.592">  1  5  2 -1</clus>
<clus scale="   48.599">  2  5  1 -1</clus>
</clustering>
</event>
<event>
 9    1  0.2423659E-006  0.1397998E+03  0.7546771E-02  0.1223129E+00
          3   -1    0    0  502    0  0.00000000000E+00  0.00000000000E+00  0.26384876899E+02  0.26384876899E+02  0.00000000000E+00 0. -1.
         -3   -1    0    0    0  501 -0.00000000000E+00 -0.00000000000E+00 -0.14264538142E+04  0.14264538142E+04  0.00000000000E+00 0.  1.
         23    2    1    2    0    0 -0.74839480614E+02  0.69221214324E+02 -0.70125352357E+03  0.71441574546E+03  0.90779010053E+02 0.  0.
         23    2    1    2    0    0  0.42505404129E+02  0.50692375848E+02 -0.33877622954E+03  0.35756473611E+03  0.93310130547E+02 0.  0.
        -11    1    3    3    0    0 -0.91477101897E+01 -0.20769262857E+02 -0.76122951679E+02  0.79433913750E+02  0.00000000000E+00 0.  1.
         11    1    3    3    0    0 -0.65691770425E+02  0.89990477181E+02 -0.62513057189E+03  0.63498183171E+03  0.00000000000E+00 0. -1.
        -11    1    4    4    0    0 -0.63157898724E+01  0.46872223464E+02 -0.70756758302E+02  0.85108245074E+02  0.00000000000E+00 0. -1.
         11    1    4    4    0    0  0.48821194001E+02  0.38201523835E+01 -0.26801947124E+03  0.27245649104E+03  0.00000000000E+00 0.  1.
         21    1    1    2  502  501  0.32334076486E+02 -0.11991359017E+03 -0.36003918416E+03  0.38085820950E+03  0.00000000000E+00 0.  1.
<scales pt_clust_5="13000.00000" pt_clust_6="13000.00000" pt_clust_7="13000.00000" pt_clust_8="13000.00000" pt_clust_9="106.31624"></scales>
<clustering>
<clus scale="   90.779">  5  6 -1 -1</clus>
<clus scale="   93.310">  7  8 -1 -1</clus>
<clus scale="  114.382">  1  7  2 -1</clus>
<clus scale="  106.316">  1  9  2 -1</clus>
<clus scale="  114.382">  1  5  2 -1</clus>
</clustering>
</event>
<event>
 9    1  0.2423659E-006  0.1071753E+03  0.7546771E-02  0.1266819E+00
         -1   -1    0    0    0  501 -0.00000000000E+00  0.00000000000E+00  0.13519324887E+03  0.13519324887E+03  0.00000000000E+00 0.  1.
          1   -1    0    0  502    0  0.00000000000E+00 -0.00000000000E+00 -0.16942873611E+03  0.16942873611E+03  0.00000000000E+00 0. -1.
         23    2    1    2    0    0 -0.25919731391E+02  0.48425385055E+02  0.49571233987E+02  0.11857157060E+03  0.92655597363E+02 0.  0.
         23    2    1    2    0    0 -0.11428091368E+02 -0.59540882502E+02 -0.19133110582E+02  0.11054485126E+03  0.90434342247E+02 0.  0.
        -11    1    4    4    0    0 -0.25673963360E+02 -0.79897614390E+02 -0.16827600981E+02  0.85591759735E+02  0.00000000000E+00 0.  1.
         11    1    4    4    0    0  0.14245871992E+02  0.20356731889E+02 -0.23055096010E+01  0.24953091522E+02  0.00000000000E+00 0. -1.
        -13    1    3    3    0    0  0.14457261011E+02  0.63013794809E+02  0.32624695032E+02  0.72416306576E+02  0.00000000000E+00 0. -1.
         13    1    3    3    0    0 -0.40376992402E+02 -0.14588409754E+02  0.16946538955E+02  0.46155264025E+02  0.00000000000E+00 0.  1.
         21    1    1    2  502  501  0.37347822759E+02  0.11115497447E+02 -0.64673610642E+02  0.75505563118E+02  0.00000000000E+00 0. -1.
<scales pt_clust_5="13000.00000" pt_clust_6="13000.00000" pt_clust_7="13000.00000" pt_clust_8="13000.00000" pt_clust_9="38.96683"></scales>
<clustering>
<clus scale="   38.967">  2  9  1 -1</clus>
<clus scale="   90.434">  5  6 -1 -1</clus>
<clus scale="   92.656">  7  8 -1 -1</clus>
<clus scale="  105.261">  2  5  1 -1</clus>
<clus scale="   38.967">  2  5  1 -1</clus>
</clustering>
</event>
<event>
 9    1  0.2423659E-006  0.1124749E+03  0.7546771E-02  0.1257165E+00
         -2   -1    0    0    0  501 -0.00000000000E+00  0.00000000000E+00  0.22658824275E+03  0.22658824275E+03  0.00000000000E+00 0.  1.
          2   -1    0    0  502    0  0.00000000000E+00 -0.00000000000E+00 -0.93272181031E+02  0.93272181031E+02  0.00000000000E+00 0. -1.
         23    2    1    2    0    0 -0.13863030070E+02  0.67967740738E+02  0.12911542037E+03  0.17152456610E+03  0.89095946116E+02 0.  0.
         23    2    1    2    0    0  0.47106272404E+02 -0.56007081727E+02  0.19322235088E+01  0.11293365090E+03  0.85991173472E+02 0.  0.
        -13    1    3    3    0    0  0.34169966967E+02  0.22602248810E+02  0.24329363125E+02  0.47648359929E+02  0.00000000000E+00 0. -1.
         13    1    3    3    0    0 -0.48032997037E+02  0.45365491928E+02  0.10478605725E+03  0.12387620617E+03  0.00000000000E+00 0.  1.
        -13    1    4    4    0    0 -0.25199592899E+02 -0.19079812356E+02  0.28763782056E+01  0.31738498286E+02  0.00000000000E+00 0.  1.
         13    1    4    4    0    0  0.72305865303E+02 -0.36927269370E+02 -0.94415469678E+00  0.81195152617E+02  0.00000000000E+00 0. -1.
         21    1    1    2  502  501 -0.33243242334E+02 -0.11960659011E+02  0.22684178324E+01  0.35402206772E+02  0.00000000000E+00 0.  1.
<scales pt_clust_5="13000.00000" pt_clust_6="13000.00000" pt_clust_7="13000.00000" pt_clust_8="13000.00000" pt_clust_9="35.32946"></scales>
<clustering>
<clus scale="   35.329">  2  9  1 -1</clus>
<clus scale="   85.991">  7  8 -1 -1</clus>
<clus scale="   89.096">  5  6 -1 -1</clus>
<clus scale="  110.032">  2  7  1 -1</clus>
<clus scale="   35.329">  2  5  1 -1</clus>
</clustering>
</event>
<event>
 9    1  0.2423659E-006  0.9099041E+02  0.7546771E-02  0.1300939E+00
          1   -1    0    0  502    0  0.00000000000E+00  0.00000000000E+00  0.48939283748E+03  0.48939283748E+03  0.00000000000E+00 0. -1.
         -1   -1    0    0    0  501 -0.00000000000E+00 -0.00000000000E+00 -0.31133240229E+02  0.31133240229E+02  0.00000000000E+00 0.  1.
         23    2    1    2    0    0  0.26739589077E+02 -0.12064490733E+02  0.13622106939E+03  0.16553764729E+03  0.89364284625E+02 0.  0.
         23    2    1    2    0    0  0.91341048185E+01 -0.27709569754E+02  0.18502696497E+03  0.20787940224E+03  0.90153291596E+02 0.  0.
        -11    1    4    4    0    0  0.38487716783E+02  0.79340592536E+01  0.13121051608E+03  0.13696880364E+03  0.00000000000E+00 0. -1.
         11    1    4    4    0    0 -0.29353611964E+02 -0.35643629007E+02  0.53816448887E+02  0.70910598608E+02  0.00000000000E+00 0.  1.
        -13    1    3    3    0    0 -0.30893252940E+02 -0.10553868467E+02  0.28399222296E+02  0.43270001662E+02  0.00000000000E+00 0.  1.
         13    1    3    3    0    0  0.57632842017E+02 -0.15106222658E+01  0.10782184709E+03  0.12226764563E+03  0.00000000000E+00 0. -1.
         21    1    1    2  502  501 -0.35873693896E+02  0.39774060487E+02  0.13701156289E+03  0.14710902816E+03  0.00000000000E+00 0. -1.
<scales pt_clust_5="13000.00000" pt_clust_6="13000.00000" pt_clust_7="13000.00000" pt_clust_8="13000.00000" pt_clust_9="53.56209"></scales>
<clustering>
<clus scale="   53.562">  1  9  2 -1</clus>
<clus scale="   89.364">  7  8 -1 -1</clus>
<clus scale="   90.153">  5  6 -1 -1</clus>
<clus scale="   90.209">  2  7  1 -1</clus>
<clus scale="   53.562">  1  5  2 -1</clus>
</clustering>
</event>
<event>
 9    1  0.2423659E-006  0.9409809E+02  0.7546771E-02  0.1294343E+00
          1   -1    0    0  502    0  0.00000000000E+00  0.00000000000E+00  0.35914396495E+03  0.35914396495E+03  0.00000000000E+00 0. -1.
         -1   -1    0    0    0  501 -0.00000000000E+00 -0.00000000000E+00 -0.10727308157E+03  0.10727308157E+03  0.00000000000E+00 0.  1.
         23    2    1    2    0    0 -0.31842821957E+01  0.14925901439E+02 -0.19910796011E+02  0.94730193954E+02  0.91347948318E+02 0.  0.
         23    2    1    2    0    0 -0.68971234073E+01  0.13837881710E+02  0.30924797533E+03  0.32338868189E+03  0.93310621298E+02 0.  0.
        -11    1    4    4    0    0 -0.20099001052E+02 -0.36888037749E+02  0.12832673247E+03  0.13502758029E+03  0.00000000000E+00 0.  1.
         11    1    4    4    0    0  0.13201877644E+02  0.50725919459E+02  0.18092124286E+03  0.18836110160E+03  0.00000000000E+00 0. -1.
        -11    1    3    3    0    0  0.42630351309E+02  0.16074542684E+02 -0.17604467094E+02  0.48843167760E+02  0.00000000000E+00 0. -1.
         11    1    3    3    0    0 -0.45814633504E+02 -0.11486412451E+01 -0.23063289163E+01  0.45887026194E+02  0.00000000000E+00 0.  1.
         21    1    1    2  502  501  0.10081405603E+02 -0.28763783148E+02 -0.37466295939E+02  0.48298170683E+02  0.00000000000E+00 0.  1.
<scales pt_clust_5="13000.00000" pt_clust_6="13000.00000" pt_clust_7="13000.00000" pt_clust_8="13000.00000" pt_clust_9="30.47934"></scales>
<clustering>
<clus scale="   30.479">  2  9  1 -1</clus>
<clus scale="   91.348">  7  8 -1 -1</clus>
<clus scale="   92.152">  2  7  1 -1</clus>
<clus scale="   93.311">  5  6 -1 -1</clus>
<clus scale="   94.098">  1  5  2 -1</clus>
</clustering>
</event>
<event>
 9    1  0.2423659E-006  0.2340641E+03  0.7546771E-02  0.1124823E+00
          2   -1    0    0  502    0  0.00000000000E+00  0.00000000000E+00  0.12652620927E+04  0.12652620927E+04  0.00000000000E+00 0. -1.
         -2   -1    0    0    0  501 -0.00000000000E+00 -0.00000000000E+00 -0.10853024257E+03  0.10853024257E+03  0.00000000000E+00 0.  1.
         23    2    1    2    0    0  0.19953639118E+03 -0.28371659270E+02  0.11873381749E+03  0.25074211763E+03  0.90300430156E+02 0.  0.
         23    2    1    2    0    0 -0.21158122345E+03 -0.73280825012E+00  0.10591677872E+04  0.10850988471E+04  0.10409589528E+03 0.  0.
        -13    1    4    4    0    0 -0.19601731504E+03  0.32857256943E+02  0.88642612727E+03  0.90843473416E+03  0.00000000000E+00 0. -1.
         13    1    4    4    0    0 -0.15563908413E+02 -0.33590065193E+02  0.17274165996E+03  0.17666411297E+03  0.00000000000E+00 0.  1.
        -13    1    3    3    0    0  0.14936702449E+03 -0.17984707048E+02  0.38077830015E+02  0.15518981548E+03  0.00000000000E+00 0.  1.
         13    1    3    3    0    0  0.50169366690E+02 -0.10386952223E+02  0.80655987474E+02  0.95552302149E+02  0.00000000000E+00 0. -1.
         21    1    1    2  502  501  0.12044832278E+02  0.29104467521E+02 -0.21169754582E+02  0.37951370506E+02  0.00000000000E+00 0. -1.
<scales pt_clust_5="13000.00000" pt_clust_6="13000.00000" pt_clust_7="13000.00000" pt_clust_8="13000.00000" pt_clust_9="31.49838"></scales>
<clustering>
<clus scale="   31.498">  2  9  1 -1</clus>
<clus scale="   90.300">  7  8 -1 -1</clus>
<clus scale="  104.096">  5  6 -1 -1</clus>
<clus scale="  228.264">  2  7  1 -1</clus>
<clus scale="  234.064">  1  5  2 -1</clus>
</clustering>
</event>
<event>
 9    1  0.2423659E-006  0.1299038E+03  0.7546771E-02  0.1229810E+00
          2   -1    0    0  502    0  0.00000000000E+00  0.00000000000E+00  0.12719811486E+03  0.12719811486E+03  0.00000000000E+00 0. -1.
         -2   -1    0    0    0  501 -0.00000000000E+00 -0.00000000000E+00 -0.65634793272E+03  0.65634793272E+03  0.00000000000E+00 0.  1.
         23    2    1    2    0    0 -0.63825274241E+02  0.11991371513E+02 -0.24354311788E+03  0.26527790724E+03  0.82714322722E+02 0.  0.
         23    2    1    2    0    0  0.73564197896E+02  0.69207047153E+02  0.70241507171E+02  0.15314353645E+03  0.91201791861E+02 0.  0.
        -11    1    3    3    0    0  0.67720574140E+00  0.36184272472E+02 -0.78975099325E+02  0.86872472598E+02  0.00000000000E+00 0. -1.
         11    1    3    3    0    0 -0.64502479983E+02 -0.24192900959E+02 -0.16456801855E+03  0.17840543465E+03  0.00000000000E+00 0.  1.
        -13    1    4    4    0    0  0.46142677552E+02  0.54704046480E+02 -0.50180132312E+01  0.71741618672E+02  0.00000000000E+00 0.  1.
         13    1    4    4    0    0  0.27421520344E+02  0.14503000673E+02  0.75259520402E+02  0.81401917777E+02  0.00000000000E+00 0. -1.
         21    1    1    2  502  501 -0.97389236547E+01 -0.81198418666E+02 -0.35584820715E+03  0.36512460388E+03  0.00000000000E+00 0.  1.
<scales pt_clust_5="13000.00000" pt_clust_6="13000.00000" pt_clust_7="13000.00000" pt_clust_8="13000.00000" pt_clust_9="81.78038"></scales>
<clustering>
<clus scale="   81.780">  2  9  1 -1</clus>
<clus scale="   82.714">  5  6 -1 -1</clus>
<clus scale="   91.202">  7  8 -1 -1</clus>
<clus scale="  124.092">  2  5  1 -1</clus>
<clus scale="  129.904">  1  5  2 -1</clus>
</clustering>
</event>
<event>
 9    1  0.2423659E-006  0.1430806E+03  0.7546771E-02  0.1229511E+00
         -2   -1    0    0    0  501 -0.00000000000E+00  0.00000000000E+00  0.12742658286E+03  0.12742658286E+03  0.00000000000E+00 0.  1.
          2   -1    0    0  502    0  0.00000000000E+00 -0.00000000000E+00 -0.27922702295E+03  0.27922702295E+03  0.00000000000E+00 0. -1.
         23    2    1    2    0    0 -0.10003660761E+03  0.67180887845E+01 -0.63696556651E+02  0.15338646418E+03  0.97044837499E+02 0.  0.
         23    2    1    2    0    0 -0.71399896237E+01 -0.65201788582E+01 -0.10952467004E+03  0.14397069951E+03  0.92943083579E+02 0.  0.
        -11    1    4    4    0    0  0.13790727321E+02 -0.42999158612E+02 -0.30625658683E+02  0.54562283411E+02  0.00000000000E+00 0.  1.
         11    1    4    4    0    0 -0.20930716945E+02  0.36478979753E+02 -0.78899011358E+02  0.89408416097E+02  0.00000000000E+00 0. -1.
        -13    1    3    3    0    0 -0.16343662155E+02  0.42485993061E+02 -0.67374385208E+01  0.46017040071E+02  0.00000000000E+00 0. -1.
         13    1    3    3    0    0 -0.83692945453E+02 -0.35767904277E+02 -0.56959118131E+02  0.10736942411E+03  0.00000000000E+00 0.  1.
         21    1    1    2  502  501  0.10717659723E+03 -0.19790992637E+00  0.21420786606E+02  0.10929644213E+03  0.00000000000E+00 0.  1.
<scales pt_clust_5="13000.00000" pt_clust_6="13000.00000" pt_clust_7="13000.00000" pt_clust_8="13000.00000" pt_clust_9="105.13968"></scales>
<clustering>
<clus scale="   92.943">  5  6 -1 -1</clus>
<clus scale="   93.445">  2  5  1 -1</clus>
<clus scale="   97.045">  7  8 -1 -1</clus>
<clus scale="  105.140">  1  9  2 -1</clus>
<clus scale="   93.445">  2  5  1 -1</clus>
</clustering>
</event>
<event>
 9    1  0.2423659E-006  0.1239715E+03  0.7546771E-02  0.1240538E+00
          1   -1    0    0  502    0  0.00000000000E+00  0.00000000000E+00  0.87800960678E+03  0.87800960678E+03  0.00000000000E+00 0. -1.
         -1   -1    0    0    0  501 -0.00000000000E+00 -0.00000000000E+00 -0.50580855995E+02  0.50580855995E+02  0.00000000000E+00 0.  1.
         23    2    1    2    0    0  0.50950583013E+02 -0.36072605662E+02  0.12103944913E+03  0.16669826857E+03  0.96127882062E+02 0.  0.
         23    2    1    2    0    0  0.75573275135E+02  0.25171590006E+02  0.53959440925E+03  0.55225523431E+03  0.86479988827E+02 0.  0.
        -13    1    4    4    0    0  0.81736679381E+02  0.45132363671E+02  0.48268529774E+03  0.49163290335E+03  0.00000000000E+00 0. -1.
         13    1    4    4    0    0 -0.61634042462E+01 -0.19960773665E+02  0.56909111513E+02  0.60622330955E+02  0.00000000000E+00 0.  1.
        -13    1    3    3    0    0  0.53326045623E+02  0.17712074959E+02  0.38360914452E+02  0.68036346894E+02  0.00000000000E+00 0. -1.
         13    1    3    3    0    0 -0.23754626105E+01 -0.53784680621E+02  0.82678534677E+02  0.98661921675E+02  0.00000000000E+00 0.  1.
         21    1    1    2  502  501 -0.12652385815E+03  0.10901015656E+02  0.16679489240E+03  0.20963695990E+03  0.00000000000E+00 0.  1.
<scales pt_clust_5="13000.00000" pt_clust_6="13000.00000" pt_clust_7="13000.00000" pt_clust_8="13000.00000" pt_clust_9="88.82652"></scales>
<clustering>
<clus scale="   86.480">  5  6 -1 -1</clus>
<clus scale="   96.128">  7  8 -1 -1</clus>
<clus scale="  114.620">  2  7  1 -1</clus>
<clus scale="   88.827">  2  9  1 -1</clus>
<clus scale="  123.972">  1  5  2 -1</clus>
</clustering>
</event>
<event>
 9    1  0.2423659E-006  0.1715216E+03  0.7546771E-02  0.1180224E+00
          1   -1    0    0  502    0  0.00000000000E+00  0.00000000000E+00  0.49833247712E+03  0.49833247712E+03  0.00000000000E+00 0. -1.
         -1   -1    0    0    0  501 -0.00000000000E+00 -0.00000000000E+00 -0.13198340578E+03  0.13198340578E+03  0.00000000000E+00 0.  1.
         23    2    1    2    0    0  0.14348215173E+03  0.18190670478E+02  0.67805272171E+02  0.18580850063E+03  0.94916887925E+02 0.  0.
         23    2    1    2    0    0 -0.11955306757E+02 -0.12759751648E+03  0.16298581678E+03  0.22622972540E+03  0.90506666095E+02 0.  0.
        -11    1    4    4    0    0 -0.29822335813E+02 -0.96400087718E+02  0.16126957536E+03  0.19023728489E+03  0.00000000000E+00 0. -1.
         11    1    4    4    0    0  0.17867029057E+02 -0.31197428766E+02  0.17162414228E+01  0.35992440506E+02  0.00000000000E+00 0.  1.
        -13    1    3    3    0    0  0.11750855815E+03  0.49951818137E+02  0.32687860833E+02  0.13180266165E+03  0.00000000000E+00 0.  1.
         13    1    3    3    0    0  0.25973593585E+02 -0.31761147659E+02  0.35117411338E+02  0.54005838975E+02  0.00000000000E+00 0. -1.
         21    1    1    2  502  501 -0.13152684497E+03  0.10940684601E+03  0.13555798239E+03  0.21827765687E+03  0.00000000000E+00 0.  1.
<scales pt_clust_5="13000.00000" pt_clust_6="13000.00000" pt_clust_7="13000.00000" pt_clust_8="13000.00000" pt_clust_9="142.86510"></scales>
<clustering>
<clus scale="   90.507">  5  6 -1 -1</clus>
<clus scale="   94.917">  7  8 -1 -1</clus>
<clus scale="  156.893">  1  5  2 -1</clus>
<clus scale="  142.865">  1  9  2 -1</clus>
<clus scale="  156.893">  1  5  2 -1</clus>
</clustering>
</event>
<event>
 9    1  0.2600308E-006  0.9506905E+02  0.7546771E-02  0.1292463E+00
          1   -1    0    0  502    0  0.00000000000E+00  0.00000000000E+00  0.44362486362E+03  0.44362486362E+03  0.00000000000E+00 0. -1.
         -1   -1    0    0    0  501 -0.00000000000E+00 -0.00000000000E+00 -0.10718635155E+03  0.10718635155E+03  0.00000000000E+00 0.  1.
         23    2    1    2    0    0  0.44589953462E+01 -0.18277593876E+02 -0.71252554994E+02  0.11665113927E+03  0.90424601864E+02 0.  0.
         23    2    1    2    0    0 -0.42704049337E+02  0.21742731612E+02  0.34618220558E+03  0.36164779160E+03  0.93008728088E+02 0.  0.
        -11    1    3    3    0    0  0.12626161405E+02  0.35373062252E+02 -0.23062169800E+02  0.44074223314E+02  0.00000000000E+00 0. -1.
         11    1    3    3    0    0 -0.81671660587E+01 -0.53650656128E+02 -0.48190385194E+02  0.72576915955E+02  0.00000000000E+00 0.  1.
        -11    1    4    4    0    0 -0.45035887222E+02 -0.25211031439E+02  0.24058060084E+03  0.24605457270E+03  0.00000000000E+00 0. -1.
         11    1    4    4    0    0  0.23318378855E+01  0.46953763052E+02  0.10560160474E+03  0.11559321890E+03  0.00000000000E+00 0.  1.
         21    1    1    2  502  501  0.38245053990E+02 -0.34651377363E+01  0.61508861479E+02  0.72512284302E+02  0.00000000000E+00 0.  1.
<scales pt_clust_5="13000.00000" pt_clust_6="13000.00000" pt_clust_7="13000.00000" pt_clust_8="13000.00000" pt_clust_9="38.40171"></scales>
<clustering>
<clus scale="   38.402">  1  9  2 -1</clus>
<clus scale="   90.425">  5  6 -1 -1</clus>
<clus scale="   92.542">  2  5  1 -1</clus>
<clus scale="   93.009">  7  8 -1 -1</clus>
<clus scale="   38.402">  1  5  2 -1</clus>
</clustering>
</event>
<event>
 9    1  0.2423659E-006  0.3446955E+03  0.7546771E-02  0.1106824E+00
         -1   -1    0    0    0  501 -0.00000000000E+00  0.00000000000E+00  0.40831080334E+03  0.40831080334E+03  0.00000000000E+00 0.  1.
          1   -1    0    0  502    0  0.00000000000E+00 -0.00000000000E+00 -0.98806420168E+03  0.98806420168E+03  0.00000000000E+00 0. -1.
         23    2    1    2    0    0  0.68058029864E+02 -0.49305071572E+01  0.26264988764E+03  0.28572796630E+03  0.89438816634E+02 0.  0.
         23    2    1    2    0    0  0.22844893057E+03 -0.18380735076E+03 -0.16778454841E+03  0.34995735319E+03  0.91347897035E+02 0.  0.
        -11    1    4    4    0    0  0.15473868973E+03 -0.91799624985E+02 -0.14217825734E+03  0.22931613573E+03  0.00000000000E+00 0.  1.
         11    1    4    4    0    0  0.73710240840E+02 -0.92007725773E+02 -0.25606291070E+02  0.12064121745E+03  0.00000000000E+00 0. -1.
        -13    1    3    3    0    0  0.26265357319E+02 -0.31190131932E+02  0.20853588318E+03  0.21248507688E+03  0.00000000000E+00 0.  1.
         13    1    3    3    0    0  0.41792672545E+02  0.26259624774E+02  0.54114004459E+02  0.73242889418E+02  0.00000000000E+00 0. -1.
         21    1    1    2  502  501 -0.29650696044E+03  0.18873785792E+03 -0.67461873757E+03  0.76068968553E+03  0.00000000000E+00 0. -1.
<scales pt_clust_5="13000.00000" pt_clust_6="13000.00000" pt_clust_7="13000.00000" pt_clust_8="13000.00000" pt_clust_9="332.37105"></scales>
<clustering>
<clus scale="   89.439">  7  8 -1 -1</clus>
<clus scale="   91.348">  5  6 -1 -1</clus>
<clus scale="  112.497">  1  7  2 -1</clus>
<clus scale="  332.371">  2  9  1 -1</clus>
<clus scale="  332.371">  2  5  1 -1</clus>
</clustering>
</event>
<event>
 9    1  0.2423659E-006  0.1025898E+03  0.7546771E-02  0.1275167E+00
         -2   -1    0    0    0  501 -0.00000000000E+00  0.00000000000E+00  0.24688774140E+03  0.24688774140E+03  0.00000000000E+00 0.  1.
          2   -1    0    0  502    0  0.00000000000E+00 -0.00000000000E+00 -0.85345237044E+03  0.85345237044E+03  0.00000000000E+00 0. -1.
         23    2    1    2    0    0  0.71739839421E+00 -0.45615452165E+02  0.22738925620E+03  0.24957917767E+03  0.92209587124E+02 0.  0.
         23    2    1    2    0    0  0.47544838906E+02  0.20546076258E+02 -0.40920487104E+03  0.42254435086E+03  0.91719403656E+02 0.  0.
        -11    1    4    4    0    0  0.72460996918E+02  0.65000447521E+01 -0.33934268985E+03  0.34705375349E+03  0.00000000000E+00 0. -1.
         11    1    4    4    0    0 -0.24916158012E+02  0.14046031506E+02 -0.69862181181E+02  0.75490597365E+02  0.00000000000E+00 0.  1.
        -11    1    3    3    0    0 -0.28296850861E+02 -0.33538194516E+02  0.20816163039E+03  0.21273642525E+03  0.00000000000E+00 0.  1.
         11    1    3    3    0    0  0.29014249255E+02 -0.12077257649E+02  0.19227625806E+02  0.36842752426E+02  0.00000000000E+00 0. -1.
         21    1    1    2  502  501 -0.48262237300E+02  0.25069375907E+02 -0.42474901420E+03  0.42821658331E+03  0.00000000000E+00 0. -1.
<scales pt_clust_5="13000.00000" pt_clust_6="13000.00000" pt_clust_7="13000.00000" pt_clust_8="13000.00000" pt_clust_9="54.38490"></scales>
<clustering>
<clus scale="   54.385">  2  9  1 -1</clus>
<clus scale="   91.719">  5  6 -1 -1</clus>
<clus scale="   92.210">  7  8 -1 -1</clus>
<clus scale="  102.149">  2  5  1 -1</clus>
<clus scale="   54.385">  2  5  1 -1</clus>
</clustering>
</event>
<event>
 9    1  0.2423659E-006  0.9761422E+02  0.7546771E-02  0.1289450E+00
          2   -1    0    0  502    0  0.00000000000E+00  0.00000000000E+00  0.60896983628E+03  0.60896983628E+03  0.00000000000E+00 0. -1.
         -2   -1    0    0    0  501 -0.00000000000E+00 -0.00000000000E+00 -0.24103725863E+02  0.24103725863E+02  0.00000000000E+00 0.  1.
         23    2    1    2    0    0  0.39019276377E+02 -0.37863789968E+02  0.18059930338E+03  0.20594428457E+03  0.82708944154E+02 0.  0.
         23    2    1    2    0    0 -0.18138463935E+02 -0.14986697430E+01  0.24746172129E+03  0.26411625210E+03  0.90492216407E+02 0.  0.
        -11    1    3    3    0    0  0.74729747108E+01 -0.27737386472E+02  0.16809420779E+03  0.17053114276E+03  0.00000000000E+00 0. -1.
         11    1    3    3    0    0  0.31546301667E+02 -0.10126403496E+02  0.12505095593E+02  0.35413141804E+02  0.00000000000E+00 0.  1.
        -11    1    4    4    0    0  0.17447263017E+02 -0.17966753955E+02  0.16827387438E+02  0.30172374823E+02  0.00000000000E+00 0.  1.
         11    1    4    4    0    0 -0.35585726952E+02  0.16468084212E+02  0.23063433386E+03  0.23394387727E+03  0.00000000000E+00 0. -1.
         21    1    1    2  502  501 -0.20880812442E+02  0.39362459711E+02  0.15680508573E+03  0.16301302548E+03  0.00000000000E+00 0. -1.
<scales pt_clust_5="13000.00000" pt_clust_6="13000.00000" pt_clust_7="13000.00000" pt_clust_8="13000.00000" pt_clust_9="44.55796"></scales>
<clustering>
<clus scale="   44.558">  1  9  2 -1</clus>
<clus scale="   82.709">  5  6 -1 -1</clus>
<clus scale="   90.446">  2  5  1 -1</clus>
<clus scale="   90.492">  7  8 -1 -1</clus>
<clus scale="   44.558">  1  5  2 -1</clus>
</clustering>
</event>
<event>
 9    1  0.2423659E-006  0.2148988E+03  0.7546771E-02  0.1137764E+00
          1   -1    0    0  502    0  0.00000000000E+00  0.00000000000E+00  0.10338049192E+04  0.10338049192E+04  0.00000000000E+00 0. -1.
         -1   -1    0    0    0  501 -0.00000000000E+00 -0.00000000000E+00 -0.20789950247E+03  0.20789950247E+03  0.00000000000E+00 0.  1.
         23    2    1    2    0    0 -0.10409014754E+03 -0.12540464669E+03  0.32242338176E+03  0.37295855733E+03  0.92629175493E+02 0.  0.
         23    2    1    2    0    0  0.36679193951E+02  0.23466512178E+03  0.63539999698E+03  0.68466860677E+03  0.92870136695E+02 0.  0.
        -13    1    4    4    0    0 -0.21489062850E+02  0.11903939079E+02  0.53145911508E+02  0.58548881268E+02  0.00000000000E+00 0.  1.
         13    1    4    4    0    0  0.58168256801E+02  0.22276118270E+03  0.58225408547E+03  0.62611972551E+03  0.00000000000E+00 0. -1.
        -13    1    3    3    0    0 -0.83968651747E+02 -0.28784857376E+02  0.15185632779E+03  0.17589669349E+03  0.00000000000E+00 0. -1.
         13    1    3    3    0    0 -0.20121495794E+02 -0.96619789313E+02  0.17056705397E+03  0.19706186384E+03  0.00000000000E+00 0.  1.
         21    1    1    2  502  501  0.67410953590E+02 -0.10926047509E+03 -0.13191796197E+03  0.18407725762E+03  0.00000000000E+00 0.  1.
<scales pt_clust_5="13000.00000" pt_clust_6="13000.00000" pt_clust_7="13000.00000" pt_clust_8="13000.00000" pt_clust_9="128.38258"></scales>
<clustering>
<clus scale="   92.629">  7  8 -1 -1</clus>
<clus scale="   92.870">  5  6 -1 -1</clus>
<clus scale="  128.383">  2  9  1 -1</clus>
<clus scale="  214.795">  2  7  1 -1</clus>
<clus scale="  214.899">  1  5  2 -1</clus>
</clustering>
</event>
<event>
 9    1  0.2423659E-006  0.1224774E+03  0.7546771E-02  0.1241015E+00
          2   -1    0    0  502    0  0.00000000000E+00  0.00000000000E+00  0.19958874082E+03  0.19958874082E+03  0.00000000000E+00 0. -1.
         -2   -1    0    0    0  501 -0.00000000000E+00 -0.00000000000E+00 -0.18754988516E+03  0.18754988516E+03  0.00000000000E+00 0.  1.
         23    2    1    2    0    0 -0.15792190347E+01 -0.42485377049E+02 -0.10248995862E+03  0.14694285234E+03  0.96335398684E+02 0.  0.
         23    2    1    2    0    0 -0.64303123745E+02  0.56678035693E+02  0.11961843673E+03  0.17261013237E+03  0.90213058574E+02 0.  0.
        -11    1    3    3    0    0  0.14529470900E+02 -0.70303160147E+02 -0.59361701484E+02  0.93152839218E+02  0.00000000000E+00 0.  1.
         11    1    3    3    0    0 -0.16108689935E+02  0.27817783098E+02 -0.43128257135E+02  0.53790013119E+02  0.00000000000E+00 0. -1.
        -11    1    4    4    0    0 -0.47604863467E+02 -0.76669675178E+01  0.18600640300E+02  0.51681614102E+02  0.00000000000E+00 0.  1.
         11    1    4    4    0    0 -0.16698260278E+02  0.64345003211E+02  0.10101779643E+03  0.12092851827E+03  0.00000000000E+00 0. -1.
         21    1    1    2  502  501  0.65882342780E+02 -0.14192658644E+02 -0.50896224585E+01  0.67585641273E+02  0.00000000000E+00 0. -1.
<scales pt_clust_5="13000.00000" pt_clust_6="13000.00000" pt_clust_7="13000.00000" pt_clust_8="13000.00000" pt_clust_9="67.39373"></scales>
<clustering>
<clus scale="   67.394">  2  9  1 -1</clus>
<clus scale="   90.213">  7  8 -1 -1</clus>
<clus scale="   96.335">  5  6 -1 -1</clus>
<clus scale="  117.723">  1  7  2 -1</clus>
<clus scale="  117.723">  1  5  2 -1</clus>
</clustering>
</event>
<event>
 9    1  0.2423659E-006  0.9689861E+02  0.7546771E-02  0.1288583E+00
         -1   -1    0    0    0  501 -0.00000000000E+00  0.00000000000E+00  0.98675987911E+02  0.98675987911E+02  0.00000000000E+00 0.  1.
          1   -1    0    0  502    0  0.00000000000E+00 -0.00000000000E+00 -0.17112197154E+03  0.17112197154E+03  0.00000000000E+00 0. -1.
         23    2    1    2    0    0  0.11793891432E+02 -0.31983715308E+02  0.36153421324E+02  0.10582843626E+03  0.93437327276E+02 0.  0.
         23    2    1    2    0    0 -0.48454916738E+01  0.15684904564E+01 -0.70712341787E+02  0.11489003952E+03  0.90407670844E+02 0.  0.
        -13    1    3    3    0    0  0.34765797636E+02  0.18601369083E+02 -0.20877645532E+00  0.39429877056E+02  0.00000000000E+00 0. -1.
         13    1    3    3    0    0 -0.22971906204E+02 -0.50585084391E+02  0.36362197779E+02  0.66398559208E+02  0.00000000000E+00 0.  1.
        -13    1    4    4    0    0 -0.25072981625E+02 -0.28130297143E+02 -0.24672855488E+01  0.37763150331E+02  0.00000000000E+00 0.  1.
         13    1    4    4    0    0  0.20227489951E+02  0.29698787600E+02 -0.68245056239E+02  0.77126889187E+02  0.00000000000E+00 0. -1.
         21    1    1    2  502  501 -0.69483997583E+01  0.30415224852E+02 -0.37887063165E+02  0.49079483669E+02  0.00000000000E+00 0. -1.
<scales pt_clust_5="13000.00000" pt_clust_6="13000.00000" pt_clust_7="13000.00000" pt_clust_8="13000.00000" pt_clust_9="31.19882"></scales>
<clustering>
<clus scale="   31.199">  2  9  1 -1</clus>
<clus scale="   90.408">  7  8 -1 -1</clus>
<clus scale="   93.437">  5  6 -1 -1</clus>
<clus scale="   93.981">  2  7  1 -1</clus>
<clus scale="   31.199">  2  5  1 -1</clus>
</clustering>
</event>
<event>
 9    1  0.2423659E-006  0.2076586E+03  0.7546771E-02  0.1154688E+00
          1   -1    0    0  502    0  0.00000000000E+00  0.00000000000E+00  0.11617555503E+04  0.11617555503E+04  0.00000000000E+00 0. -1.
         -1   -1    0    0    0  501 -0.00000000000E+00 -0.00000000000E+00 -0.13655425807E+03  0.13655425807E+03  0.00000000000E+00 0.  1.
         23    2    1    2    0    0 -0.26026863646E+02  0.12619002269E+03 -0.20630727651E+02  0.16031161878E+03  0.93128238113E+02 0.  0.
         23    2    1    2    0    0 -0.15256795389E+03 -0.16323905344E+03  0.40507093284E+03  0.47178237607E+03  0.92586071377E+02 0.  0.
        -13    1    3    3    0    0  0.34041189620E+02  0.29293785132E+02 -0.78779327720E+01  0.45595945684E+02  0.00000000000E+00 0. -1.
         13    1    3    3    0    0 -0.60068053266E+02  0.96896237560E+02 -0.12752794880E+02  0.11471567310E+03  0.00000000000E+00 0.  1.
        -13    1    4    4    0    0 -0.11558238224E+03 -0.58121983189E+02  0.19557047996E+03  0.23448937000E+03  0.00000000000E+00 0.  1.
         13    1    4    4    0    0 -0.36985571650E+02 -0.10511707025E+03  0.20950045288E+03  0.23729300606E+03  0.00000000000E+00 0. -1.
         21    1    1    2  502  501  0.17859481753E+03  0.37049030749E+02  0.64076108708E+03  0.66621581356E+03  0.00000000000E+00 0. -1.
<scales pt_clust_5="13000.00000" pt_clust_6="13000.00000" pt_clust_7="13000.00000" pt_clust_8="13000.00000" pt_clust_9="185.87611"></scales>
<clustering>
<clus scale="   92.586">  7  8 -1 -1</clus>
<clus scale="   93.128">  5  6 -1 -1</clus>
<clus scale="  158.979">  2  5  1 -1</clus>
<clus scale="  185.876">  1  9  2 -1</clus>
<clus scale="  185.876">  1  5  2 -1</clus>
</clustering>
</event>
<event>
 9    1  0.2423659E-006  0.2088935E+03  0.7546771E-02  0.1161727E+00
         -1   -1    0    0    0  501 -0.00000000000E+00  0.00000000000E+00  0.18872042999E+03  0.18872042999E+03  0.00000000000E+00 0.  1.
          1   -1    0    0  502    0  0.00000000000E+00 -0.00000000000E+00 -0.45557204916E+03  0.45557204916E+03  0.00000000000E+00 0. -1.
         23    2    1    2    0    0  0.41923576412E+02 -0.22819249820E+03 -0.53735407018E+02  0.25427946979E+03  0.89113143208E+02 0.  0.
         23    2    1    2    0    0  0.43521105430E+02  0.86651055019E+02 -0.17645046187E+03  0.22066381085E+03  0.90306478000E+02 0.  0.
        -13    1    4    4    0    0  0.41307712377E+02  0.48258876388E+02 -0.31896182774E+02  0.71081732727E+02  0.00000000000E+00 0.  1.
         13    1    4    4    0    0  0.22133930537E+01  0.38392178631E+02 -0.14455427910E+03  0.14958207812E+03  0.00000000000E+00 0. -1.
        -13    1    3    3    0    0  0.31098866576E+02 -0.19750211774E+03 -0.10561734487E+02  0.20021432579E+03  0.00000000000E+00 0.  1.
         13    1    3    3    0    0  0.10824709837E+02 -0.30690380460E+02 -0.43173672531E+02  0.54065143999E+02  0.00000000000E+00 0. -1.
         21    1    1    2  502  501 -0.85444681843E+02  0.14154144319E+03 -0.36665750273E+02  0.16934919851E+03  0.00000000000E+00 0.  1.
<scales pt_clust_5="13000.00000" pt_clust_6="13000.00000" pt_clust_7="13000.00000" pt_clust_8="13000.00000" pt_clust_9="188.93208"></scales>
<clustering>
<clus scale="   89.113">  7  8 -1 -1</clus>
<clus scale="   90.306">  5  6 -1 -1</clus>
<clus scale="  132.506">  2  5  1 -1</clus>
<clus scale="  188.932">  1  9  2 -1</clus>
<clus scale="  132.506">  2  5  1 -1</clus>
</clustering>
</event>
<event>
 9    1  0.2423659E-006  0.1204933E+03  0.7546771E-02  0.1253077E+00
          1   -1    0    0  502    0  0.00000000000E+00  0.00000000000E+00  0.74068098827E+03  0.74068098827E+03  0.00000000000E+00 0. -1.
         -1   -1    0    0    0  501 -0.00000000000E+00 -0.00000000000E+00 -0.54593239423E+02  0.54593239423E+02  0.00000000000E+00 0.  1.
         23    2    1    2    0    0 -0.34427003470E+02  0.67644549685E+02  0.55898992178E+02  0.13043505561E+03  0.90153218112E+02 0.  0.
         23    2    1    2    0    0  0.12355567726E+02  0.31587309098E+02  0.19346761582E+03  0.21644262332E+03  0.90924543828E+02 0.  0.
        -13    1    4    4    0    0  0.19818150119E+02 -0.28793677466E+02  0.87947519481E+02  0.94639321210E+02  0.00000000000E+00 0.  1.
         13    1    4    4    0    0 -0.74625823932E+01  0.60380986565E+02  0.10552009634E+03  0.12180330211E+03  0.00000000000E+00 0. -1.
        -13    1    3    3    0    0 -0.15463131436E+02 -0.21421681050E+02  0.83629510308E+01  0.27711654637E+02  0.00000000000E+00 0. -1.
         13    1    3    3    0    0 -0.18963872035E+02  0.89066230735E+02  0.47536041147E+02  0.10272340098E+03  0.00000000000E+00 0.  1.
         21    1    1    2  502  501  0.22071435744E+02 -0.99231858784E+02  0.43672114085E+03  0.44839654875E+03  0.00000000000E+00 0.  1.
<scales pt_clust_5="13000.00000" pt_clust_6="13000.00000" pt_clust_7="13000.00000" pt_clust_8="13000.00000" pt_clust_9="79.94392"></scales>
<clustering>
<clus scale="   90.153">  7  8 -1 -1</clus>
<clus scale="   90.925">  5  6 -1 -1</clus>
<clus scale="   97.045">  1  5  2 -1</clus>
<clus scale="   79.944">  1  9  2 -1</clus>
<clus scale="   97.045">  1  5  2 -1</clus>
</clustering>
</event>
<event>
 9    1  0.2423659E-006  0.9585830E+02  0.7546771E-02  0.1293822E+00
          2   -1    0    0  502    0  0.00000000000E+00  0.00000000000E+00  0.21927504169E+03  0.21927504169E+03  0.00000000000E+00 0. -1.
         -2   -1    0    0    0  501 -0.00000000000E+00 -0.00000000000E+00 -0.83780962452E+02  0.83780962452E+02  0.00000000000E+00 0.  1.
         23    2    1    2    0    0 -0.31070006458E+02 -0.99058076462E+01 -0.32364580042E+02  0.10235999331E+03  0.91469294644E+02 0.  0.
         23    2    1    2    0    0  0.11047361871E+02 -0.17958704755E+00  0.15055052804E+03  0.17237300094E+03  0.83216065180E+02 0.  0.
        -11    1    4    4    0    0  0.35786333584E+02 -0.24690173977E+02  0.11341540767E+03  0.12146324983E+03  0.00000000000E+00 0. -1.
         11    1    4    4    0    0 -0.24738971713E+02  0.24510586930E+02  0.37135120366E+02  0.50909751106E+02  0.00000000000E+00 0.  1.
        -13    1    3    3    0    0 -0.22652288940E+02 -0.42932540334E+02  0.83584846877E+01  0.49256405472E+02  0.00000000000E+00 0. -1.
         13    1    3    3    0    0 -0.84177175189E+01  0.33026732688E+02 -0.40723064730E+02  0.53103587838E+02  0.00000000000E+00 0.  1.
         21    1    1    2  502  501  0.20022644587E+02  0.10085394694E+02  0.17308131242E+02  0.28323009894E+02  0.00000000000E+00 0. -1.
<scales pt_clust_5="13000.00000" pt_clust_6="13000.00000" pt_clust_7="13000.00000" pt_clust_8="13000.00000" pt_clust_9="22.41922"></scales>
<clustering>
<clus scale="   22.419">  1  9  2 -1</clus>
<clus scale="   83.216">  5  6 -1 -1</clus>
<clus scale="   88.018">  1  5  2 -1</clus>
<clus scale="   91.469">  7  8 -1 -1</clus>
<clus scale="   22.419">  1  5  2 -1</clus>
</clustering>
</event>
<event>
 9    1  0.2423659E-006  0.1098377E+03  0.7546771E-02  0.1271723E+00
         -2   -1    0    0    0  501 -0.00000000000E+00  0.00000000000E+00  0.29630781317E+03  0.29630781317E+03  0.00000000000E+00 0.  1.
          2   -1    0    0  502    0  0.00000000000E+00 -0.00000000000E+00 -0.57518500112E+02  0.57518500112E+02  0.00000000000E+00 0. -1.
         23    2    1    2    0    0 -0.29401107660E+02  0.20063045304E-01  0.12926525162E+03  0.17082016108E+03  0.10772927466E+03 0.  0.
         23    2    1    2    0    0 -0.90012131026E+01  0.31836687861E+02  0.49183123931E+02  0.10470787919E+03  0.86314331098E+02 0.  0.
        -11    1    3    3    0    0  0.34453226601E+02  0.57616699371E+01  0.11573652759E+02  0.36799063872E+02  0.00000000000E+00 0. -1.
         11    1    3    3    0    0 -0.63854334261E+02 -0.57416068918E+01  0.11769159886E+03  0.13402109720E+03  0.00000000000E+00 0.  1.
        -13    1    4    4    0    0 -0.41511806434E+02 -0.65109381294E+01  0.25313697513E+02  0.49055128891E+02  0.00000000000E+00 0.  1.
         13    1    4    4    0    0  0.32510593332E+02  0.38347625991E+02  0.23869426419E+02  0.55652750296E+02  0.00000000000E+00 0. -1.
         21    1    1    2  502  501  0.38402320762E+02 -0.31856750907E+02  0.60340937505E+02  0.78298273016E+02  0.00000000000E+00 0.  1.
<scales pt_clust_5="13000.00000" pt_clust_6="13000.00000" pt_clust_7="13000.00000" pt_clust_8="13000.00000" pt_clust_9="49.89580"></scales>
<clustering>
<clus scale="   49.896">  1  9  2 -1</clus>
<clus scale="   86.314">  7  8 -1 -1</clus>
<clus scale="   88.932">  2  7  1 -1</clus>
<clus scale="  107.729">  5  6 -1 -1</clus>
<clus scale="   88.932">  2  5  1 -1</clus>
</clustering>
</event>
<event>
 9    1  0.2423659E-006  0.1842988E+03  0.7546771E-02  0.1191172E+00
          1   -1    0    0  502    0  0.00000000000E+00  0.00000000000E+00  0.15051734406E+04  0.15051734406E+04  0.00000000000E+00 0. -1.
         -1   -1    0    0    0  501 -0.00000000000E+00 -0.00000000000E+00 -0.52934089893E+02  0.52934089893E+02  0.00000000000E+00 0.  1.
         23    2    1    2    0    0  0.19514360653E+02 -0.31882642874E+02  0.60561007010E+02  0.11615674225E+03  0.91801089387E+02 0.  0.
         23    2    1    2    0    0  0.14193340581E+03  0.59683341607E+02  0.41865689589E+03  0.45523451796E+03  0.90871760827E+02 0.  0.
        -13    1    3    3    0    0  0.40166097615E+02 -0.11886668666E+02 -0.72441159827E+01  0.42509828346E+02  0.00000000000E+00 0.  1.
         13    1    3    3    0    0 -0.20651736962E+02 -0.19995974208E+02  0.67805122993E+02  0.73646913908E+02  0.00000000000E+00 0. -1.
        -13    1    4    4    0    0  0.10520195511E+02 -0.20364560533E+02  0.80784308978E+02  0.83973176767E+02  0.00000000000E+00 0.  1.
         13    1    4    4    0    0  0.13141321029E+03  0.80047902140E+02  0.33787258691E+03  0.37126134119E+03  0.00000000000E+00 0. -1.
         21    1    1    2  502  501 -0.16144776646E+03 -0.27800698733E+02  0.97302144782E+03  0.98671627030E+03  0.00000000000E+00 0. -1.
<scales pt_clust_5="13000.00000" pt_clust_6="13000.00000" pt_clust_7="13000.00000" pt_clust_8="13000.00000" pt_clust_9="160.33829"></scales>
<clustering>
<clus scale="   90.872">  7  8 -1 -1</clus>
<clus scale="   91.801">  5  6 -1 -1</clus>
<clus scale="   99.120">  2  5  1 -1</clus>
<clus scale="  160.338">  1  9  2 -1</clus>
<clus scale="  160.338">  1  5  2 -1</clus>
</clustering>
</event>
<event>
 9    1  0.2423659E-006  0.1072563E+03  0.7546771E-02  0.1266663E+00
          2   -1    0    0  502    0  0.00000000000E+00  0.00000000000E+00  0.32162554463E+03  0.32162554463E+03  0.00000000000E+00 0. -1.
         -2   -1    0    0    0  501 -0.00000000000E+00 -0.00000000000E+00 -0.77068893143E+02  0.77068893143E+02  0.00000000000E+00 0.  1.
         23    2    1    2    0    0  0.29854030039E+02  0.25026091548E+02  0.49272167856E+02  0.11065222171E+03  0.91096647993E+02 0.  0.
         23    2    1    2    0    0 -0.62809653270E+02  0.43848548084E+02  0.16817772326E+03  0.20702020952E+03  0.93305266928E+02 0.  0.
        -13    1    4    4    0    0 -0.50963393641E+02  0.73055435186E+02  0.11994359554E+03  0.14940157366E+03  0.00000000000E+00 0. -1.
         13    1    4    4    0    0 -0.11846259629E+02 -0.29206887102E+02  0.48234127725E+02  0.57618635863E+02  0.00000000000E+00 0.  1.
        -13    1    3    3    0    0 -0.22635183143E+02  0.77334522053E+00 -0.12641297325E+02  0.25937462806E+02  0.00000000000E+00 0.  1.
         13    1    3    3    0    0  0.52489213182E+02  0.24252746328E+02  0.61913465181E+02  0.84714758901E+02  0.00000000000E+00 0. -1.
         21    1    1    2  502  501  0.32955623230E+02 -0.68874639632E+02  0.27106760370E+02  0.81022006546E+02  0.00000000000E+00 0.  1.
<scales pt_clust_5="13000.00000" pt_clust_6="13000.00000" pt_clust_7="13000.00000" pt_clust_8="13000.00000" pt_clust_9="76.35306"></scales>
<clustering>
<clus scale="   76.353">  2  9  1 -1</clus>
<clus scale="   91.097">  7  8 -1 -1</clus>
<clus scale="   93.305">  5  6 -1 -1</clus>
<clus scale="  105.341">  2  7  1 -1</clus>
<clus scale="  107.256">  1  5  2 -1</clus>
</clustering>
</event>
<event>
 9    1  0.2423659E-006  0.1039313E+03  0.7546771E-02  0.1273579E+00
          1   -1    0    0  502    0  0.00000000000E+00  0.00000000000E+00  0.10569639703E+04  0.10569639703E+04  0.00000000000E+00 0. -1.
         -1   -1    0    0    0  501 -0.00000000000E+00 -0.00000000000E+00 -0.29865897967E+02  0.29865897967E+02  0.00000000000E+00 0.  1.
         23    2    1    2    0    0  0.66001236276E+02 -0.21174319755E+02  0.17132354594E+03  0.20650099811E+03  0.92121603437E+02 0.  0.
         23    2    1    2    0    0  0.30638328878E+02  0.29744513662E+02  0.57079171855E+03  0.57928426459E+03  0.89127043827E+02 0.  0.
        -11    1    3    3    0    0 -0.23252428999E+02 -0.85475907573E+01  0.30437266843E+02  0.39244922919E+02  0.00000000000E+00 0.  1.
         11    1    3    3    0    0  0.89253665275E+02 -0.12626728998E+02  0.14088627910E+03  0.16725607519E+03  0.00000000000E+00 0. -1.
        -13    1    4    4    0    0 -0.26161784336E+02 -0.11344859402E+02  0.14848521259E+03  0.15119855539E+03  0.00000000000E+00 0.  1.
         13    1    4    4    0    0  0.56800113214E+02  0.41089373064E+02  0.42230650596E+03  0.42808570920E+03  0.00000000000E+00 0. -1.
         21    1    1    2  502  501 -0.96639565154E+02 -0.85701939067E+01  0.28498280779E+03  0.30104460552E+03  0.00000000000E+00 0. -1.
<scales pt_clust_5="13000.00000" pt_clust_6="13000.00000" pt_clust_7="13000.00000" pt_clust_8="13000.00000" pt_clust_9="97.01883"></scales>
<clustering>
<clus scale="   89.127">  7  8 -1 -1</clus>
<clus scale="   92.122">  5  6 -1 -1</clus>
<clus scale="   97.019">  1  9  2 -1</clus>
<clus scale="  101.287">  1  7  2 -1</clus>
<clus scale="   97.019">  1  5  2 -1</clus>
</clustering>
</event>
<event>
 9    1  0.2423659E-006  0.1335444E+03  0.7546771E-02  0.1236711E+00
          1   -1    0    0  502    0  0.00000000000E+00  0.00000000000E+00  0.72794926997E+02  0.72794926997E+02  0.00000000000E+00 0. -1.
         -1   -1    0    0    0  501 -0.00000000000E+00 -0.00000000000E+00 -0.62833875191E+03  0.62833875191E+03  0.00000000000E+00 0.  1.
         23    2    1    2    0    0 -0.73101096763E+02 -0.32546684931E+01 -0.37569678665E+02  0.12401567713E+03  0.92811875343E+02 0.  0.
         23    2    1    2    0    0 -0.20168761907E+02 -0.30974528527E+02 -0.78193238881E+02  0.12625421863E+03  0.91976870687E+02 0.  0.
        -11    1    3    3    0    0 -0.24308607520E+02  0.43940568339E+02 -0.13604125981E+02  0.52026475848E+02  0.00000000000E+00 0.  1.
         11    1    3    3    0    0 -0.48792489243E+02 -0.47195236832E+02 -0.23965552684E+02  0.71989201285E+02  0.00000000000E+00 0. -1.
        -11    1    4    4    0    0  0.10872904112E+02 -0.21835789044E+02 -0.88887570401E+02  0.92173867765E+02  0.00000000000E+00 0.  1.
         11    1    4    4    0    0 -0.31041666019E+02 -0.91387394826E+01  0.10694331520E+02  0.34080350867E+02  0.00000000000E+00 0. -1.
         21    1    1    2  502  501  0.93269858670E+02  0.34229197020E+02 -0.43978090736E+03  0.45086378314E+03  0.00000000000E+00 0.  1.
<scales pt_clust_5="13000.00000" pt_clust_6="13000.00000" pt_clust_7="13000.00000" pt_clust_8="13000.00000" pt_clust_9="96.02109"></scales>
<clustering>
<clus scale="   91.977">  7  8 -1 -1</clus>
<clus scale="   92.812">  5  6 -1 -1</clus>
<clus scale="   99.126">  1  7  2 -1</clus>
<clus scale="   96.021">  2  9  1 -1</clus>
<clus scale="   99.126">  1  5  2 -1</clus>
</clustering>
</event>
<event>
 9    1  0.2423659E-006  0.1154314E+03  0.7546771E-02  0.1253314E+00
         -2   -1    0    0    0  501 -0.00000000000E+00  0.00000000000E+00  0.62079128396E+02  0.62079128396E+02  0.00000000000E+00 0.  1.
          2   -1    0    0  502    0  0.00000000000E+00 -0.00000000000E+00 -0.49254835226E+03  0.49254835226E+03  0.00000000000E+00 0. -1.
         23    2    1    2    0    0  0.89962942393E+01  0.34087414661E+02 -0.67749534105E+01  0.96207315121E+02  0.89258402074E+02 0.  0.
         23    2    1    2    0    0  0.18122757773E+02 -0.68597808436E+02 -0.37154649331E+03  0.39026005314E+03  0.96031342357E+02 0.  0.
        -13    1    3    3    0    0 -0.26209207065E+02  0.61761485722E+01 -0.34232588770E+02  0.43553845755E+02  0.00000000000E+00 0.  1.
         13    1    3    3    0    0  0.35205501304E+02  0.27911266089E+02  0.27457635359E+02  0.52653469366E+02  0.00000000000E+00 0. -1.
        -13    1    4    4    0    0  0.49251191701E+02 -0.15831277798E+02 -0.10890394369E+03  0.12056690339E+03  0.00000000000E+00 0.  1.
         13    1    4    4    0    0 -0.31128433928E+02 -0.52766530639E+02 -0.26264254961E+03  0.26969314975E+03  0.00000000000E+00 0. -1.
         21    1    1    2  502  501 -0.27119052012E+02  0.34510393775E+02 -0.52147777143E+02  0.68160112394E+02  0.00000000000E+00 0.  1.
<scales pt_clust_5="13000.00000" pt_clust_6="13000.00000" pt_clust_7="13000.00000" pt_clust_8="13000.00000" pt_clust_9="43.89089"></scales>
<clustering>
<clus scale="   43.891">  1  9  2 -1</clus>
<clus scale="   89.258">  5  6 -1 -1</clus>
<clus scale="   96.031">  7  8 -1 -1</clus>
<clus scale="  109.861">  1  5  2 -1</clus>
<clus scale="  115.431">  2  5  1 -1</clus>
</clustering>
</event>
<event>
 9    1  0.2423659E-006  0.9891114E+02  0.7546771E-02  0.1285943E+00
         -1   -1    0    0    0  501 -0.00000000000E+00  0.00000000000E+00  0.77903783915E+02  0.77903783915E+02  0.00000000000E+00 0.  1.
          1   -1    0    0  502    0  0.00000000000E+00 -0.00000000000E+00 -0.37024321224E+03  0.37024321224E+03  0.00000000000E+00 0. -1.
         23    2    1    2    0    0  0.25447422264E+01 -0.98948849504E+01  0.14515097160E+02  0.93986918051E+02  0.92295548419E+02 0.  0.
         23    2    1    2    0    0 -0.47221789384E+02 -0.20480678665E+02 -0.25973871883E+03  0.28247596101E+03  0.98382472494E+02 0.  0.
        -13    1    4    4    0    0 -0.21737028809E+02 -0.58226091606E+02 -0.18270059963E+03  0.19298260354E+03  0.00000000000E+00 0.  1.
         13    1    4    4    0    0 -0.25484760575E+02  0.37745412941E+02 -0.77038119206E+02  0.89493357466E+02  0.00000000000E+00 0. -1.
        -13    1    3    3    0    0 -0.31087651049E+02 -0.10818903499E+02  0.39983290140E+02  0.51789518352E+02  0.00000000000E+00 0.  1.
         13    1    3    3    0    0  0.33632393275E+02  0.92401854865E+00 -0.25468192981E+02  0.42197399699E+02  0.00000000000E+00 0. -1.
         21    1    1    2  502  501  0.44677047158E+02  0.30375563616E+02 -0.47115806649E+02  0.71684117097E+02  0.00000000000E+00 0. -1.
<scales pt_clust_5="13000.00000" pt_clust_6="13000.00000" pt_clust_7="13000.00000" pt_clust_8="13000.00000" pt_clust_9="54.02512"></scales>
<clustering>
<clus scale="   54.025">  2  9  1 -1</clus>
<clus scale="   92.296">  7  8 -1 -1</clus>
<clus scale="   92.859">  1  7  2 -1</clus>
<clus scale="   98.382">  5  6 -1 -1</clus>
<clus scale="   54.025">  2  5  1 -1</clus>
</clustering>
</event>
<event>
 9    1  0.2423659E-006  0.1132839E+03  0.7546771E-02  0.1255337E+00
         -3   -1    0    0    0  501 -0.00000000000E+00  0.00000000000E+00  0.86065791489E+02  0.86065791489E+02  0.00000000000E+00 0.  1.
          3   -1    0    0  502    0  0.00000000000E+00 -0.00000000000E+00 -0.54913813286E+03  0.54913813286E+03  0.00000000000E+00 0. -1.
         23    2    1    2    0    0 -0.35527904116E+02  0.81695527289E+01  0.12960993906E+02  0.99466794409E+02  0.91633412380E+02 0.  0.
         23    2    1    2    0    0  0.42912655968E+02  0.55401661116E+02 -0.45279448666E+03  0.46764984864E+03  0.93609260693E+02 0.  0.
        -11    1    3    3    0    0 -0.36445235353E+02 -0.36797753821E+02  0.16487074406E+02  0.54352124969E+02  0.00000000000E+00 0.  1.
         11    1    3    3    0    0  0.91733123631E+00  0.44967306550E+02 -0.35260805003E+01  0.45114669440E+02  0.00000000000E+00 0. -1.
        -11    1    4    4    0    0 -0.19691992028E+02  0.33981821746E+02 -0.81073996854E+02  0.90086246037E+02  0.00000000000E+00 0.  1.
         11    1    4    4    0    0  0.62604647996E+02  0.21419839370E+02 -0.37172048981E+03  0.37756360260E+03  0.00000000000E+00 0. -1.
         21    1    1    2  502  501 -0.73847518513E+01 -0.63571213845E+02 -0.23238848619E+02  0.68087281300E+02  0.00000000000E+00 0.  1.
<scales pt_clust_5="13000.00000" pt_clust_6="13000.00000" pt_clust_7="13000.00000" pt_clust_8="13000.00000" pt_clust_9="63.99870"></scales>
<clustering>
<clus scale="   63.999">  1  9  2 -1</clus>
<clus scale="   91.633">  5  6 -1 -1</clus>
<clus scale="   93.609">  7  8 -1 -1</clus>
<clus scale="  111.657">  1  5  2 -1</clus>
<clus scale="  113.284">  2  5  1 -1</clus>
</clustering>
</event>
<event>
 9    1  0.2423659E-006  0.1346508E+03  0.7546771E-02  0.1224710E+00
          1   -1    0    0  502    0  0.00000000000E+00  0.00000000000E+00  0.39913481287E+03  0.39913481287E+03  0.00000000000E+00 0. -1.
         -1   -1    0    0    0  501 -0.00000000000E+00 -0.00000000000E+00 -0.68581607072E+02  0.68581607072E+02  0.00000000000E+00 0.  1.
         23    2    1    2    0    0 -0.64301313121E+02 -0.25061311991E+02  0.90390240757E+02  0.15418262103E+03  0.10411127112E+03 0.  0.
         23    2    1    2    0    0  0.98322245981E+02  0.32895230367E+02  0.10162670417E+03  0.17066641381E+03  0.89719995358E+02 0.  0.
        -13    1    4    4    0    0  0.51801366409E+02  0.58336336801E+02  0.34976352295E+02  0.85497689870E+02  0.00000000000E+00 0.  1.
         13    1    4    4    0    0  0.46520879573E+02 -0.25441106435E+02  0.66650351870E+02  0.85168723938E+02  0.00000000000E+00 0. -1.
        -13    1    3    3    0    0 -0.50863076522E+02 -0.60045056165E+02  0.85807301711E+02  0.11642746390E+03  0.00000000000E+00 0. -1.
         13    1    3    3    0    0 -0.13438236599E+02  0.34983744175E+02  0.45829390462E+01  0.37755157127E+02  0.00000000000E+00 0.  1.
         21    1    1    2  502  501 -0.34020932860E+02 -0.78339183760E+01  0.13853626087E+03  0.14286738510E+03  0.00000000000E+00 0. -1.
<scales pt_clust_5="13000.00000" pt_clust_6="13000.00000" pt_clust_7="13000.00000" pt_clust_8="13000.00000" pt_clust_9="34.91123"></scales>
<clustering>
<clus scale="   34.911">  1  9  2 -1</clus>
<clus scale="   89.720">  5  6 -1 -1</clus>
<clus scale="  104.111">  7  8 -1 -1</clus>
<clus scale="  123.860">  1  5  2 -1</clus>
<clus scale="   34.911">  1  5  2 -1</clus>
</clustering>
</event>
<event>
 9    1  0.2423659E-006  0.1272687E+03  0.7546771E-02  0.1232076E+00
         -1   -1    0    0    0  501 -0.00000000000E+00  0.00000000000E+00  0.63351328611E+02  0.63351328611E+02  0.00000000000E+00 0.  1.
          1   -1    0    0  502    0  0.00000000000E+00 -0.00000000000E+00 -0.74135666818E+03  0.74135666818E+03  0.00000000000E+00 0. -1.
         23    2    1    2    0    0  0.71760966012E+02  0.48297319165E+02 -0.38273745216E+02  0.13309406722E+03  0.93631639279E+02 0.  0.
         23    2    1    2    0    0 -0.34447161102E+02 -0.94770902149E+02 -0.52376633497E+03  0.54122966926E+03  0.91816395290E+02 0.  0.
        -11    1    4    4    0    0 -0.53386386803E+02 -0.18542105346E+02 -0.25697848075E+03  0.26311947008E+03  0.00000000000E+00 0.  1.
         11    1    4    4    0    0  0.18939225701E+02 -0.76228796803E+02 -0.26678785422E+03  0.27811019918E+03  0.00000000000E+00 0. -1.
        -13    1    3    3    0    0  0.86019305540E+02  0.11796002780E+02 -0.35523442923E+02  0.93810349132E+02  0.00000000000E+00 0.  1.
         13    1    3    3    0    0 -0.14258339528E+02  0.36501316385E+02 -0.27503022929E+01  0.39283718086E+02  0.00000000000E+00 0. -1.
         21    1    1    2  502  501 -0.37313804910E+02  0.46473582983E+02 -0.11596525939E+03  0.13038426031E+03  0.00000000000E+00 0. -1.
<scales pt_clust_5="13000.00000" pt_clust_6="13000.00000" pt_clust_7="13000.00000" pt_clust_8="13000.00000" pt_clust_9="59.59961"></scales>
<clustering>
<clus scale="   59.600">  2  9  1 -1</clus>
<clus scale="   91.816">  5  6 -1 -1</clus>
<clus scale="   93.632">  7  8 -1 -1</clus>
<clus scale="  125.939">  2  5  1 -1</clus>
<clus scale="   59.600">  2  5  1 -1</clus>
</clustering>
</event>
<event>
 9    1  0.2423659E-006  0.1345604E+03  0.7546771E-02  0.1221409E+00
         -3   -1    0    0    0  501 -0.00000000000E+00  0.00000000000E+00  0.43040594848E+03  0.43040594848E+03  0.00000000000E+00 0.  1.
          3   -1    0    0  502    0  0.00000000000E+00 -0.00000000000E+00 -0.64603485493E+02  0.64603485493E+02  0.00000000000E+00 0. -1.
         23    2    1    2    0    0  0.80655487183E+02  0.41435015109E+02  0.18864279682E+03  0.22763971195E+03  0.89507349276E+02 0.  0.
         23    2    1    2    0    0 -0.72251084592E+02 -0.91069733915E+02  0.14686646928E+03  0.20861670447E+03  0.91854525885E+02 0.  0.
        -11    1    4    4    0    0 -0.85679269560E+02 -0.42012231948E+02  0.11100478572E+03  0.14638315244E+03  0.00000000000E+00 0.  1.
         11    1    4    4    0    0  0.13428184967E+02 -0.49057501967E+02  0.35861683564E+02  0.62233552035E+02  0.00000000000E+00 0. -1.
        -11    1    3    3    0    0  0.57417928993E+02  0.67130060278E+02  0.10570063112E+03  0.13775299264E+03  0.00000000000E+00 0. -1.
         11    1    3    3    0    0  0.23237558191E+02 -0.25695045169E+02  0.82942165692E+02  0.89886719301E+02  0.00000000000E+00 0.  1.
         21    1    1    2  502  501 -0.84044025910E+01  0.49634718806E+02  0.30293196887E+02  0.58753017553E+02  0.00000000000E+00 0. -1.
<scales pt_clust_5="13000.00000" pt_clust_6="13000.00000" pt_clust_7="13000.00000" pt_clust_8="13000.00000" pt_clust_9="50.34123"></scales>
<clustering>
<clus scale="   50.341">  2  9  1 -1</clus>
<clus scale="   89.507">  7  8 -1 -1</clus>
<clus scale="   91.855">  5  6 -1 -1</clus>
<clus scale="  132.969">  1  7  2 -1</clus>
<clus scale="   50.341">  2  5  1 -1</clus>
</clustering>
</event>
<event>
 9    1  0.2423659E-006  0.1493882E+03  0.7546771E-02  0.1203471E+00
         -2   -1    0    0    0  501 -0.00000000000E+00  0.00000000000E+00  0.64586768970E+02  0.64586768970E+02  0.00000000000E+00 0.  1.
          2   -1    0    0  502    0  0.00000000000E+00 -0.00000000000E+00 -0.76190491820E+03  0.76190491820E+03  0.00000000000E+00 0. -1.
         23    2    1    2    0    0  0.24238249850E+02  0.55943887957E+02 -0.69988020847E+02  0.13036643363E+03  0.91541644073E+02 0.  0.
         23    2    1    2    0    0 -0.13140098384E+03 -0.70480402066E+02 -0.50663975215E+03  0.53407177868E+03  0.79467733672E+02 0.  0.
        -11    1    3    3    0    0  0.55412751662E+02  0.36428616323E+02 -0.65681147184E+02  0.93336114282E+02  0.00000000000E+00 0.  1.
         11    1    3    3    0    0 -0.31174501812E+02  0.19515271634E+02 -0.43068736630E+01  0.37030319347E+02  0.00000000000E+00 0. -1.
        -13    1    4    4    0    0 -0.74285610604E+02 -0.54038222919E+02 -0.41352452334E+03  0.42360478383E+03  0.00000000000E+00 0. -1.
         13    1    4    4    0    0 -0.57115373237E+02 -0.16442179148E+02 -0.93115228802E+02  0.11046699484E+03  0.00000000000E+00 0.  1.
         21    1    1    2  502  501  0.10716273399E+03  0.14536514109E+02 -0.12069037624E+03  0.16205347486E+03  0.00000000000E+00 0.  1.
<scales pt_clust_5="13000.00000" pt_clust_6="13000.00000" pt_clust_7="13000.00000" pt_clust_8="13000.00000" pt_clust_9="108.14417"></scales>
<clustering>
<clus scale="   79.468">  7  8 -1 -1</clus>
<clus scale="   91.542">  5  6 -1 -1</clus>
<clus scale="  108.144">  1  9  2 -1</clus>
<clus scale="  142.310">  2  7  1 -1</clus>
<clus scale="  142.310">  2  5  1 -1</clus>
</clustering>
</event>
<event>
 9    1  0.2423659E-006  0.9550477E+02  0.7546771E-02  0.1291711E+00
         -1   -1    0    0    0  501 -0.00000000000E+00  0.00000000000E+00  0.52211628937E+02  0.52211628937E+02  0.00000000000E+00 0.  1.
          1   -1    0    0  502    0  0.00000000000E+00 -0.00000000000E+00 -0.29426845888E+03  0.29426845888E+03  0.00000000000E+00 0. -1.
         23    2    1    2    0    0 -0.15882783609E+02  0.93077400800E+01 -0.54142022505E+02  0.11083837278E+03  0.94946771603E+02 0.  0.
         23    2    1    2    0    0  0.28658146342E+01  0.16875655070E+02 -0.77745534017E+02  0.12165802994E+03  0.91996236676E+02 0.  0.
        -11    1    4    4    0    0  0.33323190242E+02 -0.21566443203E+02 -0.54395166806E+02  0.67337809975E+02  0.00000000000E+00 0. -1.
         11    1    4    4    0    0 -0.30457375608E+02  0.38442098273E+02 -0.23350367211E+02  0.54320219968E+02  0.00000000000E+00 0.  1.
        -11    1    3    3    0    0 -0.14257265082E+02  0.52032511133E+02 -0.29460166257E+02  0.61469937517E+02  0.00000000000E+00 0.  1.
         11    1    3    3    0    0 -0.16255185261E+01 -0.42724771053E+02 -0.24681856249E+02  0.49368435259E+02  0.00000000000E+00 0. -1.
         21    1    1    2  502  501  0.13016968974E+02 -0.26183395150E+02 -0.11016927342E+03  0.11398368510E+03  0.00000000000E+00 0. -1.
<scales pt_clust_5="13000.00000" pt_clust_6="13000.00000" pt_clust_7="13000.00000" pt_clust_8="13000.00000" pt_clust_9="29.24058"></scales>
<clustering>
<clus scale="   29.241">  2  9  1 -1</clus>
<clus scale="   91.996">  5  6 -1 -1</clus>
<clus scale="   92.572">  2  5  1 -1</clus>
<clus scale="   94.947">  7  8 -1 -1</clus>
<clus scale="   29.241">  2  5  1 -1</clus>
</clustering>
</event>
<event>
 9    1  0.2423659E-006  0.9305929E+02  0.7546771E-02  0.1295737E+00
         -1   -1    0    0    0  501 -0.00000000000E+00  0.00000000000E+00  0.37092637889E+02  0.37092637889E+02  0.00000000000E+00 0.  1.
          1   -1    0    0  502    0  0.00000000000E+00 -0.00000000000E+00 -0.47154705766E+03  0.47154705766E+03  0.00000000000E+00 0. -1.
         23    2    1    2    0    0  0.25317577669E+01 -0.39887736184E+01 -0.89529322165E+02  0.12845305176E+03  0.91991123850E+02 0.  0.
         23    2    1    2    0    0  0.44522857255E+02 -0.23107125424E+02 -0.20597175702E+03  0.23100100305E+03  0.91765323846E+02 0.  0.
        -11    1    4    4    0    0  0.34527855484E+01  0.29570579195E+02 -0.11078782906E+03  0.11471828080E+03  0.00000000000E+00 0.  1.
         11    1    4    4    0    0  0.41070071707E+02 -0.52677704619E+02 -0.95183927961E+02  0.11628272226E+03  0.00000000000E+00 0. -1.
        -11    1    3    3    0    0 -0.26445122179E+02  0.10109543828E+02  0.48499969776E+01  0.28724028864E+02  0.00000000000E+00 0.  1.
         11    1    3    3    0    0  0.28976879946E+02 -0.14098317447E+02 -0.94379319143E+02  0.99729022898E+02  0.00000000000E+00 0. -1.
         21    1    1    2  502  501 -0.47054615022E+02  0.27095899042E+02 -0.13895334058E+03  0.14918564073E+03  0.00000000000E+00 0.  1.
<scales pt_clust_5="13000.00000" pt_clust_6="13000.00000" pt_clust_7="13000.00000" pt_clust_8="13000.00000" pt_clust_9="54.29848"></scales>
<clustering>
<clus scale="   54.298">  2  9  1 -1</clus>
<clus scale="   91.765">  5  6 -1 -1</clus>
<clus scale="   91.991">  7  8 -1 -1</clus>
<clus scale="   92.836">  2  5  1 -1</clus>
<clus scale="   54.298">  2  5  1 -1</clus>
</clustering>
</event>
<event>
 9    1  0.2423659E-006  0.1000241E+03  0.7546771E-02  0.1280516E+00
          1   -1    0    0  502    0  0.00000000000E+00  0.00000000000E+00  0.99922569121E+02  0.99922569121E+02  0.00000000000E+00 0. -1.
         -1   -1    0    0    0  501 -0.00000000000E+00 -0.00000000000E+00 -0.38645682163E+03  0.38645682163E+03  0.00000000000E+00 0.  1.
         23    2    1    2    0    0 -0.40457441096E+02  0.29266101067E+01 -0.22129922148E+03  0.24317525952E+03  0.92279422572E+02 0.  0.
         23    2    1    2    0    0  0.11821035761E+02 -0.64323954671E+02 -0.11358400028E+03  0.15997372538E+03  0.91722187409E+02 0.  0.
        -13    1    4    4    0    0  0.87952142858E+01 -0.24161374492E+02 -0.11677390315E+03  0.11957120167E+03  0.00000000000E+00 0.  1.
         13    1    4    4    0    0  0.30258214757E+01 -0.40162580179E+02  0.31899028722E+01  0.40402523715E+02  0.00000000000E+00 0. -1.
        -13    1    3    3    0    0  0.28492733719E+02 -0.29853767133E+01 -0.94164382554E+02  0.98426009219E+02  0.00000000000E+00 0.  1.
         13    1    3    3    0    0 -0.68950174815E+02  0.59119868200E+01 -0.12713483892E+03  0.14474925030E+03  0.00000000000E+00 0. -1.
         21    1    1    2  502  501  0.28636405335E+02  0.61397344564E+02  0.48348969246E+02  0.83230405845E+02  0.00000000000E+00 0. -1.
<scales pt_clust_5="13000.00000" pt_clust_6="13000.00000" pt_clust_7="13000.00000" pt_clust_8="13000.00000" pt_clust_9="67.74716"></scales>
<clustering>
<clus scale="   67.747">  1  9  2 -1</clus>
<clus scale="   91.722">  5  6 -1 -1</clus>
<clus scale="   92.279">  7  8 -1 -1</clus>
<clus scale="   99.510">  1  5  2 -1</clus>
<clus scale="   67.747">  1  5  2 -1</clus>
</clustering>
</event>
<event>
 9    1  0.2423659E-006  0.1149363E+03  0.7546771E-02  0.1252156E+00
         -1   -1    0    0    0  501 -0.00000000000E+00  0.00000000000E+00  0.53308852478E+02  0.53308852478E+02  0.00000000000E+00 0.  1.
          1   -1    0    0  502    0  0.00000000000E+00 -0.00000000000E+00 -0.35914912948E+03  0.35914912948E+03  0.00000000000E+00 0. -1.
         23    2    1    2    0    0 -0.45489581409E+02 -0.74716816280E+02 -0.10570744754E+03  0.16460905544E+03  0.90940486114E+02 0.  0.
         23    2    1    2    0    0  0.38494359940E+02  0.48608032536E+02 -0.18991310818E+03  0.21895179146E+03  0.89601014218E+02 0.  0.
        -11    1    3    3    0    0  0.22383554607E+02 -0.16766406034E+01 -0.52130078875E+01  0.23043656216E+02  0.00000000000E+00 0.  1.
         11    1    3    3    0    0 -0.67873136016E+02 -0.73040175676E+02 -0.10049443965E+03  0.14156539922E+03  0.00000000000E+00 0. -1.
        -13    1    4    4    0    0  0.31899286172E+02  0.38399743946E+00 -0.15696892779E+03  0.16017788925E+03  0.00000000000E+00 0. -1.
         13    1    4    4    0    0  0.65950737671E+01  0.48224035097E+02 -0.32944180387E+02  0.58773902205E+02  0.00000000000E+00 0.  1.
         21    1    1    2  502  501  0.69952214699E+01  0.26108783743E+02 -0.10219721284E+02  0.28897135067E+02  0.00000000000E+00 0.  1.
<scales pt_clust_5="13000.00000" pt_clust_6="13000.00000" pt_clust_7="13000.00000" pt_clust_8="13000.00000" pt_clust_9="27.02965"></scales>
<clustering>
<clus scale="   27.030">  1  9  2 -1</clus>
<clus scale="   89.601">  7  8 -1 -1</clus>
<clus scale="   90.940">  5  6 -1 -1</clus>
<clus scale="  113.879">  2  7  1 -1</clus>
<clus scale="  113.879">  2  5  1 -1</clus>
</clustering>
</event>
<event>
 9    1  0.2423659E-006  0.2089242E+03  0.7546771E-02  0.1174894E+00
         -1   -1    0    0    0  501 -0.00000000000E+00  0.00000000000E+00  0.23492456040E+03  0.23492456040E+03  0.00000000000E+00 0.  1.
          1   -1    0    0  502    0  0.00000000000E+00 -0.00000000000E+00 -0.70752710251E+03  0.70752710251E+03  0.00000000000E+00 0. -1.
         23    2    1    2    0    0 -0.18686262528E+03  0.41324294946E+02  0.14544104129E+03  0.25713642632E+03  0.91327472145E+02 0.  0.
         23    2    1    2    0    0  0.26707690449E+02  0.24005556760E+02 -0.37124304908E+03  0.38393823611E+03  0.91091164095E+02 0.  0.
        -13    1    3    3    0    0 -0.14815387113E+03 -0.21961140711E+01  0.12940923368E+03  0.19672605880E+03  0.00000000000E+00 0.  1.
         13    1    3    3    0    0 -0.38708754156E+02  0.43520409018E+02  0.16031807611E+02  0.60410367526E+02  0.00000000000E+00 0. -1.
        -13    1    4    4    0    0 -0.24148234000E+02 -0.13738871342E+02 -0.57418173908E+02  0.63786679534E+02  0.00000000000E+00 0.  1.
         13    1    4    4    0    0  0.50855924449E+02  0.37744428102E+02 -0.31382487517E+03  0.32015155658E+03  0.00000000000E+00 0. -1.
         21    1    1    2  502  501  0.16015493484E+03 -0.65329851706E+02 -0.24680053432E+03  0.30137700048E+03  0.00000000000E+00 0. -1.
<scales pt_clust_5="13000.00000" pt_clust_6="13000.00000" pt_clust_7="13000.00000" pt_clust_8="13000.00000" pt_clust_9="187.90582"></scales>
<clustering>
<clus scale="   91.091">  7  8 -1 -1</clus>
<clus scale="   91.327">  5  6 -1 -1</clus>
<clus scale="   97.914">  2  7  1 -1</clus>
<clus scale="  187.906">  2  9  1 -1</clus>
<clus scale="   97.914">  2  5  1 -1</clus>
</clustering>
</event>
<event>
 9    1  0.1405423E-005  0.1728975E+03  0.7546771E-02  0.1195059E+00
          1   -1    0    0  502    0  0.00000000000E+00  0.00000000000E+00  0.38852510658E+03  0.38852510658E+03  0.00000000000E+00 0. -1.
         -1   -1    0    0    0  501 -0.00000000000E+00 -0.00000000000E+00 -0.61480370438E+03  0.61480370438E+03  0.00000000000E+00 0.  1.
         23    2    1    2    0    0 -0.54253132519E+02  0.26390857283E+02 -0.27073795443E+02  0.11349563006E+03  0.92240923167E+02 0.  0.
         23    2    1    2    0    0  0.11277131954E+03  0.80169220004E+02 -0.51724529548E+03  0.54934943158E+03  0.12287240507E+03 0.  0.
        -11    1    4    4    0    0  0.19060818300E+02 -0.30203080811E+02 -0.61057946100E+02  0.70736225986E+02  0.00000000000E+00 0. -1.
         11    1    4    4    0    0  0.93710501243E+02  0.11037230081E+03 -0.45618734938E+03  0.47861320559E+03  0.00000000000E+00 0.  1.
        -13    1    3    3    0    0  0.19545486916E+02 -0.85379229827E+01  0.10318098598E+02  0.23693571835E+02  0.00000000000E+00 0. -1.
         13    1    3    3    0    0 -0.73798619436E+02  0.34928780266E+02 -0.37391894041E+02  0.89802058225E+02  0.00000000000E+00 0.  1.
         21    1    1    2  502  501 -0.58518187023E+02 -0.10656007729E+03  0.31804049313E+03  0.34048374933E+03  0.00000000000E+00 0.  1.
<scales pt_clust_5="13000.00000" pt_clust_6="13000.00000" pt_clust_7="13000.00000" pt_clust_8="13000.00000" pt_clust_9="121.63848"></scales>
<clustering>
<clus scale="   92.241">  7  8 -1 -1</clus>
<clus scale="  110.219">  2  7  1 -1</clus>
<clus scale="  121.638">  1  9  2 -1</clus>
<clus scale="  122.872">  5  6 -1 -1</clus>
<clus scale="  121.638">  1  5  2 -1</clus>
</clustering>
</event>
<event>
 9    1  0.2423659E-006  0.9697270E+02  0.7546771E-02  0.1287616E+00
          1   -1    0    0  502    0  0.00000000000E+00  0.00000000000E+00  0.63350661200E+02  0.63350661200E+02  0.00000000000E+00 0. -1.
         -1   -1    0    0    0  501 -0.00000000000E+00 -0.00000000000E+00 -0.46865176681E+03  0.46865176681E+03  0.00000000000E+00 0.  1.
         23    2    1    2    0    0  0.17508235453E+02 -0.32760112906E+02 -0.25992013768E+03  0.27832662733E+03  0.92344302495E+02 0.  0.
         23    2    1    2    0    0 -0.55217124306E+02 -0.49623387811E+02 -0.80758629901E+02  0.14238766986E+03  0.90779297146E+02 0.  0.
        -11    1    3    3    0    0  0.13453319726E+01  0.31817536792E+02 -0.65626587987E+02  0.72945285087E+02  0.00000000000E+00 0.  1.
         11    1    3    3    0    0  0.16162903480E+02 -0.64577649698E+02 -0.19429354970E+03  0.20538134225E+03  0.00000000000E+00 0. -1.
        -13    1    4    4    0    0 -0.39357265890E+02 -0.61553802984E+01 -0.87010811124E+02  0.95696208585E+02  0.00000000000E+00 0.  1.
         13    1    4    4    0    0 -0.15859858416E+02 -0.43468007512E+02  0.62521812230E+01  0.46691461276E+02  0.00000000000E+00 0. -1.
         21    1    1    2  502  501  0.37708888853E+02  0.82383500717E+02 -0.64622338030E+02  0.11128813082E+03  0.00000000000E+00 0.  1.
<scales pt_clust_5="13000.00000" pt_clust_6="13000.00000" pt_clust_7="13000.00000" pt_clust_8="13000.00000" pt_clust_9="90.60354"></scales>
<clustering>
<clus scale="   90.604">  1  9  2 -1</clus>
<clus scale="   90.779">  7  8 -1 -1</clus>
<clus scale="   92.344">  5  6 -1 -1</clus>
<clus scale="   95.484">  1  7  2 -1</clus>
<clus scale="   90.604">  1  5  2 -1</clus>
</clustering>
</event>
<event>
 9    1  0.2423659E-006  0.9365309E+02  0.7546771E-02  0.1294785E+00
         -1   -1    0    0    0  501 -0.00000000000E+00  0.00000000000E+00  0.73002474506E+02  0.73002474506E+02  0.00000000000E+00 0.  1.
          1   -1    0    0  502    0  0.00000000000E+00 -0.00000000000E+00 -0.31745450578E+03  0.31745450578E+03  0.00000000000E+00 0. -1.
         23    2    1    2    0    0 -0.13879432610E+02 -0.24374912644E+02 -0.18675686775E+02  0.97780394560E+02  0.91790246039E+02 0.  0.
         23    2    1    2    0    0 -0.56765664713E+02 -0.51198124515E+00 -0.16251700943E+03  0.19463664113E+03  0.90824230803E+02 0.  0.
        -11    1    4    4    0    0  0.17761123933E+02  0.11457868525E+02 -0.78739005563E+01  0.22555234081E+02  0.00000000000E+00 0. -1.
         11    1    4    4    0    0 -0.74526788646E+02 -0.11969849770E+02 -0.15464310888E+03  0.17208140705E+03  0.00000000000E+00 0.  1.
        -13    1    3    3    0    0  0.89252645840E+00 -0.57891546671E+02 -0.31079670705E+01  0.57981783680E+02  0.00000000000E+00 0.  1.
         13    1    3    3    0    0 -0.14771959068E+02  0.33516634027E+02 -0.15567719705E+02  0.39798610880E+02  0.00000000000E+00 0. -1.
         21    1    1    2  502  501  0.70645097322E+02  0.24886893890E+02 -0.63259335066E+02  0.98039944595E+02  0.00000000000E+00 0. -1.
<scales pt_clust_5="13000.00000" pt_clust_6="13000.00000" pt_clust_7="13000.00000" pt_clust_8="13000.00000" pt_clust_9="74.90052"></scales>
<clustering>
<clus scale="   74.901">  2  9  1 -1</clus>
<clus scale="   90.824">  5  6 -1 -1</clus>
<clus scale="   91.790">  7  8 -1 -1</clus>
<clus scale="   92.706">  2  5  1 -1</clus>
<clus scale="   74.901">  2  5  1 -1</clus>
</clustering>
</event>
<event>
 9    1  0.2423659E-006  0.1417076E+03  0.7546771E-02  0.1211262E+00
          2   -1    0    0  502    0  0.00000000000E+00  0.00000000000E+00  0.29188508588E+03  0.29188508588E+03  0.00000000000E+00 0. -1.
         -2   -1    0    0    0  501 -0.00000000000E+00 -0.00000000000E+00 -0.11063423273E+03  0.11063423273E+03  0.00000000000E+00 0.  1.
         23    2    1    2    0    0 -0.51921435836E+02  0.66560098048E+02  0.13836396981E+02  0.12630624204E+03  0.92928675586E+02 0.  0.
         23    2    1    2    0    0  0.44094962283E+02 -0.11107924885E+03  0.17431735494E+03  0.23048717047E+03  0.91950151140E+02 0.  0.
        -11    1    3    3    0    0 -0.57204934250E+02  0.42144717776E+02  0.46699919327E+02  0.85026255969E+02  0.00000000000E+00 0.  1.
         11    1    3    3    0    0  0.52834984138E+01  0.24415380272E+02 -0.32863522345E+02  0.41279986074E+02  0.00000000000E+00 0. -1.
        -13    1    4    4    0    0  0.56938204620E+02 -0.30987179564E+02  0.10687202075E+03  0.12499517295E+03  0.00000000000E+00 0. -1.
         13    1    4    4    0    0 -0.12843242338E+02 -0.80092069288E+02  0.67445334199E+02  0.10549199752E+03  0.00000000000E+00 0.  1.
         21    1    1    2  502  501  0.78264735537E+01  0.44519150803E+02 -0.69028987828E+01  0.45725906094E+02  0.00000000000E+00 0.  1.
<scales pt_clust_5="13000.00000" pt_clust_6="13000.00000" pt_clust_7="13000.00000" pt_clust_8="13000.00000" pt_clust_9="45.20186"></scales>
<clustering>
<clus scale="   45.202">  2  9  1 -1</clus>
<clus scale="   91.950">  7  8 -1 -1</clus>
<clus scale="   92.929">  5  6 -1 -1</clus>
<clus scale="  141.068">  1  7  2 -1</clus>
<clus scale="  141.068">  1  5  2 -1</clus>
</clustering>
</event>
<event>
 9    1  0.2423659E-006  0.1006817E+03  0.7546771E-02  0.1285287E+00
         -2   -1    0    0    0  501 -0.00000000000E+00  0.00000000000E+00  0.28597147498E+03  0.28597147498E+03  0.00000000000E+00 0.  1.
          2   -1    0    0  502    0  0.00000000000E+00 -0.00000000000E+00 -0.10142654310E+03  0.10142654310E+03  0.00000000000E+00 0. -1.
         23    2    1    2    0    0 -0.42219257907E+01 -0.29771214070E+02  0.22263866373E+03  0.24123869634E+03  0.87886200174E+02 0.  0.
         23    2    1    2    0    0 -0.76600063144E+01  0.11463836682E+02 -0.58479140346E+02  0.11629453885E+03  0.99571655922E+02 0.  0.
        -11    1    4    4    0    0 -0.20289520718E+02 -0.21292806857E+02  0.16341731366E+02  0.33646700564E+02  0.00000000000E+00 0.  1.
         11    1    4    4    0    0  0.12629514403E+02  0.32756643538E+02 -0.74820871712E+02  0.82647838288E+02  0.00000000000E+00 0. -1.
        -11    1    3    3    0    0  0.23543775255E+02 -0.45029683848E+02  0.18593136822E+03  0.19274972236E+03  0.00000000000E+00 0.  1.
         11    1    3    3    0    0 -0.27765701045E+02  0.15258469778E+02  0.36707295510E+02  0.48488973985E+02  0.00000000000E+00 0. -1.
         21    1    1    2  502  501  0.11881932105E+02  0.18307377388E+02  0.20385408500E+02  0.29864782891E+02  0.00000000000E+00 0.  1.
<scales pt_clust_5="13000.00000" pt_clust_6="13000.00000" pt_clust_7="13000.00000" pt_clust_8="13000.00000" pt_clust_9="21.82522"></scales>
<clustering>
<clus scale="   21.825">  1  9  2 -1</clus>
<clus scale="   87.886">  7  8 -1 -1</clus>
<clus scale="   89.142">  1  7  2 -1</clus>
<clus scale="   99.572">  5  6 -1 -1</clus>
<clus scale="  100.682">  2  5  1 -1</clus>
</clustering>
</event>
<event>
 9    1  0.2423659E-006  0.2018953E+03  0.7546771E-02  0.1170546E+00
         -1   -1    0    0    0  501 -0.00000000000E+00  0.00000000000E+00  0.36477060687E+03  0.36477060687E+03  0.00000000000E+00 0.  1.
          1   -1    0    0  502    0  0.00000000000E+00 -0.00000000000E+00 -0.29061267084E+03  0.29061267084E+03  0.00000000000E+00 0. -1.
         23    2    1    2    0    0 -0.14023052373E+02  0.12961494370E+03  0.70812262830E+01  0.15927399872E+03  0.91221616265E+02 0.  0.
         23    2    1    2    0    0 -0.28483680912E+02  0.73259377212E+02 -0.15265106118E+03  0.19404123074E+03  0.90395775996E+02 0.  0.
        -11    1    3    3    0    0  0.19057984390E+02  0.18343311558E+02 -0.27491003948E+02  0.38150218164E+02  0.00000000000E+00 0.  1.
         11    1    3    3    0    0 -0.33081036763E+02  0.11127163214E+03  0.34572230231E+02  0.12112378055E+03  0.00000000000E+00 0. -1.
        -11    1    4    4    0    0 -0.57615765477E+02  0.64621946116E+02 -0.92776786141E+02  0.12689800786E+03  0.00000000000E+00 0. -1.
         11    1    4    4    0    0  0.29132084564E+02  0.86374310959E+01 -0.59874275041E+02  0.67143222880E+02  0.00000000000E+00 0.  1.
         21    1    1    2  502  501  0.42506733286E+02 -0.20287432091E+03  0.21972777094E+03  0.30206804826E+03  0.00000000000E+00 0.  1.
<scales pt_clust_5="13000.00000" pt_clust_6="13000.00000" pt_clust_7="13000.00000" pt_clust_8="13000.00000" pt_clust_9="180.11197"></scales>
<clustering>
<clus scale="   90.396">  7  8 -1 -1</clus>
<clus scale="   91.222">  5  6 -1 -1</clus>
<clus scale="  119.790">  2  7  1 -1</clus>
<clus scale="  180.112">  1  9  2 -1</clus>
<clus scale="  119.790">  2  5  1 -1</clus>
</clustering>
</event>
<event>
 9    1  0.2423659E-006  0.1062975E+03  0.7546771E-02  0.1267914E+00
          1   -1    0    0  502    0  0.00000000000E+00  0.00000000000E+00  0.18496360877E+03  0.18496360877E+03  0.00000000000E+00 0. -1.
         -1   -1    0    0    0  501 -0.00000000000E+00 -0.00000000000E+00 -0.53076779700E+03  0.53076779700E+03  0.00000000000E+00 0.  1.
         23    2    1    2    0    0 -0.50510756235E+02 -0.20726978091E+02 -0.48497156938E+03  0.49669627864E+03  0.92351643119E+02 0.  0.
         23    2    1    2    0    0 -0.18920128866E+02  0.28148735076E+02  0.76303879975E+02  0.12508008435E+03  0.93125844104E+02 0.  0.
        -13    1    4    4    0    0 -0.48472987994E+02  0.30478514807E+02  0.18595224970E+02  0.60202598130E+02  0.00000000000E+00 0.  1.
         13    1    4    4    0    0  0.29552859129E+02 -0.23297797308E+01  0.57708655004E+02  0.64877486224E+02  0.00000000000E+00 0. -1.
        -13    1    3    3    0    0 -0.38554125441E+02 -0.55671196417E+02 -0.36273845042E+03  0.36900526570E+03  0.00000000000E+00 0.  1.
         13    1    3    3    0    0 -0.11956630795E+02  0.34944218327E+02 -0.12223311896E+03  0.12769101294E+03  0.00000000000E+00 0. -1.
         21    1    1    2  502  501  0.69430885101E+02 -0.74217569856E+01  0.62863501175E+02  0.93955042774E+02  0.00000000000E+00 0. -1.
<scales pt_clust_5="13000.00000" pt_clust_6="13000.00000" pt_clust_7="13000.00000" pt_clust_8="13000.00000" pt_clust_9="69.82643"></scales>
<clustering>
<clus scale="   69.826">  1  9  2 -1</clus>
<clus scale="   92.352">  7  8 -1 -1</clus>
<clus scale="   93.126">  5  6 -1 -1</clus>
<clus scale="  105.620">  2  7  1 -1</clus>
<clus scale="   69.826">  1  5  2 -1</clus>
</clustering>
</event>
<event>
 9    1  0.2423659E-006  0.9419043E+02  0.7546771E-02  0.1294134E+00
          1   -1    0    0  502    0  0.00000000000E+00  0.00000000000E+00  0.95262067804E+03  0.95262067804E+03  0.00000000000E+00 0. -1.
         -1   -1    0    0    0  501 -0.00000000000E+00 -0.00000000000E+00 -0.16763991583E+02  0.16763991583E+02  0.00000000000E+00 0.  1.
         23    2    1    2    0    0  0.11304282679E+02  0.18720670234E+02  0.22610966297E+03  0.24447032203E+03  0.90343280693E+02 0.  0.
         23    2    1    2    0    0 -0.28907547495E+02  0.18195587557E+02  0.37618321355E+03  0.38885259683E+03  0.92335292263E+02 0.  0.
        -11    1    4    4    0    0  0.27362964626E+02 -0.16736783335E+02  0.13276309649E+03  0.13658291086E+03  0.00000000000E+00 0.  1.
         11    1    4    4    0    0 -0.56270512121E+02  0.34932370892E+02  0.24342011707E+03  0.25226968598E+03  0.00000000000E+00 0. -1.
        -13    1    3    3    0    0 -0.83379598896E+01 -0.32487227762E+02  0.12524869494E+03  0.12966177975E+03  0.00000000000E+00 0.  1.
         13    1    3    3    0    0  0.19642242568E+02  0.51207897996E+02  0.10086096803E+03  0.11480854228E+03  0.00000000000E+00 0. -1.
         21    1    1    2  502  501  0.17603264817E+02 -0.36916257791E+02  0.33356380993E+03  0.33606175075E+03  0.00000000000E+00 0.  1.
<scales pt_clust_5="13000.00000" pt_clust_6="13000.00000" pt_clust_7="13000.00000" pt_clust_8="13000.00000" pt_clust_9="40.89847"></scales>
<clustering>
<clus scale="   40.898">  1  9  2 -1</clus>
<clus scale="   90.343">  7  8 -1 -1</clus>
<clus scale="   92.238">  2  7  1 -1</clus>
<clus scale="   92.335">  5  6 -1 -1</clus>
<clus scale="   40.898">  1  5  2 -1</clus>
</clustering>
</event>
<event>
 9    1  0.2423659E-006  0.1489585E+03  0.7546771E-02  0.1218835E+00
         -1   -1    0    0    0  501 -0.00000000000E+00  0.00000000000E+00  0.64716524025E+03  0.64716524025E+03  0.00000000000E+00 0.  1.
          1   -1    0    0  502    0  0.00000000000E+00 -0.00000000000E+00 -0.54699402726E+02  0.54699402726E+02  0.00000000000E+00 0. -1.
         23    2    1    2    0    0  0.25943575916E+02 -0.45696550507E+02  0.18916812626E+03  0.21561243017E+03  0.89122927414E+02 0.  0.
         23    2    1    2    0    0 -0.13203369560E+03  0.35808732916E+02  0.23468059508E+03  0.28679140387E+03  0.91973721789E+02 0.  0.
        -11    1    4    4    0    0 -0.48619865862E+02  0.43132241133E+02  0.16674446259E+03  0.17896367617E+03  0.00000000000E+00 0.  1.
         11    1    4    4    0    0 -0.83413829740E+02 -0.73235082170E+01  0.67936132484E+02  0.10782772770E+03  0.00000000000E+00 0. -1.
        -13    1    3    3    0    0 -0.10573521998E+01 -0.62283801714E+02  0.76937300175E+02  0.98993626602E+02  0.00000000000E+00 0. -1.
         13    1    3    3    0    0  0.27000928115E+02  0.16587251206E+02  0.11223082608E+03  0.11661880356E+03  0.00000000000E+00 0.  1.
         21    1    1    2  502  501  0.10609011969E+03  0.98878175918E+01  0.16861711619E+03  0.19946080894E+03  0.00000000000E+00 0. -1.
<scales pt_clust_5="13000.00000" pt_clust_6="13000.00000" pt_clust_7="13000.00000" pt_clust_8="13000.00000" pt_clust_9="117.17279"></scales>
<clustering>
<clus scale="   89.123">  7  8 -1 -1</clus>
<clus scale="   91.974">  5  6 -1 -1</clus>
<clus scale="  103.461">  1  7  2 -1</clus>
<clus scale="  117.173">  2  9  1 -1</clus>
<clus scale="  117.173">  2  5  1 -1</clus>
</clustering>
</event>
<event>
 9    1  0.2423659E-006  0.9693611E+02  0.7546771E-02  0.1287652E+00
         -1   -1    0    0    0  501 -0.00000000000E+00  0.00000000000E+00  0.18795647087E+02  0.18795647087E+02  0.00000000000E+00 0.  1.
          1   -1    0    0  502    0  0.00000000000E+00 -0.00000000000E+00 -0.76057554497E+03  0.76057554497E+03  0.00000000000E+00 0. -1.
         23    2    1    2    0    0 -0.32820801865E+02 -0.14855363489E+01 -0.23890740890E+03  0.25828186107E+03  0.92484365580E+02 0.  0.
         23    2    1    2    0    0  0.35130885261E+01  0.26748787752E+02 -0.34905243951E+03  0.36247728367E+03  0.93937938112E+02 0.  0.
        -11    1    4    4    0    0  0.30473984787E+02 -0.15112506663E+02 -0.58345820681E+02  0.67537296343E+02  0.00000000000E+00 0.  1.
         11    1    4    4    0    0 -0.26960896261E+02  0.41861294415E+02 -0.29070661883E+03  0.29493998733E+03  0.00000000000E+00 0. -1.
        -13    1    3    3    0    0  0.32347113345E+02 -0.56789565291E+01 -0.79141421155E+02  0.85685184434E+02  0.00000000000E+00 0.  1.
         13    1    3    3    0    0 -0.65167915209E+02  0.41934201802E+01 -0.15976598775E+03  0.17259667664E+03  0.00000000000E+00 0. -1.
         21    1    1    2  502  501  0.29307713339E+02 -0.25263251403E+02 -0.15382004947E+03  0.15861204731E+03  0.00000000000E+00 0.  1.
<scales pt_clust_5="13000.00000" pt_clust_6="13000.00000" pt_clust_7="13000.00000" pt_clust_8="13000.00000" pt_clust_9="38.69333"></scales>
<clustering>
<clus scale="   38.693">  2  9  1 -1</clus>
<clus scale="   92.484">  7  8 -1 -1</clus>
<clus scale="   93.938">  5  6 -1 -1</clus>
<clus scale="   95.528">  1  7  2 -1</clus>
<clus scale="   38.693">  2  5  1 -1</clus>
</clustering>
</event>
<event>
 9    1  0.2423659E-006  0.1164309E+03  0.7546771E-02  0.1255260E+00
          1   -1    0    0  502    0  0.00000000000E+00  0.00000000000E+00  0.60376732489E+03  0.60376732489E+03  0.00000000000E+00 0. -1.
         -1   -1    0    0    0  501 -0.00000000000E+00 -0.00000000000E+00 -0.32275641235E+02  0.32275641235E+02  0.00000000000E+00 0.  1.
         23    2    1    2    0    0  0.36478606471E+02  0.79290306531E+01  0.21406780837E+03  0.24161016965E+03  0.10562617687E+03 0.  0.
         23    2    1    2    0    0 -0.57031987935E+02  0.39344169889E+02  0.22333645703E+03  0.25077823611E+03  0.90608715450E+02 0.  0.
        -11    1    4    4    0    0  0.94715051706E+01  0.39008997215E+02  0.13081141365E+03  0.13683214979E+03  0.00000000000E+00 0. -1.
         11    1    4    4    0    0 -0.66503493105E+02  0.33517267416E+00  0.92525043374E+02  0.11394608632E+03  0.00000000000E+00 0.  1.
        -13    1    3    3    0    0 -0.11131124920E+02 -0.27938594689E+02  0.15428078316E+03  0.15718469095E+03  0.00000000000E+00 0.  1.
         13    1    3    3    0    0  0.47609731391E+02  0.35867625342E+02  0.59787025202E+02  0.84425478698E+02  0.00000000000E+00 0. -1.
         21    1    1    2  502  501  0.20553381464E+02 -0.47273200542E+02  0.13408741826E+03  0.14365456037E+03  0.00000000000E+00 0. -1.
<scales pt_clust_5="13000.00000" pt_clust_6="13000.00000" pt_clust_7="13000.00000" pt_clust_8="13000.00000" pt_clust_9="51.54801"></scales>
<clustering>
<clus scale="   51.548">  1  9  2 -1</clus>
<clus scale="   90.609">  5  6 -1 -1</clus>
<clus scale="  103.001">  1  5  2 -1</clus>
<clus scale="  105.626">  7  8 -1 -1</clus>
<clus scale="   51.548">  1  5  2 -1</clus>
</clustering>
</event>
<event>
 9    1  0.2423659E-006  0.1267632E+03  0.7546771E-02  0.1232693E+00
         -1   -1    0    0    0  501 -0.00000000000E+00  0.00000000000E+00  0.67886455289E+03  0.67886455289E+03  0.00000000000E+00 0.  1.
          1   -1    0    0  502    0  0.00000000000E+00 -0.00000000000E+00 -0.39066397239E+02  0.39066397239E+02  0.00000000000E+00 0. -1.
         23    2    1    2    0    0  0.35108013351E+02  0.54258042598E+02  0.32939641748E+03  0.34818923385E+03  0.92505323794E+02 0.  0.
         23    2    1    2    0    0 -0.54644450436E+02 -0.79993163530E+02  0.12849772982E+03  0.18499043191E+03  0.91240731876E+02 0.  0.
        -13    1    3    3    0    0  0.47299621033E+02 -0.32818344649E+01  0.20745210352E+03  0.21280131542E+03  0.00000000000E+00 0.  1.
         13    1    3    3    0    0 -0.12191607682E+02  0.57539877063E+02  0.12194431396E+03  0.13538791843E+03  0.00000000000E+00 0. -1.
        -13    1    4    4    0    0 -0.74643507643E+02 -0.56008660752E+02  0.63486839417E+02  0.11286807384E+03  0.00000000000E+00 0. -1.
         13    1    4    4    0    0  0.19999057207E+02 -0.23984502778E+02  0.65010890401E+02  0.72122358069E+02  0.00000000000E+00 0.  1.
         21    1    1    2  502  501  0.19536437085E+02  0.25735120932E+02  0.18190400835E+03  0.18475128437E+03  0.00000000000E+00 0.  1.
<scales pt_clust_5="13000.00000" pt_clust_6="13000.00000" pt_clust_7="13000.00000" pt_clust_8="13000.00000" pt_clust_9="32.31051"></scales>
<clustering>
<clus scale="   32.311">  1  9  2 -1</clus>
<clus scale="   91.241">  7  8 -1 -1</clus>
<clus scale="   92.505">  5  6 -1 -1</clus>
<clus scale="  125.843">  2  7  1 -1</clus>
<clus scale="  125.843">  2  5  1 -1</clus>
</clustering>
</event>
<event>
 9    1  0.2423659E-006  0.9384167E+02  0.7546771E-02  0.1294571E+00
          1   -1    0    0  502    0  0.00000000000E+00  0.00000000000E+00  0.16276470565E+03  0.16276470565E+03  0.00000000000E+00 0. -1.
         -1   -1    0    0    0  501 -0.00000000000E+00 -0.00000000000E+00 -0.20273486584E+03  0.20273486584E+03  0.00000000000E+00 0.  1.
         23    2    1    2    0    0  0.24599346737E+02  0.85022089120E+00 -0.14763538782E+03  0.17444291447E+03  0.89600624637E+02 0.  0.
         23    2    1    2    0    0 -0.46279073309E+02  0.39762906328E+02  0.53154732943E+02  0.11970659970E+03  0.88212261236E+02 0.  0.
        -11    1    3    3    0    0  0.47070959590E+02 -0.15660745181E+02 -0.13500477106E+03  0.14383053356E+03  0.00000000000E+00 0.  1.
         11    1    3    3    0    0 -0.22471612854E+02  0.16510966073E+02 -0.12630616765E+02  0.30612380907E+02  0.00000000000E+00 0. -1.
        -13    1    4    4    0    0  0.62235576925E+01  0.52228894531E+02  0.33054305515E+02  0.62122276257E+02  0.00000000000E+00 0.  1.
         13    1    4    4    0    0 -0.52502631002E+02 -0.12465988203E+02  0.20100427429E+02  0.57584323447E+02  0.00000000000E+00 0. -1.
         21    1    1    2  502  501  0.21679726573E+02 -0.40613127219E+02  0.54510494700E+02  0.71350057317E+02  0.00000000000E+00 0. -1.
<scales pt_clust_5="13000.00000" pt_clust_6="13000.00000" pt_clust_7="13000.00000" pt_clust_8="13000.00000" pt_clust_9="46.03734"></scales>
<clustering>
<clus scale="   46.037">  1  9  2 -1</clus>
<clus scale="   88.212">  7  8 -1 -1</clus>
<clus scale="   89.601">  5  6 -1 -1</clus>
<clus scale="   92.517">  1  7  2 -1</clus>
<clus scale="   46.037">  1  5  2 -1</clus>
</clustering>
</event>
<event>
 9    1  0.2423659E-006  0.1063885E+03  0.7546771E-02  0.1268465E+00
          2   -1    0    0  502    0  0.00000000000E+00  0.00000000000E+00  0.86151684862E+03  0.86151684862E+03  0.00000000000E+00 0. -1.
         -2   -1    0    0    0  501 -0.00000000000E+00 -0.00000000000E+00 -0.18849391265E+03  0.18849391265E+03  0.00000000000E+00 0.  1.
         23    2    1    2    0    0  0.40907809909E+02 -0.23240714853E+02 -0.16131304132E+03  0.19283212487E+03  0.94597840064E+02 0.  0.
         23    2    1    2    0    0 -0.89710873502E+02  0.35901198121E+02  0.44532762138E+03  0.46491657117E+03  0.92161765029E+02 0.  0.
        -11    1    4    4    0    0 -0.30349951232E+02  0.54531145152E+02  0.30644471408E+03  0.31273491669E+03  0.00000000000E+00 0. -1.
         11    1    4    4    0    0 -0.59360922270E+02 -0.18629947031E+02  0.13888290730E+03  0.15218165448E+03  0.00000000000E+00 0.  1.
        -13    1    3    3    0    0  0.50335713673E+01 -0.41393553893E+02 -0.14243856955E+03  0.14841667440E+03  0.00000000000E+00 0.  1.
         13    1    3    3    0    0  0.35874238542E+02  0.18152839040E+02 -0.18874471772E+02  0.44415450474E+02  0.00000000000E+00 0. -1.
         21    1    1    2  502  501  0.48803063593E+02 -0.12660483268E+02  0.38900835590E+03  0.39226206523E+03  0.00000000000E+00 0. -1.
<scales pt_clust_5="13000.00000" pt_clust_6="13000.00000" pt_clust_7="13000.00000" pt_clust_8="13000.00000" pt_clust_9="50.41852"></scales>
<clustering>
<clus scale="   50.419">  1  9  2 -1</clus>
<clus scale="   92.162">  5  6 -1 -1</clus>
<clus scale="   94.598">  7  8 -1 -1</clus>
<clus scale="  104.228">  1  5  2 -1</clus>
<clus scale="   50.419">  1  5  2 -1</clus>
</clustering>
</event>
<event>
 9    1  0.2423659E-006  0.1128545E+03  0.7546771E-02  0.1256195E+00
          2   -1    0    0  502    0  0.00000000000E+00  0.00000000000E+00  0.75692190622E+03  0.75692190622E+03  0.00000000000E+00 0. -1.
         -2   -1    0    0    0  501 -0.00000000000E+00 -0.00000000000E+00 -0.38730094151E+02  0.38730094151E+02  0.00000000000E+00 0.  1.
         23    2    1    2    0    0 -0.70378548363E+02 -0.34237467271E+02  0.10476784887E+03  0.15879012882E+03  0.90070298199E+02 0.  0.
         23    2    1    2    0    0  0.26683012933E+01  0.43546685288E+02  0.39591026106E+03  0.40886285902E+03  0.92306386793E+02 0.  0.
        -11    1    3    3    0    0 -0.12188480844E+01 -0.41786373580E+02  0.68716746602E+02  0.80433686172E+02  0.00000000000E+00 0. -1.
         11    1    3    3    0    0 -0.69159700278E+02  0.75489063090E+01  0.36051102269E+02  0.78356442644E+02  0.00000000000E+00 0.  1.
        -13    1    4    4    0    0 -0.33942436527E+02 -0.80515944620E+01  0.90984006978E+02  0.97442324975E+02  0.00000000000E+00 0.  1.
         13    1    4    4    0    0  0.36610737820E+02  0.51598279750E+02  0.30492625409E+03  0.31142053405E+03  0.00000000000E+00 0. -1.
         21    1    1    2  502  501  0.67710247069E+02 -0.93092180165E+01  0.21751370214E+03  0.22799901253E+03  0.00000000000E+00 0. -1.
<scales pt_clust_5="13000.00000" pt_clust_6="13000.00000" pt_clust_7="13000.00000" pt_clust_8="13000.00000" pt_clust_9="68.34720"></scales>
<clustering>
<clus scale="   68.347">  1  9  2 -1</clus>
<clus scale="   90.070">  5  6 -1 -1</clus>
<clus scale="   92.306">  7  8 -1 -1</clus>
<clus scale="  111.033">  2  5  1 -1</clus>
<clus scale="   68.347">  1  5  2 -1</clus>
</clustering>
</event>
<event>
 9    1  0.2423659E-006  0.1457795E+03  0.7546771E-02  0.1228729E+00
          1   -1    0    0  502    0  0.00000000000E+00  0.00000000000E+00  0.96629258557E+03  0.96629258557E+03  0.00000000000E+00 0. -1.
         -1   -1    0    0    0  501 -0.00000000000E+00 -0.00000000000E+00 -0.51824946507E+02  0.51824946507E+02  0.00000000000E+00 0.  1.
         23    2    1    2    0    0  0.24039856447E+02 -0.54980344302E+01  0.46035935388E+02  0.10090342082E+03  0.86336839797E+02 0.  0.
         23    2    1    2    0    0  0.77113052608E+02 -0.78443860782E+02  0.62470981882E+03  0.64030526355E+03  0.87341917867E+02 0.  0.
        -11    1    3    3    0    0  0.10890475491E+01 -0.30993735823E+02 -0.12190851107E+02  0.33322883061E+02  0.00000000000E+00 0.  1.
         11    1    3    3    0    0  0.22950808898E+02  0.25495701392E+02  0.58226786495E+02  0.67580537761E+02  0.00000000000E+00 0. -1.
        -13    1    4    4    0    0  0.70421333850E+02 -0.14044091560E+02  0.25276435045E+03  0.26276646976E+03  0.00000000000E+00 0.  1.
         13    1    4    4    0    0  0.66917187579E+01 -0.64399769222E+02  0.37194546837E+03  0.37753879379E+03  0.00000000000E+00 0. -1.
         21    1    1    2  502  501 -0.10115290906E+03  0.83941895213E+02  0.24372188486E+03  0.27690884771E+03  0.00000000000E+00 0. -1.
<scales pt_clust_5="13000.00000" pt_clust_6="13000.00000" pt_clust_7="13000.00000" pt_clust_8="13000.00000" pt_clust_9="116.71789"></scales>
<clustering>
<clus scale="   86.337">  5  6 -1 -1</clus>
<clus scale="   87.342">  7  8 -1 -1</clus>
<clus scale="   89.790">  2  5  1 -1</clus>
<clus scale="  116.718">  2  9  1 -1</clus>
<clus scale="  145.780">  1  5  2 -1</clus>
</clustering>
</event>
<event>
 9    1  0.2423659E-006  0.1235414E+03  0.7546771E-02  0.1248103E+00
         -4   -1    0    0    0  501 -0.00000000000E+00  0.00000000000E+00  0.10087243496E+03  0.10087243496E+03  0.00000000000E+00 0.  1.
          4   -1    0    0  502    0  0.00000000000E+00 -0.00000000000E+00 -0.23018285807E+03  0.23018285807E+03  0.00000000000E+00 0. -1.
         23    2    1    2    0    0  0.31373526929E+02 -0.53912511677E+02 -0.83195598396E+02  0.15161625385E+03  0.11034094314E+03 0.  0.
         23    2    1    2    0    0 -0.52719986479E+02  0.20077048879E+02 -0.79223103056E+02  0.12750958729E+03  0.82461566369E+02 0.  0.
        -13    1    4    4    0    0 -0.30016953628E+02 -0.27485951125E+02 -0.57632713067E+02  0.70555117672E+02  0.00000000000E+00 0. -1.
         13    1    4    4    0    0 -0.22703032851E+02  0.47563000004E+02 -0.21590389989E+02  0.56954469622E+02  0.00000000000E+00 0.  1.
        -13    1    3    3    0    0  0.66597043910E+02 -0.54355897549E+01 -0.42880295161E+02  0.79394153479E+02  0.00000000000E+00 0. -1.
         13    1    3    3    0    0 -0.35223516981E+02 -0.48476921922E+02 -0.40315303236E+02  0.72222100375E+02  0.00000000000E+00 0.  1.
         21    1    1    2  502  501  0.21346459550E+02  0.33835462798E+02  0.33108278342E+02  0.51929451882E+02  0.00000000000E+00 0.  1.
<scales pt_clust_5="13000.00000" pt_clust_6="13000.00000" pt_clust_7="13000.00000" pt_clust_8="13000.00000" pt_clust_9="40.00637"></scales>
<clustering>
<clus scale="   40.006">  1  9  2 -1</clus>
<clus scale="   82.462">  5  6 -1 -1</clus>
<clus scale="   99.435">  2  5  1 -1</clus>
<clus scale="  110.341">  7  8 -1 -1</clus>
<clus scale="   99.435">  2  5  1 -1</clus>
</clustering>
</event>
<event>
 9    1  0.2423659E-006  0.9732354E+02  0.7546771E-02  0.1286378E+00
         -2   -1    0    0    0  501 -0.00000000000E+00  0.00000000000E+00  0.80068415001E+02  0.80068415001E+02  0.00000000000E+00 0.  1.
          2   -1    0    0  502    0  0.00000000000E+00 -0.00000000000E+00 -0.43998163052E+03  0.43998163052E+03  0.00000000000E+00 0. -1.
         23    2    1    2    0    0  0.99690953210E+01  0.10713102272E+02 -0.34623430429E+01  0.92310089192E+02  0.91076952768E+02 0.  0.
         23    2    1    2    0    0 -0.56968091731E+02 -0.88917411098E+02 -0.16999850077E+03  0.22016031740E+03  0.91757319172E+02 0.  0.
        -11    1    4    4    0    0 -0.42231724588E+02 -0.27166314146E+02 -0.14600144951E+02  0.52294277111E+02  0.00000000000E+00 0.  1.
         11    1    4    4    0    0 -0.14736367144E+02 -0.61751096952E+02 -0.15539835581E+03  0.16786604029E+03  0.00000000000E+00 0. -1.
        -11    1    3    3    0    0 -0.31935638757E+01 -0.25758141123E+02 -0.34127158531E+02  0.42875909713E+02  0.00000000000E+00 0.  1.
         11    1    3    3    0    0  0.13162659197E+02  0.36471243394E+02  0.30664815488E+02  0.49434179479E+02  0.00000000000E+00 0. -1.
         21    1    1    2  502  501  0.46998996410E+02  0.78204308826E+02 -0.18645237171E+03  0.20757963893E+03  0.00000000000E+00 0.  1.
<scales pt_clust_5="13000.00000" pt_clust_6="13000.00000" pt_clust_7="13000.00000" pt_clust_8="13000.00000" pt_clust_9="91.24045"></scales>
<clustering>
<clus scale="   91.077">  7  8 -1 -1</clus>
<clus scale="   91.240">  2  9  1 -1</clus>
<clus scale="   91.757">  5  6 -1 -1</clus>
<clus scale="   96.682">  1  7  2 -1</clus>
<clus scale="   91.240">  2  5  1 -1</clus>
</clustering>
</event>
<event>
 9    1  0.2423659E-006  0.1339255E+03  0.7546771E-02  0.1237937E+00
          1   -1    0    0  502    0  0.00000000000E+00  0.00000000000E+00  0.30718027060E+03  0.30718027060E+03  0.00000000000E+00 0. -1.
         -1   -1    0    0    0  501 -0.00000000000E+00 -0.00000000000E+00 -0.12216347919E+03  0.12216347919E+03  0.00000000000E+00 0.  1.
         23    2    1    2    0    0  0.35435439255E+01 -0.79288361944E+02  0.12311985645E+03  0.17191931791E+03  0.89991953944E+02 0.  0.
         23    2    1    2    0    0  0.20914305244E+02 -0.21843158007E+02  0.10732001570E+03  0.14389458129E+03  0.90958963481E+02 0.  0.
        -11    1    3    3    0    0  0.18829334599E+02  0.13936286913E+02  0.12858644966E+02  0.26722812067E+02  0.00000000000E+00 0.  1.
         11    1    3    3    0    0 -0.15285790674E+02 -0.93224648857E+02  0.11026121148E+03  0.14519650584E+03  0.00000000000E+00 0. -1.
        -13    1    4    4    0    0 -0.27831805075E+02 -0.35103640841E+02  0.42872935668E+02  0.62007770375E+02  0.00000000000E+00 0.  1.
         13    1    4    4    0    0  0.48746110319E+02  0.13260482834E+02  0.64447080036E+02  0.81886810912E+02  0.00000000000E+00 0. -1.
         21    1    1    2  502  501 -0.24457849170E+02  0.10113151995E+03 -0.45423080734E+02  0.11352985060E+03  0.00000000000E+00 0.  1.
<scales pt_clust_5="13000.00000" pt_clust_6="13000.00000" pt_clust_7="13000.00000" pt_clust_8="13000.00000" pt_clust_9="99.18406"></scales>
<clustering>
<clus scale="   89.992">  5  6 -1 -1</clus>
<clus scale="   90.959">  7  8 -1 -1</clus>
<clus scale="   95.854">  1  7  2 -1</clus>
<clus scale="   99.184">  2  9  1 -1</clus>
<clus scale="   95.854">  1  5  2 -1</clus>
</clustering>
</event>
<event>
 9    1  0.2423659E-006  0.1112968E+03  0.7546771E-02  0.1258342E+00
         -2   -1    0    0    0  501 -0.00000000000E+00  0.00000000000E+00  0.26601920532E+03  0.26601920532E+03  0.00000000000E+00 0.  1.
          2   -1    0    0  502    0  0.00000000000E+00 -0.00000000000E+00 -0.13589154286E+03  0.13589154286E+03  0.00000000000E+00 0. -1.
         23    2    1    2    0    0 -0.64201547162E+01 -0.41993284320E+02  0.88339627295E+02  0.13320757261E+03  0.90198189205E+02 0.  0.
         23    2    1    2    0    0  0.48705821592E+02  0.54552182201E+02 -0.78957450053E+02  0.14015250174E+03  0.89778879398E+02 0.  0.
        -11    1    3    3    0    0 -0.23456848183E+02 -0.66123558668E+02  0.61773029839E+02  0.93479708777E+02  0.00000000000E+00 0.  1.
         11    1    3    3    0    0  0.17036693467E+02  0.24130274349E+02  0.26566597456E+02  0.39727863834E+02  0.00000000000E+00 0. -1.
        -13    1    4    4    0    0  0.51634715610E+02  0.14492639020E+02 -0.84010767598E+02  0.99669401093E+02  0.00000000000E+00 0. -1.
         13    1    4    4    0    0 -0.29288940177E+01  0.40059543180E+02  0.50533175449E+01  0.40483100649E+02  0.00000000000E+00 0.  1.
         21    1    1    2  502  501 -0.42285666876E+02 -0.12558897881E+02  0.12074548522E+03  0.12855067383E+03  0.00000000000E+00 0.  1.
<scales pt_clust_5="13000.00000" pt_clust_6="13000.00000" pt_clust_7="13000.00000" pt_clust_8="13000.00000" pt_clust_9="44.11126"></scales>
<clustering>
<clus scale="   44.111">  1  9  2 -1</clus>
<clus scale="   89.779">  7  8 -1 -1</clus>
<clus scale="   90.198">  5  6 -1 -1</clus>
<clus scale="  110.957">  2  7  1 -1</clus>
<clus scale="  110.957">  2  5  1 -1</clus>
</clustering>
</event>
<event>
 9    1  0.2423659E-006  0.2219537E+03  0.7546771E-02  0.1163207E+00
         -2   -1    0    0    0  501 -0.00000000000E+00  0.00000000000E+00  0.15577473654E+03  0.15577473654E+03  0.00000000000E+00 0.  1.
          2   -1    0    0  502    0  0.00000000000E+00 -0.00000000000E+00 -0.92216062753E+03  0.92216062753E+03  0.00000000000E+00 0. -1.
         23    2    1    2    0    0 -0.39366626204E+02 -0.33631933245E+02  0.60075595957E+02  0.12248236847E+03  0.93338176350E+02 0.  0.
         23    2    1    2    0    0 -0.17065666407E+03 -0.10446315285E+01 -0.14712441598E+03  0.24354632855E+03  0.92436097533E+02 0.  0.
        -13    1    3    3    0    0 -0.11614147283E+02  0.17589146724E+02  0.60665760574E+02  0.64223056651E+02  0.00000000000E+00 0.  1.
         13    1    3    3    0    0 -0.27752478921E+02 -0.51221079969E+02 -0.59016461763E+00  0.58259311820E+02  0.00000000000E+00 0. -1.
        -13    1    4    4    0    0 -0.97951893168E+02 -0.37849823100E+02 -0.11559100489E+03  0.15616805978E+03  0.00000000000E+00 0. -1.
         13    1    4    4    0    0 -0.72704770899E+02  0.36805191572E+02 -0.31533411089E+02  0.87378268769E+02  0.00000000000E+00 0.  1.
         21    1    1    2  502  501  0.21002329027E+03  0.34676564773E+02 -0.67933707096E+03  0.71190666705E+03  0.00000000000E+00 0. -1.
<scales pt_clust_5="13000.00000" pt_clust_6="13000.00000" pt_clust_7="13000.00000" pt_clust_8="13000.00000" pt_clust_9="201.78956"></scales>
<clustering>
<clus scale="   92.436">  7  8 -1 -1</clus>
<clus scale="   93.338">  5  6 -1 -1</clus>
<clus scale="  106.737">  1  5  2 -1</clus>
<clus scale="  201.790">  2  9  1 -1</clus>
<clus scale="  201.790">  2  5  1 -1</clus>
</clustering>
</event>
<event>
 9    1  0.2423659E-006  0.9498297E+02  0.7546771E-02  0.1293027E+00
          1   -1    0    0  502    0  0.00000000000E+00  0.00000000000E+00  0.70905666549E+03  0.70905666549E+03  0.00000000000E+00 0. -1.
         -1   -1    0    0    0  501 -0.00000000000E+00 -0.00000000000E+00 -0.25994528402E+02  0.25994528402E+02  0.00000000000E+00 0.  1.
         23    2    1    2    0    0  0.39798686806E+01  0.47031606058E+01  0.14624059540E+03  0.17331079900E+03  0.92802813704E+02 0.  0.
         23    2    1    2    0    0  0.19056674605E+02 -0.40342638045E+02  0.21514211719E+03  0.23727389921E+03  0.89566106116E+02 0.  0.
        -11    1    4    4    0    0  0.15746271879E+02  0.25817703064E+02  0.40908408238E+02  0.50872357270E+02  0.00000000000E+00 0.  1.
         11    1    4    4    0    0  0.33104027267E+01 -0.66160341109E+02  0.17423370895E+03  0.18640154194E+03  0.00000000000E+00 0. -1.
        -13    1    3    3    0    0  0.44602589722E+02 -0.52690914750E+01  0.44131305493E+02  0.62966073877E+02  0.00000000000E+00 0. -1.
         13    1    3    3    0    0 -0.40622721042E+02  0.99722520808E+01  0.10210928991E+03  0.11034472512E+03  0.00000000000E+00 0.  1.
         21    1    1    2  502  501 -0.23036543286E+02  0.35639477439E+02  0.32167942449E+03  0.32446649568E+03  0.00000000000E+00 0. -1.
<scales pt_clust_5="13000.00000" pt_clust_6="13000.00000" pt_clust_7="13000.00000" pt_clust_8="13000.00000" pt_clust_9="42.43648"></scales>
<clustering>
<clus scale="   42.436">  1  9  2 -1</clus>
<clus scale="   89.566">  5  6 -1 -1</clus>
<clus scale="   91.823">  1  5  2 -1</clus>
<clus scale="   92.803">  7  8 -1 -1</clus>
<clus scale="   42.436">  1  5  2 -1</clus>
</clustering>
</event>
<event>
 9    1  0.2423659E-006  0.1159405E+03  0.7546771E-02  0.1252652E+00
         -1   -1    0    0    0  501 -0.00000000000E+00  0.00000000000E+00  0.32507407042E+03  0.32507407042E+03  0.00000000000E+00 0.  1.
          1   -1    0    0  502    0  0.00000000000E+00 -0.00000000000E+00 -0.20845846748E+03  0.20845846748E+03  0.00000000000E+00 0. -1.
         23    2    1    2    0    0 -0.67189616748E+02  0.32138034096E+02  0.20447966963E+03  0.23861996870E+03  0.97878783906E+02 0.  0.
         23    2    1    2    0    0  0.31700502582E+02 -0.53389199275E+02 -0.17032214539E+03  0.20266060993E+03  0.90588968119E+02 0.  0.
        -11    1    4    4    0    0  0.11204422635E+02  0.19882290358E+02 -0.94450436653E+01  0.24699259226E+02  0.00000000000E+00 0.  1.
         11    1    4    4    0    0  0.20496079947E+02 -0.73271489633E+02 -0.16087710172E+03  0.17796135070E+03  0.00000000000E+00 0. -1.
        -13    1    3    3    0    0 -0.13475468795E+02 -0.27263006073E+02  0.17207086550E+02  0.34942003189E+02  0.00000000000E+00 0. -1.
         13    1    3    3    0    0 -0.53714147953E+02  0.59401040169E+02  0.18727258308E+03  0.20367796551E+03  0.00000000000E+00 0.  1.
         21    1    1    2  502  501  0.35489114165E+02  0.21251165179E+02  0.82458078703E+02  0.92251959270E+02  0.00000000000E+00 0.  1.
<scales pt_clust_5="13000.00000" pt_clust_6="13000.00000" pt_clust_7="13000.00000" pt_clust_8="13000.00000" pt_clust_9="41.36531"></scales>
<clustering>
<clus scale="   41.365">  1  9  2 -1</clus>
<clus scale="   90.589">  5  6 -1 -1</clus>
<clus scale="   97.879">  7  8 -1 -1</clus>
<clus scale="  109.856">  2  5  1 -1</clus>
<clus scale="  109.856">  2  5  1 -1</clus>
</clustering>
</event>
<event>
 9    1  0.2423659E-006  0.1050039E+03  0.7546771E-02  0.1270970E+00
         -1   -1    0    0    0  501 -0.00000000000E+00  0.00000000000E+00  0.18341205720E+03  0.18341205720E+03  0.00000000000E+00 0.  1.
          1   -1    0    0  502    0  0.00000000000E+00 -0.00000000000E+00 -0.35770611449E+03  0.35770611449E+03  0.00000000000E+00 0. -1.
         23    2    1    2    0    0 -0.25602602581E+02 -0.64321568077E+02 -0.10113462612E+03  0.15115330810E+03  0.88466674912E+02 0.  0.
         23    2    1    2    0    0  0.59283734163E+02  0.25054172923E+01 -0.20991242444E+03  0.23615642335E+03  0.90475367380E+02 0.  0.
        -11    1    4    4    0    0 -0.14417381155E+02  0.19351990590E+02 -0.99201870974E+02  0.10209491478E+03  0.00000000000E+00 0.  1.
         11    1    4    4    0    0  0.73701115318E+02 -0.16846573297E+02 -0.11071055346E+03  0.13406150857E+03  0.00000000000E+00 0. -1.
        -13    1    3    3    0    0 -0.35401350582E+02  0.77190445716E+01 -0.52094534685E+02  0.63456125128E+02  0.00000000000E+00 0.  1.
         13    1    3    3    0    0  0.97987480008E+01 -0.72040612649E+02 -0.49040091435E+02  0.87697182971E+02  0.00000000000E+00 0. -1.
         21    1    1    2  502  501 -0.33681131581E+02  0.61816150785E+02  0.13675299327E+03  0.15380844025E+03  0.00000000000E+00 0.  1.
<scales pt_clust_5="13000.00000" pt_clust_6="13000.00000" pt_clust_7="13000.00000" pt_clust_8="13000.00000" pt_clust_9="70.39641"></scales>
<clustering>
<clus scale="   70.396">  1  9  2 -1</clus>
<clus scale="   88.467">  7  8 -1 -1</clus>
<clus scale="   90.475">  5  6 -1 -1</clus>
<clus scale="  103.278">  1  7  2 -1</clus>
<clus scale="  105.004">  2  5  1 -1</clus>
</clustering>
</event>
<event>
 9    1  0.2423659E-006  0.1216949E+03  0.7546771E-02  0.1240346E+00
         -4   -1    0    0    0  501 -0.00000000000E+00  0.00000000000E+00  0.25232029682E+03  0.25232029682E+03  0.00000000000E+00 0.  1.
          4   -1    0    0  502    0  0.00000000000E+00 -0.00000000000E+00 -0.14201148655E+03  0.14201148655E+03  0.00000000000E+00 0. -1.
         23    2    1    2    0    0  0.18089659911E+02  0.93385306313E+02  0.78304286480E+02  0.15351210577E+03  0.91577039183E+02 0.  0.
         23    2    1    2    0    0 -0.46094059280E+02 -0.62315278445E+02 -0.64056401362E+02  0.13604709360E+03  0.91639144980E+02 0.  0.
        -11    1    3    3    0    0  0.52448313379E+02  0.66982287920E+02  0.68156344778E+02  0.10900798046E+03  0.00000000000E+00 0.  1.
         11    1    3    3    0    0 -0.34358653468E+02  0.26403018393E+02  0.10147941702E+02  0.44504125305E+02  0.00000000000E+00 0. -1.
        -13    1    4    4    0    0 -0.27657190651E+02  0.62876731886E+01 -0.58231334459E+02  0.64771470121E+02  0.00000000000E+00 0. -1.
         13    1    4    4    0    0 -0.18436868629E+02 -0.68602951634E+02 -0.58250669030E+01  0.71275623478E+02  0.00000000000E+00 0.  1.
         21    1    1    2  502  501  0.28004399369E+02 -0.31070027867E+02  0.96060925153E+02  0.10477258400E+03  0.00000000000E+00 0. -1.
<scales pt_clust_5="13000.00000" pt_clust_6="13000.00000" pt_clust_7="13000.00000" pt_clust_8="13000.00000" pt_clust_9="41.82814"></scales>
<clustering>
<clus scale="   41.828">  1  9  2 -1</clus>
<clus scale="   91.577">  5  6 -1 -1</clus>
<clus scale="   91.639">  7  8 -1 -1</clus>
<clus scale="  121.648">  1  5  2 -1</clus>
<clus scale="  121.695">  2  5  1 -1</clus>
</clustering>
</event>
<event>
 9    1  0.2423659E-006  0.9591113E+02  0.7546771E-02  0.1289192E+00
         -1   -1    0    0    0  501 -0.00000000000E+00  0.00000000000E+00  0.62373941173E+02  0.62373941173E+02  0.00000000000E+00 0.  1.
          1   -1    0    0  502    0  0.00000000000E+00 -0.00000000000E+00 -0.36764036522E+03  0.36764036522E+03  0.00000000000E+00 0. -1.
         23    2    1    2    0    0  0.17526768042E+02  0.12568870025E+02  0.64564643536E+01  0.95544214835E+02  0.92853901183E+02 0.  0.
         23    2    1    2    0    0 -0.37501666832E+02 -0.92102164574E+01 -0.26813387880E+03  0.28640473091E+03  0.92955310924E+02 0.  0.
        -11    1    3    3    0    0 -0.13059959131E+02 -0.35794162165E+02  0.25609444337E+01  0.38188257540E+02  0.00000000000E+00 0.  1.
         11    1    3    3    0    0  0.30586727173E+02  0.48363032190E+02  0.38955199199E+01  0.57355957295E+02  0.00000000000E+00 0. -1.
        -11    1    4    4    0    0 -0.44462213025E+02  0.11701110408E+02 -0.25814526278E+03  0.26220751528E+03  0.00000000000E+00 0.  1.
         11    1    4    4    0    0  0.69605461923E+01 -0.20911326865E+02 -0.99886160126E+01  0.24197215633E+02  0.00000000000E+00 0. -1.
         21    1    1    2  502  501  0.19974898790E+02 -0.33586535681E+01 -0.43589009602E+02  0.48065360641E+02  0.00000000000E+00 0.  1.
<scales pt_clust_5="13000.00000" pt_clust_6="13000.00000" pt_clust_7="13000.00000" pt_clust_8="13000.00000" pt_clust_9="20.25530"></scales>
<clustering>
<clus scale="   20.255">  2  9  1 -1</clus>
<clus scale="   92.854">  5  6 -1 -1</clus>
<clus scale="   92.955">  7  8 -1 -1</clus>
<clus scale="   95.813">  1  5  2 -1</clus>
<clus scale="   20.255">  2  5  1 -1</clus>
</clustering>
</event>
<event>
 9    1  0.2423659E-006  0.9514652E+02  0.7546771E-02  0.1294009E+00
         -1   -1    0    0    0  501 -0.00000000000E+00  0.00000000000E+00  0.74671478022E+02  0.74671478022E+02  0.00000000000E+00 0.  1.
          1   -1    0    0  502    0  0.00000000000E+00 -0.00000000000E+00 -0.18544879075E+03  0.18544879075E+03  0.00000000000E+00 0. -1.
         23    2    1    2    0    0  0.11191013172E+02 -0.20883740236E+02 -0.49547788204E+01  0.89309524785E+02  0.85966691237E+02 0.  0.
         23    2    1    2    0    0 -0.39152492467E+02  0.40676723297E+01 -0.67262387417E+02  0.12029827660E+03  0.91640509421E+02 0.  0.
        -13    1    4    4    0    0  0.28780570505E+02 -0.57962423500E+01 -0.30875261035E+02  0.42605157058E+02  0.00000000000E+00 0.  1.
         13    1    4    4    0    0 -0.67933062972E+02  0.98639146798E+01 -0.36387126382E+02  0.77693119540E+02  0.00000000000E+00 0. -1.
        -13    1    3    3    0    0  0.48871410443E+02 -0.10436316676E+02 -0.71514881383E+00  0.49978424367E+02  0.00000000000E+00 0.  1.
         13    1    3    3    0    0 -0.37680397271E+02 -0.10447423560E+02 -0.42396300066E+01  0.39331100418E+02  0.00000000000E+00 0. -1.
         21    1    1    2  502  501  0.27961479295E+02  0.16816067906E+02 -0.38560146493E+02  0.50512467389E+02  0.00000000000E+00 0. -1.
<scales pt_clust_5="13000.00000" pt_clust_6="13000.00000" pt_clust_7="13000.00000" pt_clust_8="13000.00000" pt_clust_9="32.62858"></scales>
<clustering>
<clus scale="   32.629">  2  9  1 -1</clus>
<clus scale="   85.967">  7  8 -1 -1</clus>
<clus scale="   89.695">  1  7  2 -1</clus>
<clus scale="   91.641">  5  6 -1 -1</clus>
<clus scale="   32.629">  2  5  1 -1</clus>
</clustering>
</event>
<event>
 9    1  0.2423659E-006  0.1250228E+03  0.7546771E-02  0.1235531E+00
          3   -1    0    0  502    0  0.00000000000E+00  0.00000000000E+00  0.32813308596E+03  0.32813308596E+03  0.00000000000E+00 0. -1.
         -3   -1    0    0    0  501 -0.00000000000E+00 -0.00000000000E+00 -0.96707040311E+02  0.96707040311E+02  0.00000000000E+00 0.  1.
         23    2    1    2    0    0  0.34377916221E+02 -0.84362873505E+02  0.54363708803E+02  0.14029837352E+03  0.91811138915E+02 0.  0.
         23    2    1    2    0    0 -0.51516766314E+02  0.65595358516E+02  0.20981095863E+03  0.24308777791E+03  0.90079415730E+02 0.  0.
        -13    1    4    4    0    0 -0.22083938102E+02  0.84788399888E+02  0.15108777953E+03  0.17465477434E+03  0.00000000000E+00 0. -1.
         13    1    4    4    0    0 -0.29432828212E+02 -0.19193041372E+02  0.58723179102E+02  0.68433003570E+02  0.00000000000E+00 0.  1.
        -13    1    3    3    0    0  0.36569987573E+02 -0.30815933224E+02  0.69724388265E+02  0.84548660844E+02  0.00000000000E+00 0. -1.
         13    1    3    3    0    0 -0.21920713516E+01 -0.53546940281E+02 -0.15360679463E+02  0.55749712680E+02  0.00000000000E+00 0.  1.
         21    1    1    2  502  501  0.17138850093E+02  0.18767514989E+02 -0.32748621782E+02  0.41453974839E+02  0.00000000000E+00 0.  1.
<scales pt_clust_5="13000.00000" pt_clust_6="13000.00000" pt_clust_7="13000.00000" pt_clust_8="13000.00000" pt_clust_9="25.41574"></scales>
<clustering>
<clus scale="   25.416">  2  9  1 -1</clus>
<clus scale="   90.079">  5  6 -1 -1</clus>
<clus scale="   91.811">  7  8 -1 -1</clus>
<clus scale="  123.757">  1  5  2 -1</clus>
<clus scale="  123.757">  1  5  2 -1</clus>
</clustering>
</event>
<event>
 9    1  0.2423659E-006  0.9523946E+02  0.7546771E-02  0.1292387E+00
         -1   -1    0    0    0  501 -0.00000000000E+00  0.00000000000E+00  0.76059523320E+03  0.76059523320E+03  0.00000000000E+00 0.  1.
          1   -1    0    0  502    0  0.00000000000E+00 -0.00000000000E+00 -0.18021217530E+02  0.18021217530E+02  0.00000000000E+00 0. -1.
         23    2    1    2    0    0 -0.84545276784E+01  0.59837139374E+01  0.27315522268E+03  0.28823613870E+03  0.91427633153E+02 0.  0.
         23    2    1    2    0    0  0.13483998510E+01  0.26181945564E+02  0.25086382894E+03  0.26935678610E+03  0.94515105103E+02 0.  0.
        -11    1    4    4    0    0  0.47517974776E+02  0.15391945606E+02  0.11235095701E+03  0.12295368013E+03  0.00000000000E+00 0. -1.
         11    1    4    4    0    0 -0.46169574925E+02  0.10789999958E+02  0.13851287193E+03  0.14640310598E+03  0.00000000000E+00 0.  1.
        -13    1    3    3    0    0 -0.35730351335E+02 -0.29689890043E+02  0.15596303821E+03  0.16273480533E+03  0.00000000000E+00 0.  1.
         13    1    3    3    0    0  0.27275823657E+02  0.35673603980E+02  0.11719218447E+03  0.12550133337E+03  0.00000000000E+00 0. -1.
         21    1    1    2  502  501  0.71061278273E+01 -0.32165659502E+02  0.21855496405E+03  0.22102352593E+03  0.00000000000E+00 0.  1.
<scales pt_clust_5="13000.00000" pt_clust_6="13000.00000" pt_clust_7="13000.00000" pt_clust_8="13000.00000" pt_clust_9="32.94126"></scales>
<clustering>
<clus scale="   32.941">  1  9  2 -1</clus>
<clus scale="   91.428">  7  8 -1 -1</clus>
<clus scale="   92.176">  1  7  2 -1</clus>
<clus scale="   94.515">  5  6 -1 -1</clus>
<clus scale="   95.239">  2  5  1 -1</clus>
</clustering>
</event>
<event>
 9    1  0.2423659E-006  0.9538750E+02  0.7546771E-02  0.1294488E+00
          2   -1    0    0  502    0  0.00000000000E+00  0.00000000000E+00  0.28681083790E+03  0.28681083790E+03  0.00000000000E+00 0. -1.
         -2   -1    0    0    0  501 -0.00000000000E+00 -0.00000000000E+00 -0.13761379769E+03  0.13761379769E+03  0.00000000000E+00 0.  1.
         23    2    1    2    0    0  0.24682725531E+02 -0.47501824264E+00 -0.79500958527E+02  0.12517938637E+03  0.93488040854E+02 0.  0.
         23    2    1    2    0    0  0.23312234899E+02 -0.57539950073E+02  0.81373553084E+02  0.13379512060E+03  0.86169443568E+02 0.  0.
        -11    1    3    3    0    0  0.51828885109E+02  0.18850279860E+02 -0.72562831889E+02  0.91142366406E+02  0.00000000000E+00 0.  1.
         11    1    3    3    0    0 -0.27146159578E+02 -0.19325298103E+02 -0.69381266382E+01  0.34037019961E+02  0.00000000000E+00 0. -1.
        -11    1    4    4    0    0  0.24236587153E+02  0.16313339251E+02  0.38716951728E+02  0.48502984913E+02  0.00000000000E+00 0.  1.
         11    1    4    4    0    0 -0.92435225433E+00 -0.73853289324E+02  0.42656601356E+02  0.85292135689E+02  0.00000000000E+00 0. -1.
         21    1    1    2  502  501 -0.47994960430E+02  0.58014968316E+02  0.14732444565E+03  0.16545012862E+03  0.00000000000E+00 0. -1.
<scales pt_clust_5="13000.00000" pt_clust_6="13000.00000" pt_clust_7="13000.00000" pt_clust_8="13000.00000" pt_clust_9="75.29444"></scales>
<clustering>
<clus scale="   75.294">  1  9  2 -1</clus>
<clus scale="   86.169">  7  8 -1 -1</clus>
<clus scale="   88.227">  1  7  2 -1</clus>
<clus scale="   93.488">  5  6 -1 -1</clus>
<clus scale="   75.294">  1  5  2 -1</clus>
</clustering>
</event>
<event>
 9    1  0.2423659E-006  0.1080528E+03  0.7546771E-02  0.1264400E+00
          2   -1    0    0  502    0  0.00000000000E+00  0.00000000000E+00  0.29641476418E+03  0.29641476418E+03  0.00000000000E+00 0. -1.
         -2   -1    0    0    0  501 -0.00000000000E+00 -0.00000000000E+00 -0.14637332328E+03  0.14637332328E+03  0.00000000000E+00 0.  1.
         23    2    1    2    0    0 -0.26059205762E+02 -0.15622086636E+01 -0.24195261190E+02  0.99943165067E+02  0.93390057708E+02 0.  0.
         23    2    1    2    0    0  0.93504332084E+02  0.17643511618E+02 -0.21351550213E+02  0.13533054264E+03  0.93830237417E+02 0.  0.
        -11    1    3    3    0    0 -0.17626943550E+02 -0.44231275023E+02 -0.29675774806E+02  0.56104959134E+02  0.00000000000E+00 0.  1.
         11    1    3    3    0    0 -0.84322622118E+01  0.42669066359E+02  0.54805136156E+01  0.43838205934E+02  0.00000000000E+00 0. -1.
        -13    1    4    4    0    0  0.10790540066E+03 -0.23597290102E+01 -0.10635655694E+02  0.10845395790E+03  0.00000000000E+00 0.  1.
         13    1    4    4    0    0 -0.14401068576E+02  0.20003240628E+02 -0.10715894519E+02  0.26876584737E+02  0.00000000000E+00 0. -1.
         21    1    1    2  502  501 -0.67445126322E+02 -0.16081302954E+02  0.19558825230E+03  0.20751437976E+03  0.00000000000E+00 0.  1.
<scales pt_clust_5="13000.00000" pt_clust_6="13000.00000" pt_clust_7="13000.00000" pt_clust_8="13000.00000" pt_clust_9="69.33580"></scales>
<clustering>
<clus scale="   69.336">  1  9  2 -1</clus>
<clus scale="   93.390">  5  6 -1 -1</clus>
<clus scale="   93.830">  7  8 -1 -1</clus>
<clus scale="  107.671">  2  5  1 -1</clus>
<clus scale="   69.336">  1  5  2 -1</clus>
</clustering>
</event>
<event>
 9    1  0.2423659E-006  0.1411796E+03  0.7546771E-02  0.1220143E+00
          3   -1    0    0  502    0  0.00000000000E+00  0.00000000000E+00  0.73410184124E+02  0.73410184124E+02  0.00000000000E+00 0. -1.
         -3   -1    0    0    0  501 -0.00000000000E+00 -0.00000000000E+00 -0.99280174132E+03  0.99280174132E+03  0.00000000000E+00 0.  1.
         23    2    1    2    0    0  0.28885512348E+02 -0.92742571173E+02 -0.33912457290E+03  0.36316641117E+03  0.86306482525E+02 0.  0.
         23    2    1    2    0    0 -0.57234771288E+01 -0.24396184853E+02 -0.80493054660E+01  0.11850206849E+03  0.11554227319E+03 0.  0.
        -11    1    4    4    0    0  0.34129251074E+02  0.85532084966E+01 -0.43394807520E+02  0.55866559534E+02  0.00000000000E+00 0.  1.
         11    1    4    4    0    0 -0.39852728203E+02 -0.32949393350E+02  0.35345502054E+02  0.62635508961E+02  0.00000000000E+00 0. -1.
        -13    1    3    3    0    0 -0.25316897638E+02 -0.37938616661E+02 -0.72763857678E+02  0.85877022097E+02  0.00000000000E+00 0. -1.
         13    1    3    3    0    0  0.54202409986E+02 -0.54803954512E+02 -0.26636071522E+03  0.27728938907E+03  0.00000000000E+00 0.  1.
         21    1    1    2  502  501 -0.23162035219E+02  0.11713875603E+03 -0.57221767884E+03  0.58454344579E+03  0.00000000000E+00 0.  1.
<scales pt_clust_5="13000.00000" pt_clust_6="13000.00000" pt_clust_7="13000.00000" pt_clust_8="13000.00000" pt_clust_9="111.72671"></scales>
<clustering>
<clus scale="   86.306">  7  8 -1 -1</clus>
<clus scale="  115.542">  5  6 -1 -1</clus>
<clus scale="  118.228">  1  5  2 -1</clus>
<clus scale="  111.727">  2  9  1 -1</clus>
<clus scale="  118.228">  1  5  2 -1</clus>
</clustering>
</event>
<event>
 9    1  0.2423659E-006  0.1491942E+03  0.7546771E-02  0.1203415E+00
         -1   -1    0    0    0  501 -0.00000000000E+00  0.00000000000E+00  0.88011273479E+03  0.88011273479E+03  0.00000000000E+00 0.  1.
          1   -1    0    0  502    0  0.00000000000E+00 -0.00000000000E+00 -0.32410794671E+02  0.32410794671E+02  0.00000000000E+00 0. -1.
         23    2    1    2    0    0 -0.12625390349E+03  0.17191603796E+02  0.42236113702E+03  0.44982637114E+03  0.87859175523E+02 0.  0.
         23    2    1    2    0    0  0.10360087958E+03  0.28924007810E+01  0.27847124269E+03  0.31273984937E+03  0.97562657541E+02 0.  0.
        -11    1    3    3    0    0 -0.99541129410E+02  0.29696722842E+02  0.39871152975E+03  0.41202089237E+03  0.00000000000E+00 0.  1.
         11    1    3    3    0    0 -0.26712774079E+02 -0.12505119046E+02  0.23649607268E+02  0.37805478773E+02  0.00000000000E+00 0. -1.
        -13    1    4    4    0    0  0.44238104032E+02 -0.41238915121E+02  0.75664745560E+02  0.96864914645E+02  0.00000000000E+00 0.  1.
         13    1    4    4    0    0  0.59362775552E+02  0.44131315902E+02  0.20280649713E+03  0.21587493473E+03  0.00000000000E+00 0. -1.
         21    1    1    2  502  501  0.22653023905E+02 -0.20084004577E+02  0.14686956041E+03  0.14995730895E+03  0.00000000000E+00 0. -1.
<scales pt_clust_5="13000.00000" pt_clust_6="13000.00000" pt_clust_7="13000.00000" pt_clust_8="13000.00000" pt_clust_9="30.27419"></scales>
<clustering>
<clus scale="   30.274">  1  9  2 -1</clus>
<clus scale="   87.859">  5  6 -1 -1</clus>
<clus scale="   97.563">  7  8 -1 -1</clus>
<clus scale="  143.037">  1  5  2 -1</clus>
<clus scale="  149.194">  2  5  1 -1</clus>
</clustering>
</event>
<event>
 9    1  0.2423659E-006  0.1039061E+03  0.7546771E-02  0.1272584E+00
         -1   -1    0    0    0  501 -0.00000000000E+00  0.00000000000E+00  0.27492004997E+02  0.27492004997E+02  0.00000000000E+00 0.  1.
          1   -1    0    0  502    0  0.00000000000E+00 -0.00000000000E+00 -0.63316736326E+03  0.63316736326E+03  0.00000000000E+00 0. -1.
         23    2    1    2    0    0  0.18945678803E+02 -0.51885536015E+01 -0.16685614678E+03  0.19154440435E+03  0.91991441385E+02 0.  0.
         23    2    1    2    0    0 -0.63362635720E+02  0.22802999525E+02 -0.34991152969E+03  0.36818077421E+03  0.92650976761E+02 0.  0.
        -11    1    4    4    0    0 -0.76119896942E+02 -0.16046346605E+01 -0.31300047374E+03  0.32212747496E+03  0.00000000000E+00 0.  1.
         11    1    4    4    0    0  0.12757261222E+02  0.24407634186E+02 -0.36911055953E+02  0.46053299252E+02  0.00000000000E+00 0. -1.
        -11    1    3    3    0    0 -0.47827729972E+01  0.41081030812E+02 -0.85711874468E+02  0.95168542255E+02  0.00000000000E+00 0.  1.
         11    1    3    3    0    0  0.23728451800E+02 -0.46269584414E+02 -0.81144272311E+02  0.96375862100E+02  0.00000000000E+00 0. -1.
         21    1    1    2  502  501  0.44416956917E+02 -0.17614445924E+02 -0.88907681796E+02  0.10093418969E+03  0.00000000000E+00 0. -1.
<scales pt_clust_5="13000.00000" pt_clust_6="13000.00000" pt_clust_7="13000.00000" pt_clust_8="13000.00000" pt_clust_9="47.78216"></scales>
<clustering>
<clus scale="   47.782">  1  9  2 -1</clus>
<clus scale="   91.991">  7  8 -1 -1</clus>
<clus scale="   92.651">  5  6 -1 -1</clus>
<clus scale="  103.318">  1  7  2 -1</clus>
<clus scale="  103.906">  2  5  1 -1</clus>
</clustering>
</event>
<event>
 9    1  0.2423659E-006  0.1872056E+03  0.7546771E-02  0.1161287E+00
         -2   -1    0    0    0  501 -0.00000000000E+00  0.00000000000E+00  0.15336142859E+03  0.15336142859E+03  0.00000000000E+00 0.  1.
          2   -1    0    0  502    0  0.00000000000E+00 -0.00000000000E+00 -0.32867554863E+03  0.32867554863E+03  0.00000000000E+00 0. -1.
         23    2    1    2    0    0  0.14441992078E+03 -0.14205517533E+02 -0.45258013582E+02  0.18043436004E+03  0.97207819855E+02 0.  0.
         23    2    1    2    0    0 -0.17233929342E+03  0.70724306613E+02 -0.10217550387E+03  0.23267371985E+03  0.94839162346E+02 0.  0.
        -11    1    3    3    0    0  0.98909366694E+02 -0.54957223248E+02 -0.23354783052E+02  0.11553702912E+03  0.00000000000E+00 0.  1.
         11    1    3    3    0    0  0.45510554089E+02  0.40751705715E+02 -0.21903230530E+02  0.64897330914E+02  0.00000000000E+00 0. -1.
        -11    1    4    4    0    0 -0.12082251997E+03  0.79210722164E+02 -0.10766026873E+03  0.18017534044E+03  0.00000000000E+00 0. -1.
         11    1    4    4    0    0 -0.51516773449E+02 -0.84864155510E+01  0.54847648585E+01  0.52498379413E+02  0.00000000000E+00 0.  1.
         21    1    1    2  502  501  0.27919372637E+02 -0.56518789080E+02 -0.27880602579E+02  0.68928897334E+02  0.00000000000E+00 0.  1.
<scales pt_clust_5="13000.00000" pt_clust_6="13000.00000" pt_clust_7="13000.00000" pt_clust_8="13000.00000" pt_clust_9="63.03860"></scales>
<clustering>
<clus scale="   63.039">  2  9  1 -1</clus>
<clus scale="   94.839">  7  8 -1 -1</clus>
<clus scale="   97.208">  5  6 -1 -1</clus>
<clus scale="  185.987">  2  7  1 -1</clus>
<clus scale="   63.039">  2  5  1 -1</clus>
</clustering>
</event>
<event>
 9    1  0.2423659E-006  0.1013088E+03  0.7546771E-02  0.1277585E+00
          1   -1    0    0  502    0  0.00000000000E+00  0.00000000000E+00  0.78959909178E+03  0.78959909178E+03  0.00000000000E+00 0. -1.
         -1   -1    0    0    0  501 -0.00000000000E+00 -0.00000000000E+00 -0.94341338389E+02  0.94341338389E+02  0.00000000000E+00 0.  1.
         23    2    1    2    0    0  0.29767466988E+02  0.35390590884E+02 -0.53361416212E+02  0.11447812968E+03  0.90106633613E+02 0.  0.
         23    2    1    2    0    0 -0.70303762988E+02  0.65766111290E+00  0.37791837459E+03  0.39481346866E+03  0.90068449395E+02 0.  0.
        -11    1    4    4    0    0 -0.83313394155E+02  0.18243044594E+02  0.34429146876E+03  0.35469782320E+03  0.00000000000E+00 0.  1.
         11    1    4    4    0    0  0.13009631167E+02 -0.17585383481E+02  0.33626905833E+02  0.40115645466E+02  0.00000000000E+00 0. -1.
        -13    1    3    3    0    0 -0.12131358110E+01  0.47680340571E+02 -0.63704347101E+02  0.79580967668E+02  0.00000000000E+00 0.  1.
         13    1    3    3    0    0  0.30980602799E+02 -0.12289749687E+02  0.10342930889E+02  0.34897162013E+02  0.00000000000E+00 0. -1.
         21    1    1    2  502  501  0.40536296000E+02 -0.36048251997E+02  0.37070079501E+03  0.37464883182E+03  0.00000000000E+00 0. -1.
<scales pt_clust_5="13000.00000" pt_clust_6="13000.00000" pt_clust_7="13000.00000" pt_clust_8="13000.00000" pt_clust_9="54.24636"></scales>
<clustering>
<clus scale="   54.246">  1  9  2 -1</clus>
<clus scale="   90.068">  5  6 -1 -1</clus>
<clus scale="   90.107">  7  8 -1 -1</clus>
<clus scale="  101.275">  1  5  2 -1</clus>
<clus scale="   54.246">  1  5  2 -1</clus>
</clustering>
</event>
<event>
 9    1  0.2423659E-006  0.3013602E+03  0.7546771E-02  0.1084785E+00
          2   -1    0    0  502    0  0.00000000000E+00  0.00000000000E+00  0.27405031039E+04  0.27405031039E+04  0.00000000000E+00 0. -1.
         -2   -1    0    0    0  501 -0.00000000000E+00 -0.00000000000E+00 -0.22464528383E+03  0.22464528383E+03  0.00000000000E+00 0.  1.
         23    2    1    2    0    0 -0.15520888459E+03  0.23822572696E+03 -0.76846426918E+02  0.31065437288E+03  0.98790036046E+02 0.  0.
         23    2    1    2    0    0 -0.48967032506E+01 -0.34640369098E+03  0.19734336312E+04  0.20057780780E+04  0.93198211255E+02 0.  0.
        -11    1    3    3    0    0 -0.29695547480E+02  0.44175268834E+02  0.24143075070E+02  0.58447993896E+02  0.00000000000E+00 0. -1.
         11    1    3    3    0    0 -0.12551333711E+03  0.19405045812E+03 -0.10098950199E+03  0.25220637899E+03  0.00000000000E+00 0.  1.
        -13    1    4    4    0    0  0.11050656613E+02 -0.32056107814E+03  0.18892525304E+04  0.19162872033E+04  0.00000000000E+00 0. -1.
         13    1    4    4    0    0 -0.15947359864E+02 -0.25842612837E+02  0.84181100770E+02  0.89490874684E+02  0.00000000000E+00 0.  1.
         21    1    1    2  502  501  0.16010558784E+03  0.10817796402E+03  0.61927061584E+03  0.64871593691E+03  0.00000000000E+00 0.  1.
<scales pt_clust_5="13000.00000" pt_clust_6="13000.00000" pt_clust_7="13000.00000" pt_clust_8="13000.00000" pt_clust_9="193.22596"></scales>
<clustering>
<clus scale="   93.198">  7  8 -1 -1</clus>
<clus scale="   98.790">  5  6 -1 -1</clus>
<clus scale="  193.226">  1  9  2 -1</clus>
<clus scale="  299.574">  1  7  2 -1</clus>
<clus scale="  193.226">  1  5  2 -1</clus>
</clustering>
</event>
<event>
 9    1  0.2423659E-006  0.1618140E+03  0.7546771E-02  0.1204071E+00
          1   -1    0    0  502    0  0.00000000000E+00  0.00000000000E+00  0.68356512122E+02  0.68356512122E+02  0.00000000000E+00 0. -1.
         -1   -1    0    0    0  501 -0.00000000000E+00 -0.00000000000E+00 -0.86570947123E+03  0.86570947123E+03  0.00000000000E+00 0.  1.
         23    2    1    2    0    0  0.84176867988E+02 -0.62616144590E+02 -0.50846262372E+03  0.53071636773E+03  0.11008676847E+03 0.  0.
         23    2    1    2    0    0 -0.11649729589E+01 -0.63240264798E+02 -0.51069659896E+02  0.12176573080E+03  0.90653708038E+02 0.  0.
        -11    1    4    4    0    0 -0.39216257958E+02 -0.60438301061E+02 -0.37866898547E+02  0.81391677271E+02  0.00000000000E+00 0. -1.
         11    1    4    4    0    0  0.38051285000E+02 -0.28019637364E+01 -0.13202761349E+02  0.40374053526E+02  0.00000000000E+00 0.  1.
        -13    1    3    3    0    0  0.13173872483E+01  0.27868371947E+02 -0.12618412771E+03  0.12923163603E+03  0.00000000000E+00 0. -1.
         13    1    3    3    0    0  0.82859480740E+02 -0.90484516536E+02 -0.38227849600E+03  0.40148473170E+03  0.00000000000E+00 0.  1.
         21    1    1    2  502  501 -0.83011895029E+02  0.12585640939E+03 -0.23782067550E+03  0.28158388483E+03  0.00000000000E+00 0. -1.
<scales pt_clust_5="13000.00000" pt_clust_6="13000.00000" pt_clust_7="13000.00000" pt_clust_8="13000.00000" pt_clust_9="118.59462"></scales>
<clustering>
<clus scale="   90.654">  5  6 -1 -1</clus>
<clus scale="  110.087">  7  8 -1 -1</clus>
<clus scale="  110.539">  1  5  2 -1</clus>
<clus scale="  118.595">  1  9  2 -1</clus>
<clus scale="  110.539">  1  5  2 -1</clus>
</clustering>
</event>
<event>
 9    1  0.2423659E-006  0.1858829E+03  0.7546771E-02  0.1194442E+00
         -1   -1    0    0    0  501 -0.00000000000E+00  0.00000000000E+00  0.50440934102E+03  0.50440934102E+03  0.00000000000E+00 0.  1.
          1   -1    0    0  502    0  0.00000000000E+00 -0.00000000000E+00 -0.32699727471E+03  0.32699727471E+03  0.00000000000E+00 0. -1.
         23    2    1    2    0    0 -0.71553374812E+01 -0.73873883761E+01  0.29479801560E+03  0.30820243126E+03  0.89314591591E+02 0.  0.
         23    2    1    2    0    0 -0.15103198853E+03 -0.32175972641E+02  0.13381059997E+03  0.22372430868E+03  0.91111661451E+02 0.  0.
        -11    1    3    3    0    0 -0.85054500223E+01 -0.43802299546E+02  0.93116350971E+02  0.10325521267E+03  0.00000000000E+00 0. -1.
         11    1    3    3    0    0  0.13501125411E+01  0.36414911170E+02  0.20168166463E+03  0.20494721859E+03  0.00000000000E+00 0.  1.
        -11    1    4    4    0    0 -0.45299658181E+02  0.30184750117E+02  0.25895766934E+02  0.60280750792E+02  0.00000000000E+00 0. -1.
         11    1    4    4    0    0 -0.10573233035E+03 -0.62360722758E+02  0.10791483304E+03  0.16344355788E+03  0.00000000000E+00 0.  1.
         21    1    1    2  502  501  0.15818732601E+03  0.39563361017E+02 -0.25119654926E+03  0.29947987579E+03  0.00000000000E+00 0. -1.
<scales pt_clust_5="13000.00000" pt_clust_6="13000.00000" pt_clust_7="13000.00000" pt_clust_8="13000.00000" pt_clust_9="162.02192"></scales>
<clustering>
<clus scale="   89.315">  5  6 -1 -1</clus>
<clus scale="   89.905">  1  5  2 -1</clus>
<clus scale="   91.112">  7  8 -1 -1</clus>
<clus scale="  162.022">  2  9  1 -1</clus>
<clus scale="  162.022">  2  5  1 -1</clus>
</clustering>
</event>
<event>
 9    1  0.2423659E-006  0.1271217E+03  0.7546771E-02  0.1231797E+00
          1   -1    0    0  502    0  0.00000000000E+00  0.00000000000E+00  0.46783832621E+03  0.46783832621E+03  0.00000000000E+00 0. -1.
         -1   -1    0    0    0  501 -0.00000000000E+00 -0.00000000000E+00 -0.75367506729E+02  0.75367506729E+02  0.00000000000E+00 0.  1.
         23    2    1    2    0    0 -0.10335820367E+02 -0.55382145292E+02  0.49923836514E+01  0.10730293419E+03  0.91186537338E+02 0.  0.
         23    2    1    2    0    0  0.56745294912E+02  0.79488985792E+02  0.33980419078E+03  0.36513699786E+03  0.91211905932E+02 0.  0.
        -11    1    3    3    0    0 -0.42712325570E+02 -0.20193441267E+01 -0.81193457547E+01  0.43524065548E+02  0.00000000000E+00 0.  1.
         11    1    3    3    0    0  0.32376505204E+02 -0.53362801166E+02  0.13111729406E+02  0.63778868644E+02  0.00000000000E+00 0. -1.
        -13    1    4    4    0    0 -0.17592825755E+01  0.57525141224E+02  0.84097713426E+02  0.10190516352E+03  0.00000000000E+00 0.  1.
         13    1    4    4    0    0  0.58504577487E+02  0.21963844568E+02  0.25570647735E+03  0.26323183435E+03  0.00000000000E+00 0. -1.
         21    1    1    2  502  501 -0.46409474545E+02 -0.24106840499E+02  0.47674245057E+02  0.70765900886E+02  0.00000000000E+00 0.  1.
<scales pt_clust_5="13000.00000" pt_clust_6="13000.00000" pt_clust_7="13000.00000" pt_clust_8="13000.00000" pt_clust_9="52.29703"></scales>
<clustering>
<clus scale="   52.297">  2  9  1 -1</clus>
<clus scale="   91.187">  5  6 -1 -1</clus>
<clus scale="   91.212">  7  8 -1 -1</clus>
<clus scale="  127.104">  2  5  1 -1</clus>
<clus scale="  127.122">  1  5  2 -1</clus>
</clustering>
</event>
<event>
 9    1  0.2423659E-006  0.1486750E+03  0.7546771E-02  0.1203826E+00
          4   -1    0    0  502    0  0.00000000000E+00  0.00000000000E+00  0.26681119014E+03  0.26681119014E+03  0.00000000000E+00 0. -1.
         -4   -1    0    0    0  501 -0.00000000000E+00 -0.00000000000E+00 -0.35194930044E+03  0.35194930044E+03  0.00000000000E+00 0.  1.
         23    2    1    2    0    0 -0.54210720716E+02  0.11510402429E+03 -0.38815069358E+02  0.16045763054E+03  0.89734625088E+02 0.  0.
         23    2    1    2    0    0  0.64124341318E+02 -0.87032231704E+02  0.17901430419E+03  0.23100740359E+03  0.98141524867E+02 0.  0.
        -11    1    3    3    0    0  0.23562062358E+02  0.45316170506E+02 -0.97632059778E+01  0.52000445026E+02  0.00000000000E+00 0. -1.
         11    1    3    3    0    0 -0.77772783075E+02  0.69787853786E+02 -0.29051863380E+02  0.10845718551E+03  0.00000000000E+00 0.  1.
        -13    1    4    4    0    0  0.15225574864E+02  0.21328725013E+02  0.43050091593E+02  0.50398839538E+02  0.00000000000E+00 0.  1.
         13    1    4    4    0    0  0.48898766454E+02 -0.10836095672E+03  0.13596421260E+03  0.18060856405E+03  0.00000000000E+00 0. -1.
         21    1    1    2  502  501 -0.99136206018E+01 -0.28071792588E+02 -0.22533734513E+03  0.22729545645E+03  0.00000000000E+00 0.  1.
<scales pt_clust_5="13000.00000" pt_clust_6="13000.00000" pt_clust_7="13000.00000" pt_clust_8="13000.00000" pt_clust_9="29.77088"></scales>
<clustering>
<clus scale="   29.771">  2  9  1 -1</clus>
<clus scale="   89.735">  5  6 -1 -1</clus>
<clus scale="   98.142">  7  8 -1 -1</clus>
<clus scale="  143.265">  2  5  1 -1</clus>
<clus scale="  148.675">  1  5  2 -1</clus>
</clustering>
</event>
<event>
 9    1  0.2423659E-006  0.1957230E+03  0.7546771E-02  0.1172166E+00
          1   -1    0    0  502    0  0.00000000000E+00  0.00000000000E+00  0.14513328308E+04  0.14513328308E+04  0.00000000000E+00 0. -1.
         -1   -1    0    0    0  501 -0.00000000000E+00 -0.00000000000E+00 -0.65163327560E+02  0.65163327560E+02  0.00000000000E+00 0.  1.
         23    2    1    2    0    0  0.89901932930E+02  0.43771999506E+02  0.12278399074E+03  0.17644370157E+03  0.77833964033E+02 0.  0.
         23    2    1    2    0    0  0.10268080935E+03 -0.34624649382E+02  0.13552213233E+03  0.19582888119E+03  0.90777130383E+02 0.  0.
        -13    1    3    3    0    0  0.61739584429E+02  0.56088700600E+02  0.11921552784E+03  0.14549934948E+03  0.00000000000E+00 0. -1.
         13    1    3    3    0    0  0.28162348501E+02 -0.12316701094E+02  0.35684628979E+01  0.30944352092E+02  0.00000000000E+00 0.  1.
        -13    1    4    4    0    0  0.71825504787E+02  0.22510195964E+02  0.85137151503E+02  0.11363954693E+03  0.00000000000E+00 0. -1.
         13    1    4    4    0    0  0.30855304567E+02 -0.57134845345E+02  0.50384980831E+02  0.82189334259E+02  0.00000000000E+00 0.  1.
         21    1    1    2  502  501 -0.19258274228E+03 -0.91473501240E+01  0.11278633801E+04  0.11442235755E+04  0.00000000000E+00 0. -1.
<scales pt_clust_5="13000.00000" pt_clust_6="13000.00000" pt_clust_7="13000.00000" pt_clust_8="13000.00000" pt_clust_9="173.39840"></scales>
<clustering>
<clus scale="   77.834">  5  6 -1 -1</clus>
<clus scale="   90.777">  7  8 -1 -1</clus>
<clus scale="  126.714">  2  5  1 -1</clus>
<clus scale="  173.398">  1  9  2 -1</clus>
<clus scale="  173.398">  1  5  2 -1</clus>
</clustering>
</event>
<event>
 9    1  0.2423659E-006  0.1776041E+03  0.7546771E-02  0.1193879E+00
         -1   -1    0    0    0  501 -0.00000000000E+00  0.00000000000E+00  0.18202135563E+03  0.18202135563E+03  0.00000000000E+00 0.  1.
          1   -1    0    0  502    0  0.00000000000E+00 -0.00000000000E+00 -0.56419518788E+03  0.56419518788E+03  0.00000000000E+00 0. -1.
         23    2    1    2    0    0  0.46714083259E+02 -0.20956662124E+02  0.19341533931E+02  0.10612916679E+03  0.90928091622E+02 0.  0.
         23    2    1    2    0    0  0.80375512170E+02 -0.86458860248E+02  0.57483473542E+02  0.15185608462E+03  0.76292615861E+02 0.  0.
        -11    1    3    3    0    0 -0.17015935432E+02 -0.33551239778E+02  0.16571081833E+02  0.41107523671E+02  0.00000000000E+00 0.  1.
         11    1    3    3    0    0  0.63730018690E+02  0.12594577655E+02  0.27704520981E+01  0.65021643115E+02  0.00000000000E+00 0. -1.
        -11    1    4    4    0    0  0.75486744068E+02 -0.60627521786E+02  0.73065696777E+02  0.12129526361E+03  0.00000000000E+00 0.  1.
         11    1    4    4    0    0  0.48887681019E+01 -0.25831338462E+02 -0.15582223235E+02  0.30560821017E+02  0.00000000000E+00 0. -1.
         21    1    1    2  502  501 -0.12708959543E+03  0.10741552237E+03 -0.45899883973E+03  0.48823129210E+03  0.00000000000E+00 0. -1.
<scales pt_clust_5="13000.00000" pt_clust_6="13000.00000" pt_clust_7="13000.00000" pt_clust_8="13000.00000" pt_clust_9="160.38287"></scales>
<clustering>
<clus scale="   76.293">  7  8 -1 -1</clus>
<clus scale="   90.928">  5  6 -1 -1</clus>
<clus scale="  104.352">  1  5  2 -1</clus>
<clus scale="  160.383">  2  9  1 -1</clus>
<clus scale="  160.383">  2  5  1 -1</clus>
</clustering>
</event>
<event>
 9    1  0.2423659E-006  0.1370038E+03  0.7546771E-02  0.1234816E+00
         -3   -1    0    0    0  501 -0.00000000000E+00  0.00000000000E+00  0.35594669670E+03  0.35594669670E+03  0.00000000000E+00 0.  1.
          3   -1    0    0  502    0  0.00000000000E+00 -0.00000000000E+00 -0.35827856921E+03  0.35827856921E+03  0.00000000000E+00 0. -1.
         23    2    1    2    0    0  0.18908552598E+02  0.23318783427E+02  0.18013141142E+03  0.20384933997E+03  0.90586582916E+02 0.  0.
         23    2    1    2    0    0 -0.24716936502E+02  0.77708256200E+02  0.13132773014E+03  0.18067151202E+03  0.93518567775E+02 0.  0.
        -11    1    4    4    0    0  0.15211220446E+01  0.40113615261E+02  0.12862847878E+03  0.13474680514E+03  0.00000000000E+00 0.  1.
         11    1    4    4    0    0 -0.26238058546E+02  0.37594640939E+02  0.26992513558E+01  0.45924706874E+02  0.00000000000E+00 0. -1.
        -13    1    3    3    0    0 -0.24971429350E+02  0.35963829343E+02  0.12391498115E+03  0.13142256982E+03  0.00000000000E+00 0.  1.
         13    1    3    3    0    0  0.43879981949E+02 -0.12645045916E+02  0.56216430268E+02  0.72426770148E+02  0.00000000000E+00 0. -1.
         21    1    1    2  502  501  0.58083839037E+01 -0.10102703963E+03 -0.31379101406E+03  0.32970441393E+03  0.00000000000E+00 0. -1.
<scales pt_clust_5="13000.00000" pt_clust_6="13000.00000" pt_clust_7="13000.00000" pt_clust_8="13000.00000" pt_clust_9="100.12157"></scales>
<clustering>
<clus scale="   90.587">  7  8 -1 -1</clus>
<clus scale="   93.519">  5  6 -1 -1</clus>
<clus scale="   95.432">  1  7  2 -1</clus>
<clus scale="  100.122">  2  9  1 -1</clus>
<clus scale="  100.122">  2  5  1 -1</clus>
</clustering>
</event>
<event>
 9    1  0.2423659E-006  0.9220606E+02  0.7546771E-02  0.1300237E+00
         -2   -1    0    0    0  501 -0.00000000000E+00  0.00000000000E+00  0.12136651145E+03  0.12136651145E+03  0.00000000000E+00 0.  1.
          2   -1    0    0  502    0  0.00000000000E+00 -0.00000000000E+00 -0.53808720433E+03  0.53808720433E+03  0.00000000000E+00 0. -1.
         23    2    1    2    0    0  0.83038041268E+01 -0.18055983208E+02  0.91512115768E+02  0.13034243156E+03  0.90662618753E+02 0.  0.
         23    2    1    2    0    0  0.24202000652E+02 -0.24958225424E+02 -0.30482208355E+03  0.31867656140E+03  0.86195117672E+02 0.  0.
        -11    1    3    3    0    0 -0.34205339049E+02 -0.20932567607E+02  0.74219322161E+02  0.84360449193E+02  0.00000000000E+00 0.  1.
         11    1    3    3    0    0  0.42509143176E+02  0.28765843989E+01  0.17292793607E+02  0.45981982363E+02  0.00000000000E+00 0. -1.
        -13    1    4    4    0    0 -0.18297244807E+02 -0.31484598015E+02 -0.60609740322E+02  0.70707918238E+02  0.00000000000E+00 0. -1.
         13    1    4    4    0    0  0.42499245458E+02  0.65263725911E+01 -0.24421234323E+03  0.24796864316E+03  0.00000000000E+00 0.  1.
         21    1    1    2  502  501 -0.32505804778E+02  0.43014208632E+02 -0.20341072510E+03  0.21043472283E+03  0.00000000000E+00 0. -1.
<scales pt_clust_5="13000.00000" pt_clust_6="13000.00000" pt_clust_7="13000.00000" pt_clust_8="13000.00000" pt_clust_9="53.91521"></scales>
<clustering>
<clus scale="   53.915">  2  9  1 -1</clus>
<clus scale="   86.195">  7  8 -1 -1</clus>
<clus scale="   87.817">  2  7  1 -1</clus>
<clus scale="   90.663">  5  6 -1 -1</clus>
<clus scale="   53.915">  2  5  1 -1</clus>
</clustering>
</event>
<event>
 9    1  0.2423659E-006  0.1116215E+03  0.7546771E-02  0.1258473E+00
         -1   -1    0    0    0  501 -0.00000000000E+00  0.00000000000E+00  0.80086366809E+02  0.80086366809E+02  0.00000000000E+00 0.  1.
          1   -1    0    0  502    0  0.00000000000E+00 -0.00000000000E+00 -0.42020470697E+03  0.42020470697E+03  0.00000000000E+00 0. -1.
         23    2    1    2    0    0  0.56038948222E+02 -0.29798014426E+02 -0.93584656107E+02  0.14781966495E+03  0.95206512934E+02 0.  0.
         23    2    1    2    0    0 -0.49137258680E+02 -0.79693354911E+02 -0.83767929449E+02  0.15618415975E+03  0.92795068545E+02 0.  0.
        -13    1    4    4    0    0  0.19540880794E+02 -0.32762718745E+02 -0.21591070736E-01  0.38147637252E+02  0.00000000000E+00 0. -1.
         13    1    4    4    0    0 -0.68678139474E+02 -0.46930636167E+02 -0.83746338378E+02  0.11803652250E+03  0.00000000000E+00 0.  1.
        -13    1    3    3    0    0  0.38702831688E+02 -0.59039748582E+02 -0.88875074358E+02  0.11350057240E+03  0.00000000000E+00 0.  1.
         13    1    3    3    0    0  0.17336116534E+02  0.29241734156E+02 -0.47095817490E+01  0.34319092546E+02  0.00000000000E+00 0. -1.
         21    1    1    2  502  501 -0.69016895417E+01  0.10949136934E+03 -0.16276575460E+03  0.19628724907E+03  0.00000000000E+00 0. -1.
<scales pt_clust_5="13000.00000" pt_clust_6="13000.00000" pt_clust_7="13000.00000" pt_clust_8="13000.00000" pt_clust_9="109.70867"></scales>
<clustering>
<clus scale="   92.795">  5  6 -1 -1</clus>
<clus scale="   95.207">  7  8 -1 -1</clus>
<clus scale="  109.709">  2  9  1 -1</clus>
<clus scale="  109.709">  2  5  1 -1</clus>
<clus scale="  109.709">  2  5  1 -1</clus>
</clustering>
</event>
<event>
 9    1  0.2423659E-006  0.1388367E+03  0.7546771E-02  0.1231621E+00
         -1   -1    0    0    0  501 -0.00000000000E+00  0.00000000000E+00  0.56155331315E+03  0.56155331315E+03  0.00000000000E+00 0.  1.
          1   -1    0    0  502    0  0.00000000000E+00 -0.00000000000E+00 -0.70006052263E+02  0.70006052263E+02  0.00000000000E+00 0. -1.
         23    2    1    2    0    0  0.28514140456E+02  0.23795995925E+02  0.17415593938E+03  0.19979736752E+03  0.90605690878E+02 0.  0.
         23    2    1    2    0    0  0.50008135372E+02  0.55373132792E+02  0.29556435845E+03  0.31814019075E+03  0.91037868743E+02 0.  0.
        -11    1    4    4    0    0  0.16212333699E+02  0.60512269387E+02  0.26493559832E+03  0.27224152102E+03  0.00000000000E+00 0.  1.
         11    1    4    4    0    0  0.33795801673E+02 -0.51391365951E+01  0.30628760127E+02  0.45898669725E+02  0.00000000000E+00 0. -1.
        -13    1    3    3    0    0  0.25769814497E+02  0.56660112320E+02  0.13461174966E+03  0.14830635460E+03  0.00000000000E+00 0.  1.
         13    1    3    3    0    0  0.27443259588E+01 -0.32864116395E+02  0.39544189718E+02  0.51491012923E+02  0.00000000000E+00 0. -1.
         21    1    1    2  502  501 -0.78522275828E+02 -0.79169128717E+02  0.21826963063E+02  0.11362180715E+03  0.00000000000E+00 0. -1.
<scales pt_clust_5="13000.00000" pt_clust_6="13000.00000" pt_clust_7="13000.00000" pt_clust_8="13000.00000" pt_clust_9="104.82235"></scales>
<clustering>
<clus scale="   90.606">  7  8 -1 -1</clus>
<clus scale="   91.038">  5  6 -1 -1</clus>
<clus scale="   97.922">  1  7  2 -1</clus>
<clus scale="  104.822">  2  9  1 -1</clus>
<clus scale="  104.822">  2  5  1 -1</clus>
</clustering>
</event>
<event>
 9    1  0.2423659E-006  0.1216262E+03  0.7546771E-02  0.1240538E+00
          2   -1    0    0  502    0  0.00000000000E+00  0.00000000000E+00  0.20816114841E+03  0.20816114841E+03  0.00000000000E+00 0. -1.
         -2   -1    0    0    0  501 -0.00000000000E+00 -0.00000000000E+00 -0.12454382264E+03  0.12454382264E+03  0.00000000000E+00 0.  1.
         23    2    1    2    0    0  0.85223818684E+02 -0.16432441050E+02 -0.78152454789E+01  0.12567715593E+03  0.90556860985E+02 0.  0.
         23    2    1    2    0    0 -0.51299716611E+02  0.67598315835E+02  0.62102805962E+02  0.13899086504E+03  0.90887341403E+02 0.  0.
        -11    1    3    3    0    0  0.85063527625E+01 -0.26444534301E+02 -0.34084810763E+02  0.43970964926E+02  0.00000000000E+00 0.  1.
         11    1    3    3    0    0  0.76717465921E+02  0.10012093251E+02  0.26269565284E+02  0.81706191007E+02  0.00000000000E+00 0. -1.
        -11    1    4    4    0    0 -0.55679842228E+02  0.40431823700E+02 -0.24112212175E+01  0.68853403590E+02  0.00000000000E+00 0.  1.
         11    1    4    4    0    0  0.43801256161E+01  0.27166492135E+02  0.64514027179E+02  0.70137461447E+02  0.00000000000E+00 0. -1.
         21    1    1    2  502  501 -0.33924102072E+02 -0.51165874784E+02  0.29329765291E+02  0.68036950078E+02  0.00000000000E+00 0. -1.
<scales pt_clust_5="13000.00000" pt_clust_6="13000.00000" pt_clust_7="13000.00000" pt_clust_8="13000.00000" pt_clust_9="61.39048"></scales>
<clustering>
<clus scale="   61.390">  1  9  2 -1</clus>
<clus scale="   90.557">  5  6 -1 -1</clus>
<clus scale="   90.887">  7  8 -1 -1</clus>
<clus scale="  121.379">  2  5  1 -1</clus>
<clus scale="   61.390">  1  5  2 -1</clus>
</clustering>
</event>
<event>
 9    1  0.2423659E-006  0.9110228E+02  0.7546771E-02  0.1300608E+00
          1   -1    0    0  502    0  0.00000000000E+00  0.00000000000E+00  0.22183184809E+03  0.22183184809E+03  0.00000000000E+00 0. -1.
         -1   -1    0    0    0  501 -0.00000000000E+00 -0.00000000000E+00 -0.85297811991E+02  0.85297811991E+02  0.00000000000E+00 0.  1.
         23    2    1    2    0    0  0.13879488565E+02  0.16270592742E+00 -0.63412967372E+01  0.91691912230E+02  0.90413096662E+02 0.  0.
         23    2    1    2    0    0  0.43471599075E+02 -0.57074337682E+01  0.10871831731E+03  0.14845571317E+03  0.91088262295E+02 0.  0.
        -11    1    4    4    0    0  0.66046667281E+02 -0.64888017054E+01  0.10686001488E+03  0.12579081678E+03  0.00000000000E+00 0. -1.
         11    1    4    4    0    0 -0.22575068206E+02  0.78136793719E+00  0.18583024285E+01  0.22664896387E+02  0.00000000000E+00 0.  1.
        -11    1    3    3    0    0 -0.32942572708E+02 -0.24379010315E+01 -0.24789062592E+02  0.41299565158E+02  0.00000000000E+00 0.  1.
         11    1    3    3    0    0  0.46822061273E+02  0.26006069589E+01  0.18447765855E+02  0.50392347072E+02  0.00000000000E+00 0. -1.
         21    1    1    2  502  501 -0.57351087640E+02  0.55447278408E+01  0.34157015525E+02  0.66982034680E+02  0.00000000000E+00 0.  1.
<scales pt_clust_5="13000.00000" pt_clust_6="13000.00000" pt_clust_7="13000.00000" pt_clust_8="13000.00000" pt_clust_9="57.61850"></scales>
<clustering>
<clus scale="   57.618">  1  9  2 -1</clus>
<clus scale="   90.413">  7  8 -1 -1</clus>
<clus scale="   90.427">  2  7  1 -1</clus>
<clus scale="   91.088">  5  6 -1 -1</clus>
<clus scale="   57.618">  1  5  2 -1</clus>
</clustering>
</event>
<event>
 9    1  0.2423659E-006  0.9902247E+02  0.7546771E-02  0.1283266E+00
         -1   -1    0    0    0  501 -0.00000000000E+00  0.00000000000E+00  0.62713993681E+03  0.62713993681E+03  0.00000000000E+00 0.  1.
          1   -1    0    0  502    0  0.00000000000E+00 -0.00000000000E+00 -0.33757923089E+02  0.33757923089E+02  0.00000000000E+00 0. -1.
         23    2    1    2    0    0  0.65473724340E+02 -0.91442114491E+01  0.26958853096E+03  0.29271444234E+03  0.92915787400E+02 0.  0.
         23    2    1    2    0    0 -0.13311955563E+02 -0.28326333741E+02  0.11657417046E+03  0.15123933428E+03  0.91127436432E+02 0.  0.
        -11    1    4    4    0    0  0.33427037132E+02  0.23555123608E+01  0.18317971148E+02  0.38189832637E+02  0.00000000000E+00 0. -1.
         11    1    4    4    0    0 -0.46738992695E+02 -0.30681846101E+02  0.98256199308E+02  0.11304950164E+03  0.00000000000E+00 0.  1.
        -13    1    3    3    0    0  0.43873228129E+02  0.37275923647E+02  0.18586229816E+03  0.19457427504E+03  0.00000000000E+00 0.  1.
         13    1    3    3    0    0  0.21600496211E+02 -0.46420135096E+02  0.83726232793E+02  0.98140167294E+02  0.00000000000E+00 0. -1.
         21    1    1    2  502  501 -0.52161768776E+02  0.37470545190E+02  0.20721931231E+03  0.21694408328E+03  0.00000000000E+00 0.  1.
<scales pt_clust_5="13000.00000" pt_clust_6="13000.00000" pt_clust_7="13000.00000" pt_clust_8="13000.00000" pt_clust_9="64.22532"></scales>
<clustering>
<clus scale="   64.225">  1  9  2 -1</clus>
<clus scale="   91.127">  5  6 -1 -1</clus>
<clus scale="   92.916">  7  8 -1 -1</clus>
<clus scale="   97.346">  2  5  1 -1</clus>
<clus scale="   97.346">  2  5  1 -1</clus>
</clustering>
</event>
<event>
 9    1  0.2423659E-006  0.1092080E+03  0.7546771E-02  0.1262398E+00
          3   -1    0    0  502    0  0.00000000000E+00  0.00000000000E+00  0.69318605048E+02  0.69318605048E+02  0.00000000000E+00 0. -1.
         -3   -1    0    0    0  501 -0.00000000000E+00 -0.00000000000E+00 -0.22463270357E+03  0.22463270357E+03  0.00000000000E+00 0.  1.
         23    2    1    2    0    0 -0.25572453579E+02  0.62149423641E+02 -0.12226782957E+03  0.16660284552E+03  0.91052648225E+02 0.  0.
         23    2    1    2    0    0  0.13894187354E+02 -0.45579448519E+02 -0.22186696437E+02  0.10435115254E+03  0.90146430700E+02 0.  0.
        -11    1    3    3    0    0 -0.45346631165E+02  0.69174789965E+02 -0.63730354198E+02  0.10441755873E+03  0.00000000000E+00 0.  1.
         11    1    3    3    0    0  0.19774177586E+02 -0.70253663246E+01 -0.58537475369E+02  0.62185286795E+02  0.00000000000E+00 0. -1.
        -13    1    4    4    0    0 -0.31225398792E+02 -0.13980790844E+02 -0.33759600380E+02  0.48064526005E+02  0.00000000000E+00 0.  1.
         13    1    4    4    0    0  0.45119586146E+02 -0.31598657676E+02  0.11572903943E+02  0.56286626534E+02  0.00000000000E+00 0. -1.
         21    1    1    2  502  501  0.11678266225E+02 -0.16569975121E+02 -0.10859572521E+02  0.22997310557E+02  0.00000000000E+00 0. -1.
<scales pt_clust_5="13000.00000" pt_clust_6="13000.00000" pt_clust_7="13000.00000" pt_clust_8="13000.00000" pt_clust_9="20.27180"></scales>
<clustering>
<clus scale="   20.272">  1  9  2 -1</clus>
<clus scale="   90.146">  7  8 -1 -1</clus>
<clus scale="   91.053">  5  6 -1 -1</clus>
<clus scale="  108.454">  1  7  2 -1</clus>
<clus scale="   20.272">  1  5  2 -1</clus>
</clustering>
</event>
<event>
 9    1  0.2423659E-006  0.9852667E+02  0.7546771E-02  0.1283928E+00
          2   -1    0    0  502    0  0.00000000000E+00  0.00000000000E+00  0.82075424153E+03  0.82075424153E+03  0.00000000000E+00 0. -1.
         -2   -1    0    0    0  501 -0.00000000000E+00 -0.00000000000E+00 -0.50001120992E+02  0.50001120992E+02  0.00000000000E+00 0.  1.
         23    2    1    2    0    0  0.62719008702E+02 -0.46508579456E+02  0.14146828826E+03  0.18518393647E+03  0.90460442876E+02 0.  0.
         23    2    1    2    0    0 -0.22603401314E+02 -0.35786993174E+02  0.56447335019E+03  0.57340034493E+03  0.91466769169E+02 0.  0.
        -11    1    4    4    0    0  0.34879043152E+02 -0.41963403381E+01  0.20673894020E+03  0.20970251863E+03  0.00000000000E+00 0. -1.
         11    1    4    4    0    0 -0.57482444466E+02 -0.31590652836E+02  0.35773440999E+03  0.36369782630E+03  0.00000000000E+00 0.  1.
        -13    1    3    3    0    0  0.24175638006E+01 -0.41669805088E+02  0.13891589801E+02  0.43990834704E+02  0.00000000000E+00 0.  1.
         13    1    3    3    0    0  0.60301444902E+02 -0.48387743686E+01  0.12757669846E+03  0.14119310176E+03  0.00000000000E+00 0. -1.
         21    1    1    2  502  501 -0.40115607389E+02  0.82295572630E+02  0.64811482085E+02  0.11217108112E+03  0.00000000000E+00 0.  1.
<scales pt_clust_5="13000.00000" pt_clust_6="13000.00000" pt_clust_7="13000.00000" pt_clust_8="13000.00000" pt_clust_9="91.55230"></scales>
<clustering>
<clus scale="   90.460">  7  8 -1 -1</clus>
<clus scale="   91.467">  5  6 -1 -1</clus>
<clus scale="   91.552">  2  9  1 -1</clus>
<clus scale="   97.593">  2  7  1 -1</clus>
<clus scale="   98.527">  1  5  2 -1</clus>
</clustering>
</event>
<event>
 9    1  0.2423659E-006  0.1497553E+03  0.7546771E-02  0.1229130E+00
         -3   -1    0    0    0  501 -0.00000000000E+00  0.00000000000E+00  0.55200171888E+03  0.55200171888E+03  0.00000000000E+00 0.  1.
          3   -1    0    0  502    0  0.00000000000E+00 -0.00000000000E+00 -0.75863774263E+02  0.75863774263E+02  0.00000000000E+00 0. -1.
         23    2    1    2    0    0 -0.13108804547E+02  0.87835342554E+02  0.38065622035E+02  0.13255781060E+03  0.90750721280E+02 0.  0.
         23    2    1    2    0    0 -0.25475426244E+02  0.32335047232E+02  0.76150115874E+02  0.11200969252E+03  0.71082898422E+02 0.  0.
        -11    1    3    3    0    0  0.39225956511E+02  0.39345134695E+02  0.18861691653E+02  0.58672640135E+02  0.00000000000E+00 0.  1.
         11    1    3    3    0    0 -0.52334761057E+02  0.48490207859E+02  0.19203930382E+02  0.73885170469E+02  0.00000000000E+00 0. -1.
        -13    1    4    4    0    0 -0.21746138455E+02 -0.26697835729E+01  0.73512661592E+02  0.76708107110E+02  0.00000000000E+00 0.  1.
         13    1    4    4    0    0 -0.37292877894E+01  0.35004830805E+02  0.26374542823E+01  0.35301585406E+02  0.00000000000E+00 0. -1.
         21    1    1    2  502  501  0.38584230791E+02 -0.12017038979E+03  0.36192220671E+03  0.38329799002E+03  0.00000000000E+00 0.  1.
<scales pt_clust_5="13000.00000" pt_clust_6="13000.00000" pt_clust_7="13000.00000" pt_clust_8="13000.00000" pt_clust_9="119.12580"></scales>
<clustering>
<clus scale="   71.083">  7  8 -1 -1</clus>
<clus scale="   82.142">  2  7  1 -1</clus>
<clus scale="   90.751">  5  6 -1 -1</clus>
<clus scale="  119.126">  1  9  2 -1</clus>
<clus scale="   82.142">  2  5  1 -1</clus>
</clustering>
</event>
<event>
 9    1  0.2423659E-006  0.1254055E+03  0.7546771E-02  0.1234831E+00
         -2   -1    0    0    0  501 -0.00000000000E+00  0.00000000000E+00  0.12859029701E+03  0.12859029701E+03  0.00000000000E+00 0.  1.
          2   -1    0    0  502    0  0.00000000000E+00 -0.00000000000E+00 -0.30638076483E+03  0.30638076483E+03  0.00000000000E+00 0. -1.
         23    2    1    2    0    0  0.44196929232E+02 -0.43505789982E+02 -0.94958114634E+01  0.11268509533E+03  0.93603621510E+02 0.  0.
         23    2    1    2    0    0 -0.46065173661E+02  0.78884534094E+02 -0.22245545814E+03  0.25756704870E+03  0.92247405260E+02 0.  0.
        -11    1    4    4    0    0 -0.32124810552E+02  0.60403325083E+02 -0.22414766084E+03  0.23435600909E+03  0.00000000000E+00 0. -1.
         11    1    4    4    0    0 -0.13940363110E+02  0.18481209010E+02  0.16922027004E+01  0.23211039617E+02  0.00000000000E+00 0.  1.
        -13    1    3    3    0    0  0.42148708303E+02  0.21200736907E+02  0.47557837374E+00  0.47182740825E+02  0.00000000000E+00 0. -1.
         13    1    3    3    0    0  0.20482209284E+01 -0.64706526889E+02 -0.99713898371E+01  0.65502354509E+02  0.00000000000E+00 0.  1.
         21    1    1    2  502  501  0.18682444297E+01 -0.35378744111E+02  0.54160801781E+02  0.64718917803E+02  0.00000000000E+00 0.  1.
<scales pt_clust_5="13000.00000" pt_clust_6="13000.00000" pt_clust_7="13000.00000" pt_clust_8="13000.00000" pt_clust_9="35.42804"></scales>
<clustering>
<clus scale="   35.428">  1  9  2 -1</clus>
<clus scale="   92.247">  5  6 -1 -1</clus>
<clus scale="   93.604">  7  8 -1 -1</clus>
<clus scale="  124.397">  2  5  1 -1</clus>
<clus scale="  124.397">  2  5  1 -1</clus>
</clustering>
</event>
<event>
 9    1  0.2423659E-006  0.9467752E+02  0.7546771E-02  0.1292056E+00
         -1   -1    0    0    0  501 -0.00000000000E+00  0.00000000000E+00  0.36966282765E+02  0.36966282765E+02  0.00000000000E+00 0.  1.
          1   -1    0    0  502    0  0.00000000000E+00 -0.00000000000E+00 -0.71460519278E+03  0.71460519278E+03  0.00000000000E+00 0. -1.
         23    2    1    2    0    0  0.60776415266E+01  0.14549000495E+02 -0.55889828982E+02  0.10938046480E+03  0.92691973512E+02 0.  0.
         23    2    1    2    0    0 -0.49138571333E+02 -0.29598752287E+01 -0.30855988502E+03  0.32584306307E+03  0.92418283114E+02 0.  0.
        -11    1    3    3    0    0 -0.40549027505E+02 -0.22600970756E+01 -0.99786538130E+01  0.41819913944E+02  0.00000000000E+00 0.  1.
         11    1    3    3    0    0  0.46626669031E+02  0.16809097570E+02 -0.45911175169E+02  0.67560550853E+02  0.00000000000E+00 0. -1.
        -11    1    4    4    0    0 -0.39917313556E+02 -0.40119931885E+02 -0.24657685397E+03  0.25298843011E+03  0.00000000000E+00 0. -1.
         11    1    4    4    0    0 -0.92212577773E+01  0.37160056656E+02 -0.61983031053E+02  0.72854632963E+02  0.00000000000E+00 0.  1.
         21    1    1    2  502  501  0.43060929806E+02 -0.11589125266E+02 -0.31318919601E+03  0.31634794768E+03  0.00000000000E+00 0. -1.
<scales pt_clust_5="13000.00000" pt_clust_6="13000.00000" pt_clust_7="13000.00000" pt_clust_8="13000.00000" pt_clust_9="44.59318"></scales>
<clustering>
<clus scale="   44.593">  2  9  1 -1</clus>
<clus scale="   92.418">  7  8 -1 -1</clus>
<clus scale="   92.692">  5  6 -1 -1</clus>
<clus scale="   94.410">  2  7  1 -1</clus>
<clus scale="   44.593">  2  5  1 -1</clus>
</clustering>
</event>
<event>
 9    1  0.2423659E-006  0.2120443E+03  0.7546771E-02  0.1172336E+00
         -2   -1    0    0    0  501 -0.00000000000E+00  0.00000000000E+00  0.12658185669E+03  0.12658185669E+03  0.00000000000E+00 0.  1.
          2   -1    0    0  502    0  0.00000000000E+00 -0.00000000000E+00 -0.73491817523E+03  0.73491817523E+03  0.00000000000E+00 0. -1.
         23    2    1    2    0    0 -0.19801833041E+03  0.22948863074E+02 -0.21955036230E+03  0.31040436236E+03  0.91709307546E+02 0.  0.
         23    2    1    2    0    0  0.99267689491E+01 -0.35034952392E+02 -0.34308317637E+03  0.35715430435E+03  0.92342528532E+02 0.  0.
        -11    1    4    4    0    0 -0.36324253083E+02  0.56883661194E+01 -0.10609902372E+03  0.11228896520E+03  0.00000000000E+00 0. -1.
         11    1    4    4    0    0  0.46251022032E+02 -0.40723318511E+02 -0.23698415264E+03  0.24486533914E+03  0.00000000000E+00 0.  1.
        -13    1    3    3    0    0 -0.11072027347E+03 -0.32996654025E+02 -0.12245623998E+03  0.16835465198E+03  0.00000000000E+00 0.  1.
         13    1    3    3    0    0 -0.87298056945E+02  0.55945517099E+02 -0.97094122320E+02  0.14204971038E+03  0.00000000000E+00 0. -1.
         21    1    1    2  502  501  0.18809156146E+03  0.12086089318E+02 -0.45702779870E+02  0.19394136520E+03  0.00000000000E+00 0.  1.
<scales pt_clust_5="13000.00000" pt_clust_6="13000.00000" pt_clust_7="13000.00000" pt_clust_8="13000.00000" pt_clust_9="191.18626"></scales>
<clustering>
<clus scale="   91.709">  7  8 -1 -1</clus>
<clus scale="   92.343">  5  6 -1 -1</clus>
<clus scale="   99.263">  2  5  1 -1</clus>
<clus scale="  191.186">  1  9  2 -1</clus>
<clus scale="   99.263">  2  5  1 -1</clus>
</clustering>
</event>
<event>
 9    1  0.2423659E-006  0.9820556E+02  0.7546771E-02  0.1284558E+00
         -2   -1    0    0    0  501 -0.00000000000E+00  0.00000000000E+00  0.49926909508E+02  0.49926909508E+02  0.00000000000E+00 0.  1.
          2   -1    0    0  502    0  0.00000000000E+00 -0.00000000000E+00 -0.33261935117E+03  0.33261935117E+03  0.00000000000E+00 0. -1.
         23    2    1    2    0    0  0.12187070098E+02 -0.14483065006E+02 -0.82672531659E+02  0.12666434143E+03  0.94078818289E+02 0.  0.
         23    2    1    2    0    0  0.12082016167E+02  0.41909492519E+02 -0.79881136112E+02  0.13028525342E+03  0.93224839361E+02 0.  0.
        -11    1    4    4    0    0 -0.31108173211E+02 -0.12298633315E+02 -0.22620550471E+02  0.40381482458E+02  0.00000000000E+00 0. -1.
         11    1    4    4    0    0  0.43190189378E+02  0.54208125834E+02 -0.57260585641E+02  0.89903770960E+02  0.00000000000E+00 0.  1.
        -11    1    3    3    0    0  0.22357027645E+02 -0.48469207641E+02 -0.71982537863E+02  0.89613539890E+02  0.00000000000E+00 0. -1.
         11    1    3    3    0    0 -0.10169957547E+02  0.33986142635E+02 -0.10689993796E+02  0.37050801545E+02  0.00000000000E+00 0.  1.
         21    1    1    2  502  501 -0.24269086265E+02 -0.27426427513E+02 -0.12013877389E+03  0.12559666582E+03  0.00000000000E+00 0. -1.
<scales pt_clust_5="13000.00000" pt_clust_6="13000.00000" pt_clust_7="13000.00000" pt_clust_8="13000.00000" pt_clust_9="36.62236"></scales>
<clustering>
<clus scale="   36.622">  2  9  1 -1</clus>
<clus scale="   93.225">  5  6 -1 -1</clus>
<clus scale="   94.079">  7  8 -1 -1</clus>
<clus scale="   97.388">  2  5  1 -1</clus>
<clus scale="   36.622">  2  5  1 -1</clus>
</clustering>
</event>
<event>
 9    1  0.2423659E-006  0.1307027E+03  0.7546771E-02  0.1238799E+00
         -3   -1    0    0    0  501 -0.00000000000E+00  0.00000000000E+00  0.35891699634E+03  0.35891699634E+03  0.00000000000E+00 0.  1.
          3   -1    0    0  502    0  0.00000000000E+00 -0.00000000000E+00 -0.82516465025E+02  0.82516465025E+02  0.00000000000E+00 0. -1.
         23    2    1    2    0    0  0.46891676608E+02  0.27833295281E+02  0.14592803359E+03  0.17765747634E+03  0.85402963942E+02 0.  0.
         23    2    1    2    0    0  0.41457642934E+02  0.41296919909E+02  0.96892569871E+02  0.14667687969E+03  0.93283252455E+02 0.  0.
        -11    1    4    4    0    0  0.51032525897E+02 -0.13712823453E+02  0.58956219027E+02  0.79171939400E+02  0.00000000000E+00 0.  1.
         11    1    4    4    0    0 -0.95748829630E+01  0.55009743362E+02  0.37936350844E+02  0.67504940292E+02  0.00000000000E+00 0. -1.
        -13    1    3    3    0    0  0.57639015930E+02  0.50926612226E+01  0.14046810818E+03  0.15191932323E+03  0.00000000000E+00 0.  1.
         13    1    3    3    0    0 -0.10747339322E+02  0.22740634059E+02  0.54599254117E+01  0.25738153107E+02  0.00000000000E+00 0. -1.
         21    1    1    2  502  501 -0.88349319542E+02 -0.69130215190E+02  0.33579927857E+02  0.11709910534E+03  0.00000000000E+00 0. -1.
<scales pt_clust_5="13000.00000" pt_clust_6="13000.00000" pt_clust_7="13000.00000" pt_clust_8="13000.00000" pt_clust_9="91.55014"></scales>
<clustering>
<clus scale="   85.403">  7  8 -1 -1</clus>
<clus scale="   93.283">  5  6 -1 -1</clus>
<clus scale="  101.327">  1  7  2 -1</clus>
<clus scale="   91.550">  2  9  1 -1</clus>
<clus scale="   91.550">  2  5  1 -1</clus>
</clustering>
</event>
<event>
 9    1  0.2423659E-006  0.1159638E+03  0.7546771E-02  0.1250887E+00
         -1   -1    0    0    0  501 -0.00000000000E+00  0.00000000000E+00  0.71369088759E+02  0.71369088759E+02  0.00000000000E+00 0.  1.
          1   -1    0    0  502    0  0.00000000000E+00 -0.00000000000E+00 -0.68443422469E+03  0.68443422469E+03  0.00000000000E+00 0. -1.
         23    2    1    2    0    0  0.36041422692E+02  0.55837132112E+02  0.68165158712E+01  0.11486298794E+03  0.93435922634E+02 0.  0.
         23    2    1    2    0    0 -0.62651226896E+02 -0.60935821532E+02 -0.39877531099E+03  0.41818015793E+03  0.90634128499E+02 0.  0.
        -11    1    4    4    0    0  0.42674508988E+01 -0.40989875701E+02 -0.63431986650E+02  0.75643889227E+02  0.00000000000E+00 0.  1.
         11    1    4    4    0    0 -0.66918677794E+02 -0.19945945831E+02 -0.33534332434E+03  0.34253626870E+03  0.00000000000E+00 0. -1.
        -13    1    3    3    0    0  0.15884429149E+02  0.68866329112E+02  0.34145502751E+02  0.78490774827E+02  0.00000000000E+00 0.  1.
         13    1    3    3    0    0  0.20156993542E+02 -0.13029197000E+02 -0.27328986880E+02  0.36372213116E+02  0.00000000000E+00 0. -1.
         21    1    1    2  502  501  0.26609804204E+02  0.50986894197E+01 -0.22110634081E+03  0.22276016758E+03  0.00000000000E+00 0.  1.
<scales pt_clust_5="13000.00000" pt_clust_6="13000.00000" pt_clust_7="13000.00000" pt_clust_8="13000.00000" pt_clust_9="27.09388"></scales>
<clustering>
<clus scale="   27.094">  2  9  1 -1</clus>
<clus scale="   90.634">  5  6 -1 -1</clus>
<clus scale="   93.436">  7  8 -1 -1</clus>
<clus scale="  113.718">  2  5  1 -1</clus>
<clus scale="   27.094">  2  5  1 -1</clus>
</clustering>
</event>
<event>
 9    1  0.2423659E-006  0.9837098E+02  0.7546771E-02  0.1284330E+00
         -1   -1    0    0    0  501 -0.00000000000E+00  0.00000000000E+00  0.12309822527E+03  0.12309822527E+03  0.00000000000E+00 0.  1.
          1   -1    0    0  502    0  0.00000000000E+00 -0.00000000000E+00 -0.24567273318E+03  0.24567273318E+03  0.00000000000E+00 0. -1.
         23    2    1    2    0    0  0.26238994028E+01  0.43602361811E+02  0.58697900092E+02  0.11673609689E+03  0.90960552094E+02 0.  0.
         23    2    1    2    0    0 -0.13245907025E+02  0.19859426584E+02 -0.15637857648E+03  0.18304262664E+03  0.92089592825E+02 0.  0.
        -11    1    3    3    0    0 -0.28630978393E+02  0.49996239918E+02  0.62032126377E+02  0.84660153747E+02  0.00000000000E+00 0.  1.
         11    1    3    3    0    0  0.31254877796E+02 -0.63938781064E+01 -0.33342262849E+01  0.32075943138E+02  0.00000000000E+00 0. -1.
        -13    1    4    4    0    0 -0.87493824506E+01  0.53130212587E+02 -0.12877268920E+03  0.13957713519E+03  0.00000000000E+00 0.  1.
         13    1    4    4    0    0 -0.44965245748E+01 -0.33270786002E+02 -0.27605887278E+02  0.43465491449E+02  0.00000000000E+00 0. -1.
         21    1    1    2  502  501  0.10622007623E+02 -0.63461788396E+02 -0.24893831522E+02  0.68992234927E+02  0.00000000000E+00 0. -1.
<scales pt_clust_5="13000.00000" pt_clust_6="13000.00000" pt_clust_7="13000.00000" pt_clust_8="13000.00000" pt_clust_9="64.34459"></scales>
<clustering>
<clus scale="   64.345">  2  9  1 -1</clus>
<clus scale="   90.961">  5  6 -1 -1</clus>
<clus scale="   92.090">  7  8 -1 -1</clus>
<clus scale="   97.315">  1  5  2 -1</clus>
<clus scale="   64.345">  2  5  1 -1</clus>
</clustering>
</event>
<event>
 9    1  0.2423659E-006  0.1260297E+03  0.7546771E-02  0.1243302E+00
          1   -1    0    0  502    0  0.00000000000E+00  0.00000000000E+00  0.10377622392E+03  0.10377622392E+03  0.00000000000E+00 0. -1.
         -1   -1    0    0    0  501 -0.00000000000E+00 -0.00000000000E+00 -0.53963074057E+03  0.53963074057E+03  0.00000000000E+00 0.  1.
         23    2    1    2    0    0 -0.17610488470E+02  0.91245488986E+02 -0.93404424931E+02  0.15557968967E+03  0.82733213865E+02 0.  0.
         23    2    1    2    0    0 -0.44076907891E+02 -0.40467825133E+02  0.10820548018E+02  0.12563416208E+03  0.10993834519E+03 0.  0.
        -11    1    4    4    0    0  0.84863195006E+01  0.28011607823E+02 -0.18310655239E+02  0.34524598285E+02  0.00000000000E+00 0.  1.
         11    1    4    4    0    0 -0.52563227392E+02 -0.68479432956E+02  0.29131203257E+02  0.91109563795E+02  0.00000000000E+00 0. -1.
        -11    1    3    3    0    0 -0.62686300725E+00  0.70499833779E+02 -0.10491425368E+03  0.12640261131E+03  0.00000000000E+00 0.  1.
         11    1    3    3    0    0 -0.16983625463E+02  0.20745655207E+02  0.11509828750E+02  0.29177078361E+02  0.00000000000E+00 0. -1.
         21    1    1    2  502  501  0.61687396361E+02 -0.50777663853E+02 -0.35327063973E+03  0.36219311273E+03  0.00000000000E+00 0.  1.
<scales pt_clust_5="13000.00000" pt_clust_6="13000.00000" pt_clust_7="13000.00000" pt_clust_8="13000.00000" pt_clust_9="79.89810"></scales>
<clustering>
<clus scale="   79.898">  2  9  1 -1</clus>
<clus scale="   82.733">  7  8 -1 -1</clus>
<clus scale="  103.159">  2  7  1 -1</clus>
<clus scale="  109.938">  5  6 -1 -1</clus>
<clus scale="  126.030">  1  5  2 -1</clus>
</clustering>
</event>
<event>
 9    1  0.2423659E-006  0.2134743E+03  0.7546771E-02  0.1138956E+00
          1   -1    0    0  502    0  0.00000000000E+00  0.00000000000E+00  0.68868809160E+03  0.68868809160E+03  0.00000000000E+00 0. -1.
         -1   -1    0    0    0  501 -0.00000000000E+00 -0.00000000000E+00 -0.19514750532E+03  0.19514750532E+03  0.00000000000E+00 0.  1.
         23    2    1    2    0    0  0.12010093533E+03 -0.17425280988E+03 -0.20725529943E+02  0.23217554341E+03  0.93207612058E+02 0.  0.
         23    2    1    2    0    0 -0.18716123592E+02  0.17568328269E+03  0.95609724599E+02  0.22090014294E+03  0.91873525110E+02 0.  0.
        -11    1    4    4    0    0 -0.53477364959E+02  0.86325625305E+02  0.63585650817E+02  0.11981267519E+03  0.00000000000E+00 0. -1.
         11    1    4    4    0    0  0.34761241368E+02  0.89357657383E+02  0.32024073782E+02  0.10108746775E+03  0.00000000000E+00 0.  1.
        -11    1    3    3    0    0  0.54042161875E+02 -0.15194985542E+03 -0.19440473718E+02  0.16244151514E+03  0.00000000000E+00 0.  1.
         11    1    3    3    0    0  0.66058773458E+02 -0.22302954455E+02 -0.12850562246E+01  0.69734028263E+02  0.00000000000E+00 0. -1.
         21    1    1    2  502  501 -0.10138481174E+03 -0.14304728089E+01  0.41865639163E+03  0.43075991057E+03  0.00000000000E+00 0. -1.
<scales pt_clust_5="13000.00000" pt_clust_6="13000.00000" pt_clust_7="13000.00000" pt_clust_8="13000.00000" pt_clust_9="101.39490"></scales>
<clustering>
<clus scale="   91.874">  5  6 -1 -1</clus>
<clus scale="   93.208">  7  8 -1 -1</clus>
<clus scale="  101.395">  1  9  2 -1</clus>
<clus scale="  212.895">  1  5  2 -1</clus>
<clus scale="  101.395">  1  5  2 -1</clus>
</clustering>
</event>
<event>
 9    1  0.2423659E-006  0.1154767E+03  0.7546771E-02  0.1252493E+00
         -2   -1    0    0    0  501 -0.00000000000E+00  0.00000000000E+00  0.70264614525E+03  0.70264614525E+03  0.00000000000E+00 0.  1.
          2   -1    0    0  502    0  0.00000000000E+00 -0.00000000000E+00 -0.39222176880E+02  0.39222176880E+02  0.00000000000E+00 0. -1.
         23    2    1    2    0    0 -0.42839207285E+02 -0.20723384392E+02  0.17479078101E+03  0.20355559014E+03  0.92835363999E+02 0.  0.
         23    2    1    2    0    0  0.80991769070E+02 -0.28059750725E+02  0.17106672577E+03  0.21476386433E+03  0.97532950774E+02 0.  0.
        -13    1    3    3    0    0 -0.64547619193E+02 -0.52045845624E+01  0.16096254484E+03  0.17350050053E+03  0.00000000000E+00 0.  1.
         13    1    3    3    0    0  0.21708411907E+02 -0.15518799830E+02  0.13828236174E+02  0.30055089608E+02  0.00000000000E+00 0. -1.
        -13    1    4    4    0    0  0.56870825214E+02  0.11856237574E+02  0.28392860985E+02  0.64660773927E+02  0.00000000000E+00 0. -1.
         13    1    4    4    0    0  0.24120943855E+02 -0.39915988298E+02  0.14267386479E+03  0.15010309040E+03  0.00000000000E+00 0.  1.
         21    1    1    2  502  501 -0.38152561784E+02  0.48783135117E+02  0.31756646159E+03  0.32354886767E+03  0.00000000000E+00 0.  1.
<scales pt_clust_5="13000.00000" pt_clust_6="13000.00000" pt_clust_7="13000.00000" pt_clust_8="13000.00000" pt_clust_9="61.93071"></scales>
<clustering>
<clus scale="   61.931">  1  9  2 -1</clus>
<clus scale="   92.835">  5  6 -1 -1</clus>
<clus scale="   97.533">  7  8 -1 -1</clus>
<clus scale="  111.537">  1  5  2 -1</clus>
<clus scale="  115.477">  2  5  1 -1</clus>
</clustering>
</event>
<event>
 9    1  0.2423659E-006  0.1078388E+03  0.7546771E-02  0.1264934E+00
          2   -1    0    0  502    0  0.00000000000E+00  0.00000000000E+00  0.13640038163E+03  0.13640038163E+03  0.00000000000E+00 0. -1.
         -2   -1    0    0    0  501 -0.00000000000E+00 -0.00000000000E+00 -0.19740993339E+03  0.19740993339E+03  0.00000000000E+00 0.  1.
         23    2    1    2    0    0  0.48557827771E+02 -0.77205433431E+01 -0.10320805168E+03  0.14680593388E+03  0.92101090458E+02 0.  0.
         23    2    1    2    0    0 -0.82344654373E+02 -0.34304177360E+02  0.22773834744E+02  0.12968994649E+03  0.91342301170E+02 0.  0.
        -11    1    3    3    0    0  0.11709947978E+02  0.18418407495E+02  0.10669691135E+02  0.24294092393E+02  0.00000000000E+00 0.  1.
         11    1    3    3    0    0  0.36847879792E+02 -0.26138950838E+02 -0.11387774281E+03  0.12251184149E+03  0.00000000000E+00 0. -1.
        -13    1    4    4    0    0  0.24896712878E+01 -0.41522320854E+02  0.16040965444E+00  0.41597203313E+02  0.00000000000E+00 0.  1.
         13    1    4    4    0    0 -0.84834325661E+02  0.72181434939E+01  0.22613425089E+02  0.88092743175E+02  0.00000000000E+00 0. -1.
         21    1    1    2  502  501  0.33786826602E+02  0.42024720703E+02  0.19424665171E+02  0.57314434648E+02  0.00000000000E+00 0. -1.
<scales pt_clust_5="13000.00000" pt_clust_6="13000.00000" pt_clust_7="13000.00000" pt_clust_8="13000.00000" pt_clust_9="53.92241"></scales>
<clustering>
<clus scale="   53.922">  1  9  2 -1</clus>
<clus scale="   91.342">  7  8 -1 -1</clus>
<clus scale="   92.101">  5  6 -1 -1</clus>
<clus scale="  107.191">  1  7  2 -1</clus>
<clus scale="   53.922">  1  5  2 -1</clus>
</clustering>
</event>
<event>
 9    1  0.2423659E-006  0.1127787E+03  0.7546771E-02  0.1255517E+00
          1   -1    0    0  502    0  0.00000000000E+00  0.00000000000E+00  0.58351434242E+03  0.58351434242E+03  0.00000000000E+00 0. -1.
         -1   -1    0    0    0  501 -0.00000000000E+00 -0.00000000000E+00 -0.37707599719E+02  0.37707599719E+02  0.00000000000E+00 0.  1.
         23    2    1    2    0    0 -0.70560849813E+02 -0.33009556697E+02  0.12334783005E+03  0.17237628817E+03  0.91817390435E+02 0.  0.
         23    2    1    2    0    0  0.23416599050E+02  0.35231171525E+02  0.32852620205E+03  0.34372253533E+03  0.91794026484E+02 0.  0.
        -11    1    4    4    0    0  0.27743109014E+02  0.62772447103E+02  0.18077416733E+03  0.19336328449E+03  0.00000000000E+00 0. -1.
         11    1    4    4    0    0 -0.43265099638E+01 -0.27541275579E+02  0.14775203472E+03  0.15035925084E+03  0.00000000000E+00 0.  1.
        -13    1    3    3    0    0 -0.63847029844E+02 -0.45541777526E+01  0.23257938651E+02  0.68103711098E+02  0.00000000000E+00 0.  1.
         13    1    3    3    0    0 -0.67138199689E+01 -0.28455378945E+02  0.10008989140E+03  0.10427257708E+03  0.00000000000E+00 0. -1.
         21    1    1    2  502  501  0.47144250763E+02 -0.22216148277E+01  0.93932710593E+02  0.10512311864E+03  0.00000000000E+00 0. -1.
<scales pt_clust_5="13000.00000" pt_clust_6="13000.00000" pt_clust_7="13000.00000" pt_clust_8="13000.00000" pt_clust_9="47.19657"></scales>
<clustering>
<clus scale="   47.197">  1  9  2 -1</clus>
<clus scale="   91.794">  5  6 -1 -1</clus>
<clus scale="   91.817">  7  8 -1 -1</clus>
<clus scale="  112.760">  1  5  2 -1</clus>
<clus scale="   47.197">  1  5  2 -1</clus>
</clustering>
</event>
<event>
 9    1  0.2423659E-006  0.9323162E+02  0.7546771E-02  0.1296077E+00
          1   -1    0    0  502    0  0.00000000000E+00  0.00000000000E+00  0.12308280591E+03  0.12308280591E+03  0.00000000000E+00 0. -1.
         -1   -1    0    0    0  501 -0.00000000000E+00 -0.00000000000E+00 -0.47713561556E+03  0.47713561556E+03  0.00000000000E+00 0.  1.
         23    2    1    2    0    0 -0.45089436837E+02  0.25291432408E+02 -0.35833295254E+03  0.37321356781E+03  0.90626422507E+02 0.  0.
         23    2    1    2    0    0 -0.16681442148E+02  0.71035752648E+01  0.80502097209E+02  0.12368561860E+03  0.92134756195E+02 0.  0.
        -11    1    4    4    0    0  0.28746650789E+02 -0.24399425379E+02  0.24335206054E+02  0.44876543362E+02  0.00000000000E+00 0. -1.
         11    1    4    4    0    0 -0.45428092937E+02  0.31503000644E+02  0.56166891155E+02  0.78809075236E+02  0.00000000000E+00 0.  1.
        -11    1    3    3    0    0  0.10834429157E+01  0.45969776503E+02 -0.24239573565E+03  0.24671863906E+03  0.00000000000E+00 0. -1.
         11    1    3    3    0    0 -0.46172879752E+02 -0.20678344095E+02 -0.11593721689E+03  0.12649492875E+03  0.00000000000E+00 0.  1.
         21    1    1    2  502  501  0.61770878985E+02 -0.32395007673E+02 -0.76221954321E+02  0.10331923506E+03  0.00000000000E+00 0. -1.
<scales pt_clust_5="13000.00000" pt_clust_6="13000.00000" pt_clust_7="13000.00000" pt_clust_8="13000.00000" pt_clust_9="69.75011"></scales>
<clustering>
<clus scale="   69.750">  2  9  1 -1</clus>
<clus scale="   90.626">  7  8 -1 -1</clus>
<clus scale="   91.741">  2  7  1 -1</clus>
<clus scale="   92.135">  5  6 -1 -1</clus>
<clus scale="   93.232">  1  5  2 -1</clus>
</clustering>
</event>
<event>
 9    1  0.2423659E-006  0.1621629E+03  0.7546771E-02  0.1206918E+00
          2   -1    0    0  502    0  0.00000000000E+00  0.00000000000E+00  0.81689056568E+03  0.81689056568E+03  0.00000000000E+00 0. -1.
         -2   -1    0    0    0  501 -0.00000000000E+00 -0.00000000000E+00 -0.53122584255E+02  0.53122584255E+02  0.00000000000E+00 0.  1.
         23    2    1    2    0    0 -0.97655789555E+02 -0.17799459601E+02  0.37611129611E+03  0.40027686905E+03  0.94384272204E+02 0.  0.
         23    2    1    2    0    0 -0.43368437267E+02 -0.23553608541E+02  0.24057914123E+03  0.26181871845E+03  0.90747585688E+02 0.  0.
        -11    1    3    3    0    0 -0.53038838345E+02  0.85387897109E+01  0.31765076726E+03  0.32216151111E+03  0.00000000000E+00 0. -1.
         11    1    3    3    0    0 -0.44616951210E+02 -0.26338249312E+02  0.58460528852E+02  0.78115357938E+02  0.00000000000E+00 0.  1.
        -13    1    4    4    0    0 -0.18020791115E+02 -0.57026133596E+02  0.16267724493E+03  0.17332228605E+03  0.00000000000E+00 0.  1.
         13    1    4    4    0    0 -0.25347646152E+02  0.33472525055E+02  0.77901896301E+02  0.88496432393E+02  0.00000000000E+00 0. -1.
         21    1    1    2  502  501  0.14102422682E+03  0.41353068141E+02  0.14707754408E+03  0.20791756244E+03  0.00000000000E+00 0. -1.
<scales pt_clust_5="13000.00000" pt_clust_6="13000.00000" pt_clust_7="13000.00000" pt_clust_8="13000.00000" pt_clust_9="131.86515"></scales>
<clustering>
<clus scale="   90.748">  7  8 -1 -1</clus>
<clus scale="   94.384">  5  6 -1 -1</clus>
<clus scale="  103.299">  1  7  2 -1</clus>
<clus scale="  131.865">  2  9  1 -1</clus>
<clus scale="  103.299">  1  5  2 -1</clus>
</clustering>
</event>
<event>
 9    1  0.2423659E-006  0.1288912E+03  0.7546771E-02  0.1229612E+00
         -2   -1    0    0    0  501 -0.00000000000E+00  0.00000000000E+00  0.81585635066E+02  0.81585635066E+02  0.00000000000E+00 0.  1.
          2   -1    0    0  502    0  0.00000000000E+00 -0.00000000000E+00 -0.42321526308E+03  0.42321526308E+03  0.00000000000E+00 0. -1.
         23    2    1    2    0    0  0.10029164524E+03 -0.23542379497E+02 -0.16200083402E+02  0.13984162265E+03  0.93169624808E+02 0.  0.
         23    2    1    2    0    0 -0.40399472084E+02  0.27849506428E+02 -0.22883446674E+03  0.25122171435E+03  0.91320448075E+02 0.  0.
        -11    1    3    3    0    0  0.29027960556E+02  0.33680503965E+02  0.82742909109E+01  0.45226792186E+02  0.00000000000E+00 0. -1.
         11    1    3    3    0    0  0.71263684679E+02 -0.57222883462E+02 -0.24474374312E+02  0.94614830464E+02  0.00000000000E+00 0.  1.
        -13    1    4    4    0    0 -0.35947959798E+02 -0.96694858767E+01 -0.20067907429E+03  0.20410253705E+03  0.00000000000E+00 0. -1.
         13    1    4    4    0    0 -0.44515122861E+01  0.37518992305E+02 -0.28155392450E+02  0.47119177298E+02  0.00000000000E+00 0.  1.
         21    1    1    2  502  501 -0.59892173152E+02 -0.43071269309E+01 -0.96595077869E+02  0.11373756115E+03  0.00000000000E+00 0. -1.
<scales pt_clust_5="13000.00000" pt_clust_6="13000.00000" pt_clust_7="13000.00000" pt_clust_8="13000.00000" pt_clust_9="60.04685"></scales>
<clustering>
<clus scale="   60.047">  2  9  1 -1</clus>
<clus scale="   91.320">  7  8 -1 -1</clus>
<clus scale="   93.170">  5  6 -1 -1</clus>
<clus scale="  127.561">  2  7  1 -1</clus>
<clus scale="   60.047">  2  5  1 -1</clus>
</clustering>
</event>
<event>
 9    1  0.2423659E-006  0.1498945E+03  0.7546771E-02  0.1201190E+00
         -1   -1    0    0    0  501 -0.00000000000E+00  0.00000000000E+00  0.14110792306E+03  0.14110792306E+03  0.00000000000E+00 0.  1.
          1   -1    0    0  502    0  0.00000000000E+00 -0.00000000000E+00 -0.33440420515E+03  0.33440420515E+03  0.00000000000E+00 0. -1.
         23    2    1    2    0    0  0.87420141254E+02 -0.97349270683E+02  0.30699673492E+02  0.16276674225E+03  0.91822550766E+02 0.  0.
         23    2    1    2    0    0 -0.65084912378E+01  0.10427714342E+03 -0.14044942570E+03  0.19623481484E+03  0.88690350539E+02 0.  0.
        -11    1    4    4    0    0 -0.96943181627E+01  0.83572378875E+02 -0.15094188009E+03  0.17280559447E+03  0.00000000000E+00 0. -1.
         11    1    4    4    0    0  0.31858269249E+01  0.20704764546E+02  0.10492454391E+02  0.23429220372E+02  0.00000000000E+00 0.  1.
        -11    1    3    3    0    0  0.11816960936E+02  0.16535130595E+02  0.14818658205E+02  0.25152410233E+02  0.00000000000E+00 0. -1.
         11    1    3    3    0    0  0.75603180318E+02 -0.11388440128E+03  0.15881015286E+02  0.13761433201E+03  0.00000000000E+00 0.  1.
         21    1    1    2  502  501 -0.80911650016E+02 -0.69278727377E+01 -0.83546529882E+02  0.11651057113E+03  0.00000000000E+00 0.  1.
<scales pt_clust_5="13000.00000" pt_clust_6="13000.00000" pt_clust_7="13000.00000" pt_clust_8="13000.00000" pt_clust_9="81.20770"></scales>
<clustering>
<clus scale="   81.208">  2  9  1 -1</clus>
<clus scale="   88.690">  5  6 -1 -1</clus>
<clus scale="   91.823">  7  8 -1 -1</clus>
<clus scale="  147.996">  2  5  1 -1</clus>
<clus scale="   81.208">  2  5  1 -1</clus>
</clustering>
</event>
<event>
 9    1  0.2423659E-006  0.9286345E+02  0.7546771E-02  0.1296563E+00
         -1   -1    0    0    0  501 -0.00000000000E+00  0.00000000000E+00  0.30745159445E+02  0.30745159445E+02  0.00000000000E+00 0.  1.
          1   -1    0    0  502    0  0.00000000000E+00 -0.00000000000E+00 -0.43100059030E+03  0.43100059030E+03  0.00000000000E+00 0. -1.
         23    2    1    2    0    0  0.42401274193E+00  0.70149562465E+01 -0.91756424645E+02  0.13072682732E+03  0.92848653841E+02 0.  0.
         23    2    1    2    0    0 -0.45605375170E+01  0.17778904375E+02 -0.25979115486E+03  0.27620741683E+03  0.91990244201E+02 0.  0.
        -11    1    3    3    0    0  0.41745968672E+02  0.22125699554E+02 -0.60469688004E+02  0.76738879640E+02  0.00000000000E+00 0.  1.
         11    1    3    3    0    0 -0.41321955930E+02 -0.15110743308E+02 -0.31286736641E+02  0.53987947682E+02  0.00000000000E+00 0. -1.
        -11    1    4    4    0    0  0.26335990521E+02 -0.26722699550E+02 -0.78692925489E+02  0.87179490650E+02  0.00000000000E+00 0.  1.
         11    1    4    4    0    0 -0.30896528038E+02  0.44501603925E+02 -0.18109822937E+03  0.18902792618E+03  0.00000000000E+00 0. -1.
         21    1    1    2  502  501  0.41365247750E+01 -0.24793860622E+02 -0.48707851348E+02  0.54811505587E+02  0.00000000000E+00 0.  1.
<scales pt_clust_5="13000.00000" pt_clust_6="13000.00000" pt_clust_7="13000.00000" pt_clust_8="13000.00000" pt_clust_9="25.13655"></scales>
<clustering>
<clus scale="   25.137">  2  9  1 -1</clus>
<clus scale="   91.990">  7  8 -1 -1</clus>
<clus scale="   92.005">  2  7  1 -1</clus>
<clus scale="   92.849">  5  6 -1 -1</clus>
<clus scale="   25.137">  2  5  1 -1</clus>
</clustering>
</event>
<event>
 9    1  0.2423659E-006  0.1321209E+03  0.7546771E-02  0.1224397E+00
          2   -1    0    0  502    0  0.00000000000E+00  0.00000000000E+00  0.16475365132E+03  0.16475365132E+03  0.00000000000E+00 0. -1.
         -2   -1    0    0    0  501 -0.00000000000E+00 -0.00000000000E+00 -0.20979903054E+03  0.20979903054E+03  0.00000000000E+00 0.  1.
         23    2    1    2    0    0  0.99052572684E+01 -0.65087714395E+02 -0.31849260882E+02  0.11800964699E+03  0.92614127852E+02 0.  0.
         23    2    1    2    0    0  0.18986988672E+02  0.13848319366E+03 -0.41708989133E+02  0.17267026185E+03  0.92397396556E+02 0.  0.
        -11    1    4    4    0    0 -0.34127831001E+02  0.47244631840E+02  0.22163273653E+01  0.58323890418E+02  0.00000000000E+00 0. -1.
         11    1    4    4    0    0  0.53114819672E+02  0.91238561817E+02 -0.43925316499E+02  0.11434637144E+03  0.00000000000E+00 0.  1.
        -11    1    3    3    0    0  0.48566559235E+02 -0.20778060436E+02 -0.26109992761E+02  0.58925123618E+02  0.00000000000E+00 0.  1.
         11    1    3    3    0    0 -0.38661301967E+02 -0.44309653959E+02 -0.57392681210E+01  0.59084523374E+02  0.00000000000E+00 0. -1.
         21    1    1    2  502  501 -0.28892245940E+02 -0.73395479261E+02  0.28512870799E+02  0.83872773012E+02  0.00000000000E+00 0. -1.
<scales pt_clust_5="13000.00000" pt_clust_6="13000.00000" pt_clust_7="13000.00000" pt_clust_8="13000.00000" pt_clust_9="78.87749"></scales>
<clustering>
<clus scale="   78.877">  1  9  2 -1</clus>
<clus scale="   92.397">  5  6 -1 -1</clus>
<clus scale="   92.614">  7  8 -1 -1</clus>
<clus scale="  131.969">  1  5  2 -1</clus>
<clus scale="   78.877">  1  5  2 -1</clus>
</clustering>
</event>
<event>
 9    1  0.2423659E-006  0.1230300E+03  0.7546771E-02  0.1240408E+00
          1   -1    0    0  502    0  0.00000000000E+00  0.00000000000E+00  0.43822022842E+03  0.43822022842E+03  0.00000000000E+00 0. -1.
         -1   -1    0    0    0  501 -0.00000000000E+00 -0.00000000000E+00 -0.54092494135E+02  0.54092494135E+02  0.00000000000E+00 0.  1.
         23    2    1    2    0    0  0.25487117998E+01 -0.85379201720E+02  0.98860885801E+02  0.16031771026E+03  0.92909576813E+02 0.  0.
         23    2    1    2    0    0 -0.49557358528E+02  0.65804732568E+02  0.20566717568E+03  0.23750119969E+03  0.85566571101E+02 0.  0.
        -13    1    4    4    0    0  0.16922710994E+02  0.18528634249E+02  0.10486613486E+03  0.10782668814E+03  0.00000000000E+00 0.  1.
         13    1    4    4    0    0 -0.66480069522E+02  0.47276098320E+02  0.10080104082E+03  0.12967451155E+03  0.00000000000E+00 0. -1.
        -13    1    3    3    0    0 -0.32791025526E+02 -0.51822392860E+02  0.92766670260E+02  0.11120461712E+03  0.00000000000E+00 0. -1.
         13    1    3    3    0    0  0.35339737326E+02 -0.33556808860E+02  0.60942155410E+01  0.49113093144E+02  0.00000000000E+00 0.  1.
         21    1    1    2  502  501  0.47008646728E+02  0.19574469152E+02  0.79599672806E+02  0.94493812605E+02  0.00000000000E+00 0.  1.
<scales pt_clust_5="13000.00000" pt_clust_6="13000.00000" pt_clust_7="13000.00000" pt_clust_8="13000.00000" pt_clust_9="50.92124"></scales>
<clustering>
<clus scale="   50.921">  1  9  2 -1</clus>
<clus scale="   85.567">  5  6 -1 -1</clus>
<clus scale="   92.910">  7  8 -1 -1</clus>
<clus scale="  117.583">  1  5  2 -1</clus>
<clus scale="   50.921">  1  5  2 -1</clus>
</clustering>
</event>
<event>
 9    1  0.2423659E-006  0.1359580E+03  0.7546771E-02  0.1231983E+00
         -1   -1    0    0    0  501 -0.00000000000E+00  0.00000000000E+00  0.15007651760E+03  0.15007651760E+03  0.00000000000E+00 0.  1.
          1   -1    0    0  502    0  0.00000000000E+00 -0.00000000000E+00 -0.56371341034E+03  0.56371341034E+03  0.00000000000E+00 0. -1.
         23    2    1    2    0    0 -0.47917020995E+02  0.13221251622E+02 -0.27295929842E+02  0.10703875369E+03  0.90782072074E+02 0.  0.
         23    2    1    2    0    0  0.48085007101E+02 -0.11768607537E+03  0.47346874433E+02  0.16065917939E+03  0.86066632097E+02 0.  0.
        -13    1    4    4    0    0 -0.31861923474E+00 -0.41444220555E+02  0.56297042458E+02  0.69907667141E+02  0.00000000000E+00 0.  1.
         13    1    4    4    0    0  0.48403626336E+02 -0.76241854817E+02 -0.89501680252E+01  0.90751512252E+02  0.00000000000E+00 0. -1.
        -13    1    3    3    0    0  0.21405556410E+02  0.14737879812E+01  0.13883685768E+02  0.25556342202E+02  0.00000000000E+00 0. -1.
         13    1    3    3    0    0 -0.69322577405E+02  0.11747463641E+02 -0.41179615610E+02  0.81482411488E+02  0.00000000000E+00 0.  1.
         21    1    1    2  502  501 -0.16798610622E+00  0.10446482375E+03 -0.43368783733E+03  0.44609199485E+03  0.00000000000E+00 0. -1.
<scales pt_clust_5="13000.00000" pt_clust_6="13000.00000" pt_clust_7="13000.00000" pt_clust_8="13000.00000" pt_clust_9="105.24788"></scales>
<clustering>
<clus scale="   86.067">  5  6 -1 -1</clus>
<clus scale="   90.782">  7  8 -1 -1</clus>
<clus scale="  103.500">  1  7  2 -1</clus>
<clus scale="  105.248">  2  9  1 -1</clus>
<clus scale="  105.248">  2  5  1 -1</clus>
</clustering>
</event>
<event>
 9    1  0.2423659E-006  0.1397910E+03  0.7546771E-02  0.1214882E+00
         -2   -1    0    0    0  501 -0.00000000000E+00  0.00000000000E+00  0.15005829113E+03  0.15005829113E+03  0.00000000000E+00 0.  1.
          2   -1    0    0  502    0  0.00000000000E+00 -0.00000000000E+00 -0.34072486624E+03  0.34072486624E+03  0.00000000000E+00 0. -1.
         23    2    1    2    0    0 -0.38112294780E+02 -0.79063826525E+02  0.76617727408E+01  0.12503616688E+03  0.88722627258E+02 0.  0.
         23    2    1    2    0    0  0.11579899850E+03  0.24786223593E+02 -0.22139500930E+03  0.26821057174E+03  0.94326007634E+02 0.  0.
        -11    1    4    4    0    0  0.23216606225E+02 -0.31898897250E+02 -0.86398022392E+02  0.94979833247E+02  0.00000000000E+00 0.  1.
         11    1    4    4    0    0  0.92582392273E+02  0.56685120844E+02 -0.13499698691E+03  0.17323073849E+03  0.00000000000E+00 0. -1.
        -13    1    3    3    0    0 -0.67134331233E+02 -0.57134368191E+02  0.91591898616E+01  0.88629821266E+02  0.00000000000E+00 0.  1.
         13    1    3    3    0    0  0.29022036453E+02 -0.21929458334E+02 -0.14974171208E+01  0.36406345611E+02  0.00000000000E+00 0. -1.
         21    1    1    2  502  501 -0.77686703718E+02  0.54277602931E+02  0.23066661446E+02  0.97536418761E+02  0.00000000000E+00 0.  1.
<scales pt_clust_5="13000.00000" pt_clust_6="13000.00000" pt_clust_7="13000.00000" pt_clust_8="13000.00000" pt_clust_9="94.76963"></scales>
<clustering>
<clus scale="   88.723">  7  8 -1 -1</clus>
<clus scale="   94.326">  5  6 -1 -1</clus>
<clus scale="   94.770">  1  9  2 -1</clus>
<clus scale="  136.073">  1  7  2 -1</clus>
<clus scale="  139.791">  2  5  1 -1</clus>
</clustering>
</event>
<event>
 9    1  0.2423659E-006  0.1017595E+03  0.7546771E-02  0.1277014E+00
         -2   -1    0    0    0  501 -0.00000000000E+00  0.00000000000E+00  0.74189721309E+02  0.74189721309E+02  0.00000000000E+00 0.  1.
          2   -1    0    0  502    0  0.00000000000E+00 -0.00000000000E+00 -0.24523275421E+03  0.24523275421E+03  0.00000000000E+00 0. -1.
         23    2    1    2    0    0  0.47601574931E+02 -0.16229000099E+02  0.83876754748E+00  0.10377812347E+03  0.90773922470E+02 0.  0.
         23    2    1    2    0    0 -0.31961285700E+02 -0.12196560407E+02 -0.12746845466E+03  0.16064274823E+03  0.91583872807E+02 0.  0.
        -13    1    4    4    0    0 -0.15915441052E+02 -0.48868835409E+02 -0.42401996626E+02  0.66628774985E+02  0.00000000000E+00 0. -1.
         13    1    4    4    0    0 -0.16045844647E+02  0.36672275002E+02 -0.85066458029E+02  0.94013973248E+02  0.00000000000E+00 0.  1.
        -13    1    3    3    0    0  0.79323385096E+01  0.35878583911E+02  0.88637920071E+01  0.37798962770E+02  0.00000000000E+00 0.  1.
         13    1    3    3    0    0  0.39669236422E+02 -0.52107584011E+02 -0.80250244596E+01  0.65979160704E+02  0.00000000000E+00 0. -1.
         21    1    1    2  502  501 -0.15640289231E+02  0.28425560507E+02 -0.44413345790E+02  0.55001603809E+02  0.00000000000E+00 0. -1.
<scales pt_clust_5="13000.00000" pt_clust_6="13000.00000" pt_clust_7="13000.00000" pt_clust_8="13000.00000" pt_clust_9="32.44428"></scales>
<clustering>
<clus scale="   32.444">  2  9  1 -1</clus>
<clus scale="   90.774">  7  8 -1 -1</clus>
<clus scale="   91.584">  5  6 -1 -1</clus>
<clus scale="  101.031">  1  7  2 -1</clus>
<clus scale="   32.444">  2  5  1 -1</clus>
</clustering>
</event>
<event>
 9    1  0.2423659E-006  0.9743546E+02  0.7546771E-02  0.1286370E+00
         -1   -1    0    0    0  501 -0.00000000000E+00  0.00000000000E+00  0.14500556691E+03  0.14500556691E+03  0.00000000000E+00 0.  1.
          1   -1    0    0  502    0  0.00000000000E+00 -0.00000000000E+00 -0.14371462225E+03  0.14371462225E+03  0.00000000000E+00 0. -1.
         23    2    1    2    0    0  0.49700177968E+02  0.93795959534E+01  0.44317258612E+02  0.11257614940E+03  0.90284469833E+02 0.  0.
         23    2    1    2    0    0  0.11116778567E+02 -0.39358070362E+02 -0.98016278875E+01  0.10063714674E+03  0.91428239219E+02 0.  0.
        -11    1    3    3    0    0  0.35215361058E+01  0.30081561461E+02  0.53179477311E+02  0.61199333032E+02  0.00000000000E+00 0.  1.
         11    1    3    3    0    0  0.46178641862E+02 -0.20701965508E+02 -0.88622186987E+01  0.51376816370E+02  0.00000000000E+00 0. -1.
        -13    1    4    4    0    0 -0.27430710463E+02 -0.10454535642E+01  0.24144636193E+02  0.36558177014E+02  0.00000000000E+00 0.  1.
         13    1    4    4    0    0  0.38547489030E+02 -0.38312616797E+02 -0.33946264081E+02  0.64078969728E+02  0.00000000000E+00 0. -1.
         21    1    1    2  502  501 -0.60816956534E+02  0.29978474408E+02 -0.33224686063E+02  0.75506893023E+02  0.00000000000E+00 0.  1.
<scales pt_clust_5="13000.00000" pt_clust_6="13000.00000" pt_clust_7="13000.00000" pt_clust_8="13000.00000" pt_clust_9="67.80421"></scales>
<clustering>
<clus scale="   67.804">  2  9  1 -1</clus>
<clus scale="   90.284">  5  6 -1 -1</clus>
<clus scale="   91.428">  7  8 -1 -1</clus>
<clus scale="   96.363">  1  5  2 -1</clus>
<clus scale="   67.804">  2  5  1 -1</clus>
</clustering>
</event>
<event>
 9    1  0.2423659E-006  0.9988944E+02  0.7546771E-02  0.1280792E+00
          1   -1    0    0  502    0  0.00000000000E+00  0.00000000000E+00  0.30465764487E+03  0.30465764487E+03  0.00000000000E+00 0. -1.
         -1   -1    0    0    0  501 -0.00000000000E+00 -0.00000000000E+00 -0.60939837691E+02  0.60939837691E+02  0.00000000000E+00 0.  1.
         23    2    1    2    0    0 -0.90460024953E+00 -0.29264532670E+02  0.42394985489E+02  0.10366693771E+03  0.89957034218E+02 0.  0.
         23    2    1    2    0    0 -0.30548267719E+02  0.68295931962E+02  0.14207821794E+03  0.18432477118E+03  0.90508951349E+02 0.  0.
        -11    1    3    3    0    0  0.37073746665E+02 -0.42816862061E+00 -0.38059174143E+01  0.37271048114E+02  0.00000000000E+00 0.  1.
         11    1    3    3    0    0 -0.37978346915E+02 -0.28836364049E+02  0.46200902903E+02  0.66395889595E+02  0.00000000000E+00 0. -1.
        -11    1    4    4    0    0  0.18082668431E+02 -0.94477156169E+01  0.80596213365E+01  0.21936265043E+02  0.00000000000E+00 0.  1.
         11    1    4    4    0    0 -0.48630936150E+02  0.77743647579E+02  0.13401859660E+03  0.16238850613E+03  0.00000000000E+00 0. -1.
         21    1    1    2  502  501  0.31452867969E+02 -0.39031399292E+02  0.59244603757E+02  0.77605773680E+02  0.00000000000E+00 0.  1.
<scales pt_clust_5="13000.00000" pt_clust_6="13000.00000" pt_clust_7="13000.00000" pt_clust_8="13000.00000" pt_clust_9="50.12717"></scales>
<clustering>
<clus scale="   50.127">  1  9  2 -1</clus>
<clus scale="   89.957">  5  6 -1 -1</clus>
<clus scale="   90.509">  7  8 -1 -1</clus>
<clus scale="   99.390">  2  5  1 -1</clus>
<clus scale="   50.127">  1  5  2 -1</clus>
</clustering>
</event>
<event>
 9    1  0.2423659E-006  0.1519346E+03  0.7546771E-02  0.1209667E+00
         -1   -1    0    0    0  501 -0.00000000000E+00  0.00000000000E+00  0.83381581952E+03  0.83381581952E+03  0.00000000000E+00 0.  1.
          1   -1    0    0  502    0  0.00000000000E+00 -0.00000000000E+00 -0.14168012521E+03  0.14168012521E+03  0.00000000000E+00 0. -1.
         23    2    1    2    0    0  0.99454256666E+02 -0.30407683119E+02 -0.10083042785E+02  0.13782239754E+03  0.89875297778E+02 0.  0.
         23    2    1    2    0    0 -0.29280432425E+02 -0.73666625108E+02 -0.58532567980E+01  0.11856175076E+03  0.87968816914E+02 0.  0.
        -13    1    3    3    0    0 -0.12276583469E+02 -0.22064099209E+02 -0.44522100160E+01  0.25639055162E+02  0.00000000000E+00 0.  1.
         13    1    3    3    0    0  0.11173084013E+03 -0.83435839095E+01 -0.56308327688E+01  0.11218334238E+03  0.00000000000E+00 0. -1.
        -13    1    4    4    0    0 -0.38263803411E+02 -0.47606367555E+01 -0.25646069696E+02  0.46308781075E+02  0.00000000000E+00 0.  1.
         13    1    4    4    0    0  0.89833709868E+01 -0.68905988353E+02  0.19792812898E+02  0.72252969680E+02  0.00000000000E+00 0. -1.
         21    1    1    2  502  501 -0.70173824241E+02  0.10407430823E+03  0.70807199389E+03  0.71911179643E+03  0.00000000000E+00 0.  1.
<scales pt_clust_5="13000.00000" pt_clust_6="13000.00000" pt_clust_7="13000.00000" pt_clust_8="13000.00000" pt_clust_9="122.50123"></scales>
<clustering>
<clus scale="   87.969">  7  8 -1 -1</clus>
<clus scale="   89.875">  5  6 -1 -1</clus>
<clus scale="  118.417">  2  7  1 -1</clus>
<clus scale="  122.501">  1  9  2 -1</clus>
<clus scale="  118.417">  2  5  1 -1</clus>
</clustering>
</event>
<event>
 9    1  0.2423659E-006  0.9557224E+02  0.7546771E-02  0.1292137E+00
         -2   -1    0    0    0  501 -0.00000000000E+00  0.00000000000E+00  0.21743322916E+03  0.21743322916E+03  0.00000000000E+00 0.  1.
          2   -1    0    0  502    0  0.00000000000E+00 -0.00000000000E+00 -0.26720187850E+03  0.26720187850E+03  0.00000000000E+00 0. -1.
         23    2    1    2    0    0  0.34600173441E+02 -0.56111273734E+02 -0.19196433484E+02  0.11001959494E+03  0.85966046609E+02 0.  0.
         23    2    1    2    0    0  0.27843228074E+02  0.20697750789E+02 -0.18255474628E+03  0.20653224302E+03  0.90142608006E+02 0.  0.
        -11    1    3    3    0    0  0.16804911592E+01  0.22300885196E+02  0.17603935559E+01  0.22433290363E+02  0.00000000000E+00 0.  1.
         11    1    3    3    0    0  0.32919682282E+02 -0.78412158930E+02 -0.20956827040E+02  0.87586304575E+02  0.00000000000E+00 0. -1.
        -13    1    4    4    0    0 -0.21444777428E+02  0.30414645459E+02 -0.12357753120E+03  0.12905942567E+03  0.00000000000E+00 0.  1.
         13    1    4    4    0    0  0.49288005502E+02 -0.97168946704E+01 -0.58977215082E+02  0.77472817344E+02  0.00000000000E+00 0. -1.
         21    1    1    2  502  501 -0.62443401515E+02  0.35413522945E+02  0.15198253043E+03  0.16808326971E+03  0.00000000000E+00 0.  1.
<scales pt_clust_5="13000.00000" pt_clust_6="13000.00000" pt_clust_7="13000.00000" pt_clust_8="13000.00000" pt_clust_9="71.78646"></scales>
<clustering>
<clus scale="   71.786">  1  9  2 -1</clus>
<clus scale="   85.966">  5  6 -1 -1</clus>
<clus scale="   90.143">  7  8 -1 -1</clus>
<clus scale="   91.643">  1  5  2 -1</clus>
<clus scale="   95.572">  2  5  1 -1</clus>
</clustering>
</event>
<event>
 9    1  0.2423659E-006  0.1614895E+03  0.7546771E-02  0.1201507E+00
          2   -1    0    0  502    0  0.00000000000E+00  0.00000000000E+00  0.29515778098E+03  0.29515778098E+03  0.00000000000E+00 0. -1.
         -2   -1    0    0    0  501 -0.00000000000E+00 -0.00000000000E+00 -0.19477246808E+03  0.19477246808E+03  0.00000000000E+00 0.  1.
         23    2    1    2    0    0  0.67846848268E+02 -0.21223239375E+02 -0.67161081371E+02  0.13537643137E+03  0.93608475101E+02 0.  0.
         23    2    1    2    0    0  0.89246936394E+02  0.45235731720E+02  0.12864084978E+02  0.13278440191E+03  0.86341911188E+02 0.  0.
        -11    1    4    4    0    0  0.32474751228E+02  0.64240564506E+02  0.11536443445E+02  0.72900954196E+02  0.00000000000E+00 0. -1.
         11    1    4    4    0    0  0.56772185166E+02 -0.19004832786E+02  0.13276415336E+01  0.59883447711E+02  0.00000000000E+00 0.  1.
        -13    1    3    3    0    0  0.64551747227E+02  0.22900784870E+02 -0.58961805870E+02  0.90376261093E+02  0.00000000000E+00 0.  1.
         13    1    3    3    0    0  0.32951010407E+01 -0.44124024244E+02 -0.81992755006E+01  0.45000170279E+02  0.00000000000E+00 0. -1.
         21    1    1    2  502  501 -0.15709378466E+03 -0.24012492345E+02  0.15468230929E+03  0.22176941578E+03  0.00000000000E+00 0. -1.
<scales pt_clust_5="13000.00000" pt_clust_6="13000.00000" pt_clust_7="13000.00000" pt_clust_8="13000.00000" pt_clust_9="136.46955"></scales>
<clustering>
<clus scale="   86.342">  5  6 -1 -1</clus>
<clus scale="   93.608">  7  8 -1 -1</clus>
<clus scale="  117.542">  2  7  1 -1</clus>
<clus scale="  136.470">  1  9  2 -1</clus>
<clus scale="  136.470">  1  5  2 -1</clus>
</clustering>
</event>
<event>
 9    1  0.2423659E-006  0.9660403E+02  0.7546771E-02  0.1288419E+00
          1   -1    0    0  502    0  0.00000000000E+00  0.00000000000E+00  0.17337740207E+03  0.17337740207E+03  0.00000000000E+00 0. -1.
         -1   -1    0    0    0  501 -0.00000000000E+00 -0.00000000000E+00 -0.17436086853E+03  0.17436086853E+03  0.00000000000E+00 0.  1.
         23    2    1    2    0    0  0.21471694009E+02  0.27764341555E+02 -0.11186814055E+03  0.14824879948E+03  0.90726696031E+02 0.  0.
         23    2    1    2    0    0 -0.71847018979E+01  0.26669894431E+02  0.10566198431E+03  0.14296973404E+03  0.92265848033E+02 0.  0.
        -11    1    3    3    0    0 -0.17254403399E+01 -0.30543412056E+02 -0.18496223533E+02  0.35748950326E+02  0.00000000000E+00 0.  1.
         11    1    3    3    0    0  0.23197134349E+02  0.58307753612E+02 -0.93371917013E+02  0.11249984916E+03  0.00000000000E+00 0. -1.
        -13    1    4    4    0    0  0.13797350748E+02  0.49414719310E+02  0.98720432941E+02  0.11125603468E+03  0.00000000000E+00 0. -1.
         13    1    4    4    0    0 -0.20982052646E+02 -0.22744824879E+02  0.69415513718E+01  0.31713699366E+02  0.00000000000E+00 0.  1.
         21    1    1    2  502  501 -0.14286992111E+02 -0.54434235986E+02  0.52226897785E+01  0.56519737079E+02  0.00000000000E+00 0.  1.
<scales pt_clust_5="13000.00000" pt_clust_6="13000.00000" pt_clust_7="13000.00000" pt_clust_8="13000.00000" pt_clust_9="56.27792"></scales>
<clustering>
<clus scale="   56.278">  1  9  2 -1</clus>
<clus scale="   90.727">  5  6 -1 -1</clus>
<clus scale="   92.266">  7  8 -1 -1</clus>
<clus scale="   95.135">  2  5  1 -1</clus>
<clus scale="   56.278">  1  5  2 -1</clus>
</clustering>
</event>
<event>
 9    1  0.2423659E-006  0.4062417E+03  0.7546771E-02  0.1062095E+00
          1   -1    0    0  502    0  0.00000000000E+00  0.00000000000E+00  0.76234191498E+03  0.76234191498E+03  0.00000000000E+00 0. -1.
         -1   -1    0    0    0  501 -0.00000000000E+00 -0.00000000000E+00 -0.45922652034E+03  0.45922652034E+03  0.00000000000E+00 0.  1.
         23    2    1    2    0    0 -0.19449117628E+03 -0.71105054813E+02 -0.15151361613E+03  0.27299859392E+03  0.93215395413E+02 0.  0.
         23    2    1    2    0    0 -0.51799938639E+02 -0.32255192655E+03  0.71389742641E+02  0.34649221443E+03  0.90760015113E+02 0.  0.
        -11    1    3    3    0    0 -0.57420500959E+02 -0.24306560299E+02  0.14120960366E+01  0.62369197680E+02  0.00000000000E+00 0. -1.
         11    1    3    3    0    0 -0.13707067532E+03 -0.46798494514E+02 -0.15292571216E+03  0.21062939624E+03  0.00000000000E+00 0.  1.
        -11    1    4    4    0    0 -0.24824366535E+02 -0.28204661250E+03  0.34101145927E+02  0.28518314983E+03  0.00000000000E+00 0.  1.
         11    1    4    4    0    0 -0.26975572105E+02 -0.40505314047E+02  0.37288596715E+02  0.61309064594E+02  0.00000000000E+00 0. -1.
         21    1    1    2  502  501  0.24629111492E+03  0.39365698136E+03  0.38323926813E+03  0.60207762697E+03  0.00000000000E+00 0. -1.
<scales pt_clust_5="13000.00000" pt_clust_6="13000.00000" pt_clust_7="13000.00000" pt_clust_8="13000.00000" pt_clust_9="395.97338"></scales>
<clustering>
<clus scale="   90.760">  7  8 -1 -1</clus>
<clus scale="   93.215">  5  6 -1 -1</clus>
<clus scale="  227.094">  2  5  1 -1</clus>
<clus scale="  395.973">  1  9  2 -1</clus>
<clus scale="  395.973">  1  5  2 -1</clus>
</clustering>
</event>
<event>
 9    1  0.2423659E-006  0.1417267E+03  0.7546771E-02  0.1233176E+00
          1   -1    0    0  502    0  0.00000000000E+00  0.00000000000E+00  0.24686732545E+03  0.24686732545E+03  0.00000000000E+00 0. -1.
         -1   -1    0    0    0  501 -0.00000000000E+00 -0.00000000000E+00 -0.12067563316E+03  0.12067563316E+03  0.00000000000E+00 0.  1.
         23    2    1    2    0    0  0.46164249982E+02 -0.86026114182E+02  0.39548206925E+02  0.13830775375E+03  0.89628922673E+02 0.  0.
         23    2    1    2    0    0 -0.37819739605E+01 -0.29488007827E+02  0.34440592448E+02  0.95575518593E+02  0.84051647297E+02 0.  0.
        -11    1    4    4    0    0  0.22398586117E+02 -0.34694655514E+01 -0.19713252108E+02  0.30039077215E+02  0.00000000000E+00 0. -1.
         11    1    4    4    0    0 -0.26180560078E+02 -0.26018542276E+02  0.54153844556E+02  0.65536441377E+02  0.00000000000E+00 0.  1.
        -11    1    3    3    0    0  0.64554515197E+01 -0.74063423304E+02 -0.85097985268E+01  0.74829674574E+02  0.00000000000E+00 0.  1.
         11    1    3    3    0    0  0.39708798462E+02 -0.11962690878E+02  0.48058005451E+02  0.63478079179E+02  0.00000000000E+00 0. -1.
         21    1    1    2  502  501 -0.42382276021E+02  0.11551412201E+03  0.52202892918E+02  0.13365968627E+03  0.00000000000E+00 0. -1.
<scales pt_clust_5="13000.00000" pt_clust_6="13000.00000" pt_clust_7="13000.00000" pt_clust_8="13000.00000" pt_clust_9="109.78670"></scales>
<clustering>
<clus scale="   84.052">  5  6 -1 -1</clus>
<clus scale="   89.155">  1  5  2 -1</clus>
<clus scale="   89.629">  7  8 -1 -1</clus>
<clus scale="  109.787">  1  9  2 -1</clus>
<clus scale="   89.155">  1  5  2 -1</clus>
</clustering>
</event>
<event>
 9    1  0.2423659E-006  0.1099856E+03  0.7546771E-02  0.1261732E+00
         -1   -1    0    0    0  501 -0.00000000000E+00  0.00000000000E+00  0.23381094392E+03  0.23381094392E+03  0.00000000000E+00 0.  1.
          1   -1    0    0  502    0  0.00000000000E+00 -0.00000000000E+00 -0.15997096966E+03  0.15997096966E+03  0.00000000000E+00 0. -1.
         23    2    1    2    0    0 -0.24082321286E+02  0.63135327030E+00  0.64650499401E+02  0.11405094342E+03  0.90816153944E+02 0.  0.
         23    2    1    2    0    0  0.54130952401E+02  0.42696481780E+02 -0.10325979557E+03  0.15553330536E+03  0.93674298129E+02 0.  0.
        -11    1    3    3    0    0 -0.31455952699E+02 -0.40280719788E+02  0.44886615543E+02  0.68020743908E+02  0.00000000000E+00 0.  1.
         11    1    3    3    0    0  0.73736314132E+01  0.40912073058E+02  0.19763883858E+02  0.46030199514E+02  0.00000000000E+00 0. -1.
        -13    1    4    4    0    0 -0.11592757506E+02  0.27920977861E+02  0.22901872927E+01  0.30318607968E+02  0.00000000000E+00 0.  1.
         13    1    4    4    0    0  0.65723709907E+02  0.14775503920E+02 -0.10554998286E+03  0.12521469739E+03  0.00000000000E+00 0. -1.
         21    1    1    2  502  501 -0.30048631116E+02 -0.43327835051E+02  0.11244927043E+03  0.12419766480E+03  0.00000000000E+00 0.  1.
<scales pt_clust_5="13000.00000" pt_clust_6="13000.00000" pt_clust_7="13000.00000" pt_clust_8="13000.00000" pt_clust_9="52.72781"></scales>
<clustering>
<clus scale="   52.728">  1  9  2 -1</clus>
<clus scale="   90.816">  5  6 -1 -1</clus>
<clus scale="   93.674">  7  8 -1 -1</clus>
<clus scale="  107.562">  1  5  2 -1</clus>
<clus scale="  109.986">  2  5  1 -1</clus>
</clustering>
</event>
<event>
 9    1  0.2423659E-006  0.1242786E+03  0.7546771E-02  0.1236332E+00
          1   -1    0    0  502    0  0.00000000000E+00  0.00000000000E+00  0.19813893986E+03  0.19813893986E+03  0.00000000000E+00 0. -1.
         -1   -1    0    0    0  501 -0.00000000000E+00 -0.00000000000E+00 -0.12248073789E+03  0.12248073789E+03  0.00000000000E+00 0.  1.
         23    2    1    2    0    0 -0.83790741169E+02  0.46513921051E+01 -0.43217984562E+02  0.13262367671E+03  0.93159656938E+02 0.  0.
         23    2    1    2    0    0  0.75576348450E+02  0.16745214718E+02  0.10838457490E+03  0.16278955452E+03  0.93600407712E+02 0.  0.
        -11    1    4    4    0    0 -0.74717719880E+01  0.24693684397E+02  0.62411328259E+02  0.67533542190E+02  0.00000000000E+00 0.  1.
         11    1    4    4    0    0  0.83048120438E+02 -0.79484696794E+01  0.45973246645E+02  0.95256012333E+02  0.00000000000E+00 0. -1.
        -13    1    3    3    0    0 -0.17655587155E+02 -0.20330402565E+02 -0.54731051692E+02  0.60996172384E+02  0.00000000000E+00 0.  1.
         13    1    3    3    0    0 -0.66135154014E+02  0.24981794670E+02  0.11513067130E+02  0.71627504327E+02  0.00000000000E+00 0. -1.
         21    1    1    2  502  501  0.82143927196E+01 -0.21396606823E+02  0.10491611626E+02  0.25206446513E+02  0.00000000000E+00 0.  1.
<scales pt_clust_5="13000.00000" pt_clust_6="13000.00000" pt_clust_7="13000.00000" pt_clust_8="13000.00000" pt_clust_9="22.91923"></scales>
<clustering>
<clus scale="   22.919">  1  9  2 -1</clus>
<clus scale="   93.160">  7  8 -1 -1</clus>
<clus scale="   93.600">  5  6 -1 -1</clus>
<clus scale="  123.947">  2  7  1 -1</clus>
<clus scale="   22.919">  1  5  2 -1</clus>
</clustering>
</event>
<event>
 9    1  0.2423659E-006  0.9324953E+02  0.7546771E-02  0.1300334E+00
         -1   -1    0    0    0  501 -0.00000000000E+00  0.00000000000E+00  0.12810441204E+03  0.12810441204E+03  0.00000000000E+00 0.  1.
          1   -1    0    0  502    0  0.00000000000E+00 -0.00000000000E+00 -0.11820197593E+03  0.11820197593E+03  0.00000000000E+00 0. -1.
         23    2    1    2    0    0 -0.16422600727E+02  0.14848628309E+01  0.20254282495E+02  0.88181360001E+02  0.84224756812E+02 0.  0.
         23    2    1    2    0    0 -0.21214647140E+02 -0.73541278927E+01 -0.45997571591E+02  0.10595579925E+03  0.92772357698E+02 0.  0.
        -11    1    4    4    0    0  0.18445154396E+02 -0.39458185021E+02 -0.14104748971E+02  0.45783359743E+02  0.00000000000E+00 0. -1.
         11    1    4    4    0    0 -0.39659801536E+02  0.32104057128E+02 -0.31892822620E+02  0.60172439510E+02  0.00000000000E+00 0.  1.
        -11    1    3    3    0    0 -0.21380303437E+01  0.28806587089E+02  0.41626707217E+02  0.50667281230E+02  0.00000000000E+00 0.  1.
         11    1    3    3    0    0 -0.14284570384E+02 -0.27321724259E+02 -0.21372424723E+02  0.37514078771E+02  0.00000000000E+00 0. -1.
         21    1    1    2  502  501  0.37637247867E+02  0.58692650618E+01  0.35645725204E+02  0.52169228715E+02  0.00000000000E+00 0.  1.
<scales pt_clust_5="13000.00000" pt_clust_6="13000.00000" pt_clust_7="13000.00000" pt_clust_8="13000.00000" pt_clust_9="38.09213"></scales>
<clustering>
<clus scale="   38.092">  1  9  2 -1</clus>
<clus scale="   84.225">  7  8 -1 -1</clus>
<clus scale="   84.750">  1  7  2 -1</clus>
<clus scale="   92.772">  5  6 -1 -1</clus>
<clus scale="   93.250">  2  5  1 -1</clus>
</clustering>
</event>
<event>
 9    1  0.2423659E-006  0.1229688E+03  0.7546771E-02  0.1238879E+00
          1   -1    0    0  502    0  0.00000000000E+00  0.00000000000E+00  0.25878978854E+03  0.25878978854E+03  0.00000000000E+00 0. -1.
         -1   -1    0    0    0  501 -0.00000000000E+00 -0.00000000000E+00 -0.15076129999E+03  0.15076129999E+03  0.00000000000E+00 0.  1.
         23    2    1    2    0    0 -0.17156639272E+02 -0.10451230311E+03 -0.71217113184E+02  0.15680791375E+03  0.91102540208E+02 0.  0.
         23    2    1    2    0    0  0.22592287415E+02  0.27930814315E+02  0.68426353074E+02  0.11792783230E+03  0.89074496893E+02 0.  0.
        -11    1    3    3    0    0 -0.54732707844E+02 -0.56819238905E+02 -0.37410207050E+02  0.87313336949E+02  0.00000000000E+00 0.  1.
         11    1    3    3    0    0  0.37576068572E+02 -0.47693064202E+02 -0.33806906134E+02  0.69494576800E+02  0.00000000000E+00 0. -1.
        -13    1    4    4    0    0  0.56940091778E+02  0.22687901810E+02  0.43008060714E+02  0.74877287789E+02  0.00000000000E+00 0. -1.
         13    1    4    4    0    0 -0.34347804363E+02  0.52429125047E+01  0.25418292359E+02  0.43050544510E+02  0.00000000000E+00 0.  1.
         21    1    1    2  502  501 -0.54356481425E+01  0.76581488792E+02  0.11081924865E+03  0.13481534248E+03  0.00000000000E+00 0.  1.
<scales pt_clust_5="13000.00000" pt_clust_6="13000.00000" pt_clust_7="13000.00000" pt_clust_8="13000.00000" pt_clust_9="76.77415"></scales>
<clustering>
<clus scale="   76.774">  1  9  2 -1</clus>
<clus scale="   89.074">  7  8 -1 -1</clus>
<clus scale="   91.103">  5  6 -1 -1</clus>
<clus scale="  121.474">  1  7  2 -1</clus>
<clus scale="   76.774">  1  5  2 -1</clus>
</clustering>
</event>
<event>
 9    1  0.2423659E-006  0.1537490E+03  0.7546771E-02  0.1212111E+00
         -2   -1    0    0    0  501 -0.00000000000E+00  0.00000000000E+00  0.81981648613E+02  0.81981648613E+02  0.00000000000E+00 0.  1.
          2   -1    0    0  502    0  0.00000000000E+00 -0.00000000000E+00 -0.75046430696E+03  0.75046430696E+03  0.00000000000E+00 0. -1.
         23    2    1    2    0    0  0.90145090847E+01  0.51022570869E+02 -0.19367955502E+02  0.11018672420E+03  0.95296549656E+02 0.  0.
         23    2    1    2    0    0  0.12176596727E+03 -0.13481775022E+02 -0.48927619829E+03  0.51235165199E+03  0.90023930352E+02 0.  0.
        -11    1    3    3    0    0 -0.36560454366E+02 -0.42602357132E+01 -0.56632324323E+01  0.37240953711E+02  0.00000000000E+00 0. -1.
         11    1    3    3    0    0  0.45574963450E+02  0.55282806582E+02 -0.13704723070E+02  0.72945770484E+02  0.00000000000E+00 0.  1.
        -11    1    4    4    0    0 -0.86281886641E+01 -0.19672221642E+02 -0.70919114669E+02  0.74101030825E+02  0.00000000000E+00 0.  1.
         11    1    4    4    0    0  0.13039415594E+03  0.61904466202E+01 -0.41835708362E+03  0.43825062116E+03  0.00000000000E+00 0. -1.
         21    1    1    2  502  501 -0.13078047636E+03 -0.37540795847E+02 -0.15983850456E+03  0.20990757940E+03  0.00000000000E+00 0.  1.
<scales pt_clust_5="13000.00000" pt_clust_6="13000.00000" pt_clust_7="13000.00000" pt_clust_8="13000.00000" pt_clust_9="124.63727"></scales>
<clustering>
<clus scale="   90.024">  7  8 -1 -1</clus>
<clus scale="   95.297">  5  6 -1 -1</clus>
<clus scale="  108.471">  1  5  2 -1</clus>
<clus scale="  124.637">  1  9  2 -1</clus>
<clus scale="  153.749">  2  5  1 -1</clus>
</clustering>
</event>
<event>
 9    1  0.2423659E-006  0.1068103E+03  0.7546771E-02  0.1267687E+00
         -1   -1    0    0    0  501 -0.00000000000E+00  0.00000000000E+00  0.66356900083E+02  0.66356900083E+02  0.00000000000E+00 0.  1.
          1   -1    0    0  502    0  0.00000000000E+00 -0.00000000000E+00 -0.41434054237E+03  0.41434054237E+03  0.00000000000E+00 0. -1.
         23    2    1    2    0    0  0.18867782443E+02  0.17626692443E+02 -0.16116745343E+02  0.95564239117E+02  0.90587420853E+02 0.  0.
         23    2    1    2    0    0 -0.59542382898E+02  0.15192824572E+02 -0.30814956859E+03  0.32773934057E+03  0.93170818665E+02 0.  0.
        -11    1    4    4    0    0 -0.63836200482E+02  0.46641507937E+02 -0.23677244982E+03  0.24962308336E+03  0.00000000000E+00 0. -1.
         11    1    4    4    0    0  0.42938175837E+01 -0.31448683365E+02 -0.71377118779E+02  0.78116257207E+02  0.00000000000E+00 0.  1.
        -11    1    3    3    0    0  0.37374223808E+02  0.43787408506E+02  0.40344436553E+01  0.57710020660E+02  0.00000000000E+00 0.  1.
         11    1    3    3    0    0 -0.18506441365E+02 -0.26160716064E+02 -0.20151188999E+02  0.37854218457E+02  0.00000000000E+00 0. -1.
         21    1    1    2  502  501  0.40674600455E+02 -0.32819517015E+02 -0.23717328345E+02  0.57393862765E+02  0.00000000000E+00 0.  1.
<scales pt_clust_5="13000.00000" pt_clust_6="13000.00000" pt_clust_7="13000.00000" pt_clust_8="13000.00000" pt_clust_9="52.26417"></scales>
<clustering>
<clus scale="   52.264">  1  9  2 -1</clus>
<clus scale="   90.587">  7  8 -1 -1</clus>
<clus scale="   93.171">  5  6 -1 -1</clus>
<clus scale="  104.564">  1  7  2 -1</clus>
<clus scale="  106.810">  2  5  1 -1</clus>
</clustering>
</event>
<event>
 9    1  0.2423659E-006  0.9593426E+02  0.7546771E-02  0.1290539E+00
         -3   -1    0    0    0  501 -0.00000000000E+00  0.00000000000E+00  0.22534500402E+03  0.22534500402E+03  0.00000000000E+00 0.  1.
          3   -1    0    0  502    0  0.00000000000E+00 -0.00000000000E+00 -0.13776916879E+03  0.13776916879E+03  0.00000000000E+00 0. -1.
         23    2    1    2    0    0 -0.20855796170E+02  0.42905429907E+02  0.91842990210E+02  0.13693388653E+03  0.89665569092E+02 0.  0.
         23    2    1    2    0    0  0.31462714972E+02  0.48854473769E+02  0.48940347181E+02  0.11958091980E+03  0.92345962320E+02 0.  0.
        -11    1    4    4    0    0 -0.31471440244E+02  0.24632796029E+02  0.82081245283E+01  0.40799503667E+02  0.00000000000E+00 0. -1.
         11    1    4    4    0    0  0.62934155216E+02  0.24221677740E+02  0.40732222652E+02  0.78781416130E+02  0.00000000000E+00 0.  1.
        -13    1    3    3    0    0  0.26616976437E+02  0.31126772343E+02  0.74542018453E+02  0.85052054097E+02  0.00000000000E+00 0.  1.
         13    1    3    3    0    0 -0.47472772607E+02  0.11778657563E+02  0.17300971757E+02  0.51881832434E+02  0.00000000000E+00 0. -1.
         21    1    1    2  502  501 -0.10606918802E+02 -0.91759903675E+02 -0.53207502155E+02  0.10659936648E+03  0.00000000000E+00 0. -1.
<scales pt_clust_5="13000.00000" pt_clust_6="13000.00000" pt_clust_7="13000.00000" pt_clust_8="13000.00000" pt_clust_9="92.37092"></scales>
<clustering>
<clus scale="   89.666">  7  8 -1 -1</clus>
<clus scale="   92.346">  5  6 -1 -1</clus>
<clus scale="   92.371">  2  9  1 -1</clus>
<clus scale="   93.357">  1  7  2 -1</clus>
<clus scale="   92.371">  2  5  1 -1</clus>
</clustering>
</event>
<event>
 9    1  0.2423659E-006  0.2464832E+03  0.7546771E-02  0.1115634E+00
          1   -1    0    0  502    0  0.00000000000E+00  0.00000000000E+00  0.10298443765E+04  0.10298443765E+04  0.00000000000E+00 0. -1.
         -1   -1    0    0    0  501 -0.00000000000E+00 -0.00000000000E+00 -0.83997445378E+02  0.83997445378E+02  0.00000000000E+00 0.  1.
         23    2    1    2    0    0  0.21767281314E+03  0.14966004225E+03  0.46286711975E+03  0.54084359744E+03  0.92120814792E+02 0.  0.
         23    2    1    2    0    0 -0.16173940181E+03 -0.12578223096E+03  0.45258007106E+03  0.50500675010E+03  0.90676861438E+02 0.  0.
        -11    1    3    3    0    0  0.15588093889E+03  0.83789323016E+02  0.22401504711E+03  0.28548600507E+03  0.00000000000E+00 0.  1.
         11    1    3    3    0    0  0.61791874259E+02  0.65870719230E+02  0.23885207264E+03  0.25535759237E+03  0.00000000000E+00 0. -1.
        -13    1    4    4    0    0 -0.43334910607E+02  0.78949641031E+01  0.11412586398E+03  0.12233134416E+03  0.00000000000E+00 0.  1.
         13    1    4    4    0    0 -0.11840449121E+03 -0.13367719507E+03  0.33845420708E+03  0.38267540594E+03  0.00000000000E+00 0. -1.
         21    1    1    2  502  501 -0.55933411332E+02 -0.23877811285E+02  0.30399740352E+02  0.67991474381E+02  0.00000000000E+00 0. -1.
<scales pt_clust_5="13000.00000" pt_clust_6="13000.00000" pt_clust_7="13000.00000" pt_clust_8="13000.00000" pt_clust_9="60.81691"></scales>
<clustering>
<clus scale="   60.817">  2  9  1 -1</clus>
<clus scale="   90.677">  7  8 -1 -1</clus>
<clus scale="   92.121">  5  6 -1 -1</clus>
<clus scale="  245.947">  1  7  2 -1</clus>
<clus scale="  245.947">  1  5  2 -1</clus>
</clustering>
</event>
<event>
 9    1  0.2423659E-006  0.9597698E+02  0.7546771E-02  0.1288998E+00
         -1   -1    0    0    0  501 -0.00000000000E+00  0.00000000000E+00  0.59778258811E+02  0.59778258811E+02  0.00000000000E+00 0.  1.
          1   -1    0    0  502    0  0.00000000000E+00 -0.00000000000E+00 -0.55758536924E+03  0.55758536924E+03  0.00000000000E+00 0. -1.
         23    2    1    2    0    0  0.17436240473E+01  0.34120842307E+01 -0.44208953532E+02  0.10169023950E+03  0.91497490098E+02 0.  0.
         23    2    1    2    0    0 -0.82564822058E+02 -0.22079204191E+01 -0.11854838618E+03  0.17101143109E+03  0.91484233312E+02 0.  0.
        -13    1    3    3    0    0 -0.18609913271E+02 -0.36700834573E+02 -0.39758227717E+01  0.41341109045E+02  0.00000000000E+00 0.  1.
         13    1    3    3    0    0  0.20353537318E+02  0.40112918804E+02 -0.40233130760E+02  0.60349130459E+02  0.00000000000E+00 0. -1.
        -13    1    4    4    0    0 -0.13572475494E+02 -0.41246059461E+02 -0.34325020831E+02  0.55350307742E+02  0.00000000000E+00 0.  1.
         13    1    4    4    0    0 -0.68992346564E+02  0.39038139042E+02 -0.84223365347E+02  0.11566112335E+03  0.00000000000E+00 0. -1.
         21    1    1    2  502  501  0.80821198011E+02 -0.12041638117E+01 -0.33504977071E+03  0.34466195745E+03  0.00000000000E+00 0. -1.
<scales pt_clust_5="13000.00000" pt_clust_6="13000.00000" pt_clust_7="13000.00000" pt_clust_8="13000.00000" pt_clust_9="80.83017"></scales>
<clustering>
<clus scale="   80.830">  2  9  1 -1</clus>
<clus scale="   91.484">  7  8 -1 -1</clus>
<clus scale="   91.497">  5  6 -1 -1</clus>
<clus scale="   95.964">  2  7  1 -1</clus>
<clus scale="   80.830">  2  5  1 -1</clus>
</clustering>
</event>
<event>
 9    1  0.2423659E-006  0.2106506E+03  0.7546771E-02  0.1172291E+00
          2   -1    0    0  502    0  0.00000000000E+00  0.00000000000E+00  0.41917493666E+03  0.41917493666E+03  0.00000000000E+00 0. -1.
         -2   -1    0    0    0  501 -0.00000000000E+00 -0.00000000000E+00 -0.10070613447E+04  0.10070613447E+04  0.00000000000E+00 0.  1.
         23    2    1    2    0    0  0.18435945419E+03  0.34428607898E+02 -0.95026483531E+03  0.97362090265E+03  0.98796090351E+02 0.  0.
         23    2    1    2    0    0 -0.25482141663E+02 -0.91727693206E+01  0.19903548560E+03  0.22335401172E+03  0.97664787831E+02 0.  0.
        -11    1    4    4    0    0 -0.19658236104E+02 -0.35951347969E+02  0.19019516160E+03  0.19455884756E+03  0.00000000000E+00 0. -1.
         11    1    4    4    0    0 -0.58239055592E+01  0.26778578649E+02  0.88403239960E+01  0.28795164156E+02  0.00000000000E+00 0.  1.
        -13    1    3    3    0    0  0.33155270393E+02  0.26834855360E+02 -0.83819463372E+02  0.94048305976E+02  0.00000000000E+00 0. -1.
         13    1    3    3    0    0  0.15120418380E+03  0.75937525375E+01 -0.86644537193E+03  0.87957259668E+03  0.00000000000E+00 0.  1.
         21    1    1    2  502  501 -0.15887731253E+03 -0.25255838577E+02  0.16334294164E+03  0.22926136701E+03  0.00000000000E+00 0. -1.
<scales pt_clust_5="13000.00000" pt_clust_6="13000.00000" pt_clust_7="13000.00000" pt_clust_8="13000.00000" pt_clust_9="186.04574"></scales>
<clustering>
<clus scale="   97.665">  5  6 -1 -1</clus>
<clus scale="   98.796">  7  8 -1 -1</clus>
<clus scale="  101.350">  1  5  2 -1</clus>
<clus scale="  186.046">  1  9  2 -1</clus>
<clus scale="  101.350">  1  5  2 -1</clus>
</clustering>
</event>
<event>
 9    1  0.2423659E-006  0.1022216E+03  0.7546771E-02  0.1281919E+00
         -1   -1    0    0    0  501 -0.00000000000E+00  0.00000000000E+00  0.11054826374E+03  0.11054826374E+03  0.00000000000E+00 0.  1.
          1   -1    0    0  502    0  0.00000000000E+00 -0.00000000000E+00 -0.23680096088E+03  0.23680096088E+03  0.00000000000E+00 0. -1.
         23    2    1    2    0    0  0.43688475315E+01  0.35095399540E+02  0.44178550844E+02  0.11570938754E+03  0.10092642921E+03 0.  0.
         23    2    1    2    0    0 -0.17916071588E+02  0.40266163188E+01 -0.16677769603E+03  0.19007774080E+03  0.89317122639E+02 0.  0.
        -11    1    4    4    0    0  0.51920211128E+01 -0.30746889307E+02 -0.18998832288E+02  0.36514160453E+02  0.00000000000E+00 0.  1.
         11    1    4    4    0    0 -0.23108092701E+02  0.34773505626E+02 -0.14777886374E+03  0.15356358035E+03  0.00000000000E+00 0. -1.
        -11    1    3    3    0    0  0.32399361185E+02 -0.24528160238E+02  0.21889865626E+02  0.46157507157E+02  0.00000000000E+00 0.  1.
         11    1    3    3    0    0 -0.28030513654E+02  0.59623559778E+02  0.22288685218E+02  0.69551880385E+02  0.00000000000E+00 0. -1.
         21    1    1    2  502  501  0.13547224057E+02 -0.39122015859E+02 -0.36535519614E+01  0.41562096271E+02  0.00000000000E+00 0.  1.
<scales pt_clust_5="13000.00000" pt_clust_6="13000.00000" pt_clust_7="13000.00000" pt_clust_8="13000.00000" pt_clust_9="41.40120"></scales>
<clustering>
<clus scale="   41.401">  1  9  2 -1</clus>
<clus scale="   89.317">  5  6 -1 -1</clus>
<clus scale="   90.778">  2  5  1 -1</clus>
<clus scale="  100.926">  7  8 -1 -1</clus>
<clus scale="   90.778">  2  5  1 -1</clus>
</clustering>
</event>
<event>
 9    1  0.2423659E-006  0.1130703E+03  0.7546771E-02  0.1259400E+00
         -1   -1    0    0    0  501 -0.00000000000E+00  0.00000000000E+00  0.24110907924E+03  0.24110907924E+03  0.00000000000E+00 0.  1.
          1   -1    0    0  502    0  0.00000000000E+00 -0.00000000000E+00 -0.24099941029E+03  0.24099941029E+03  0.00000000000E+00 0. -1.
         23    2    1    2    0    0 -0.45017382068E+02  0.78704445431E+01  0.18859325395E+03  0.21942499348E+03  0.10242755364E+03 0.  0.
         23    2    1    2    0    0  0.70794805905E+02 -0.38672371174E+02 -0.18579623347E+03  0.22242860663E+03  0.91906408046E+02 0.  0.
        -11    1    3    3    0    0  0.60874768411E+01  0.37605363157E+02  0.13270819022E+03  0.13806768074E+03  0.00000000000E+00 0.  1.
         11    1    3    3    0    0 -0.51104858909E+02 -0.29734918614E+02  0.55885063728E+02  0.81357312744E+02  0.00000000000E+00 0. -1.
        -13    1    4    4    0    0  0.43623080006E+02 -0.55329977911E+02 -0.17520816904E+03  0.18884459765E+03  0.00000000000E+00 0. -1.
         13    1    4    4    0    0  0.27171725899E+02  0.16657606737E+02 -0.10588064433E+02  0.33584008977E+02  0.00000000000E+00 0.  1.
         21    1    1    2  502  501 -0.25777423838E+02  0.30801926631E+02 -0.26873515230E+01  0.40254889418E+02  0.00000000000E+00 0.  1.
<scales pt_clust_5="13000.00000" pt_clust_6="13000.00000" pt_clust_7="13000.00000" pt_clust_8="13000.00000" pt_clust_9="40.16509"></scales>
<clustering>
<clus scale="   40.165">  2  9  1 -1</clus>
<clus scale="   91.906">  7  8 -1 -1</clus>
<clus scale="  102.428">  5  6 -1 -1</clus>
<clus scale="  103.635">  2  7  1 -1</clus>
<clus scale="   40.165">  2  5  1 -1</clus>
</clustering>
</event>
<event>
 9    1  0.2423659E-006  0.1220787E+03  0.7546771E-02  0.1241201E+00
          1   -1    0    0  502    0  0.00000000000E+00  0.00000000000E+00  0.12020279069E+04  0.12020279069E+04  0.00000000000E+00 0. -1.
         -1   -1    0    0    0  501 -0.00000000000E+00 -0.00000000000E+00 -0.16796252428E+03  0.16796252428E+03  0.00000000000E+00 0.  1.
         23    2    1    2    0    0 -0.20583555955E+02 -0.74942434794E+02 -0.12422902836E+03  0.17360055865E+03  0.93081959407E+02 0.  0.
         23    2    1    2    0    0 -0.79332679067E+02  0.13714416330E+03  0.66988238751E+03  0.69399698472E+03  0.88245148387E+02 0.  0.
        -11    1    4    4    0    0 -0.31886621084E+02  0.99222382920E+02  0.54795835345E+03  0.55778149395E+03  0.00000000000E+00 0. -1.
         11    1    4    4    0    0 -0.47446057982E+02  0.37921780378E+02  0.12192403405E+03  0.13621549076E+03  0.00000000000E+00 0.  1.
        -11    1    3    3    0    0  0.36009703389E+02 -0.43654691692E+02 -0.57186951380E+02  0.80453578249E+02  0.00000000000E+00 0. -1.
         11    1    3    3    0    0 -0.56593259345E+02 -0.31287743102E+02 -0.67042076976E+02  0.93146980396E+02  0.00000000000E+00 0.  1.
         21    1    1    2  502  501  0.99916235022E+02 -0.62201728505E+02  0.48841202350E+03  0.50239288784E+03  0.00000000000E+00 0. -1.
<scales pt_clust_5="13000.00000" pt_clust_6="13000.00000" pt_clust_7="13000.00000" pt_clust_8="13000.00000" pt_clust_9="117.69583"></scales>
<clustering>
<clus scale="   88.245">  5  6 -1 -1</clus>
<clus scale="   93.082">  7  8 -1 -1</clus>
<clus scale="  117.696">  1  9  2 -1</clus>
<clus scale="  118.432">  1  5  2 -1</clus>
<clus scale="  117.696">  1  5  2 -1</clus>
</clustering>
</event>
<event>
 9    1  0.2423659E-006  0.2493193E+03  0.7546771E-02  0.1120272E+00
         -2   -1    0    0    0  501 -0.00000000000E+00  0.00000000000E+00  0.30233046980E+03  0.30233046980E+03  0.00000000000E+00 0.  1.
          2   -1    0    0  502    0  0.00000000000E+00 -0.00000000000E+00 -0.47927436653E+03  0.47927436653E+03  0.00000000000E+00 0. -1.
         23    2    1    2    0    0 -0.16344948777E+03  0.98825351615E+02 -0.44435412869E+01  0.21157634246E+03  0.90898946392E+02 0.  0.
         23    2    1    2    0    0  0.28998120756E+02 -0.28442345063E+03 -0.32803079141E+02  0.30162738833E+03  0.90362874655E+02 0.  0.
        -13    1    3    3    0    0 -0.44265180532E+02 -0.33446744602E-01 -0.31570420509E+02  0.54370017265E+02  0.00000000000E+00 0. -1.
         13    1    3    3    0    0 -0.11918430724E+03  0.98858798360E+02  0.27126879222E+02  0.15720632519E+03  0.00000000000E+00 0.  1.
        -13    1    4    4    0    0  0.45909057384E+02 -0.21781880489E+03 -0.55209784448E+02  0.22934862897E+03  0.00000000000E+00 0. -1.
         13    1    4    4    0    0 -0.16910936629E+02 -0.66604645741E+02  0.22406705306E+02  0.72278759360E+02  0.00000000000E+00 0.  1.
         21    1    1    2  502  501  0.13445136701E+03  0.18559809901E+03 -0.13969727630E+03  0.26840110554E+03  0.00000000000E+00 0.  1.
<scales pt_clust_5="13000.00000" pt_clust_6="13000.00000" pt_clust_7="13000.00000" pt_clust_8="13000.00000" pt_clust_9="232.36757"></scales>
<clustering>
<clus scale="   90.363">  7  8 -1 -1</clus>
<clus scale="   90.899">  5  6 -1 -1</clus>
<clus scale="  211.530">  1  5  2 -1</clus>
<clus scale="  232.368">  2  9  1 -1</clus>
<clus scale="  232.368">  2  5  1 -1</clus>
</clustering>
</event>
<event>
 9    1  0.2423659E-006  0.1141599E+03  0.7546771E-02  0.1253129E+00
          2   -1    0    0  502    0  0.00000000000E+00  0.00000000000E+00  0.37947225293E+03  0.37947225293E+03  0.00000000000E+00 0. -1.
         -2   -1    0    0    0  501 -0.00000000000E+00 -0.00000000000E+00 -0.57338361931E+02  0.57338361931E+02  0.00000000000E+00 0.  1.
         23    2    1    2    0    0  0.72507373404E+02 -0.22644107300E+02  0.57061065879E+02  0.13165619406E+03  0.91144464455E+02 0.  0.
         23    2    1    2    0    0 -0.49485632463E+02  0.30626900002E+02  0.13520424498E+03  0.17301974087E+03  0.90932986560E+02 0.  0.
        -11    1    3    3    0    0 -0.67476915688E+01 -0.33070256247E+02  0.35234935222E+02  0.48792149470E+02  0.00000000000E+00 0. -1.
         11    1    3    3    0    0  0.79255064973E+02  0.10426148948E+02  0.21826130657E+02  0.82864044587E+02  0.00000000000E+00 0.  1.
        -13    1    4    4    0    0 -0.22048592229E+02 -0.29783407071E+02  0.26101627287E+02  0.45326445956E+02  0.00000000000E+00 0. -1.
         13    1    4    4    0    0 -0.27437040234E+02  0.60410307073E+02  0.10910261770E+03  0.12769329491E+03  0.00000000000E+00 0.  1.
         21    1    1    2  502  501 -0.23021740942E+02 -0.79827927022E+01  0.12986858013E+03  0.13213467993E+03  0.00000000000E+00 0. -1.
<scales pt_clust_5="13000.00000" pt_clust_6="13000.00000" pt_clust_7="13000.00000" pt_clust_8="13000.00000" pt_clust_9="24.36648"></scales>
<clustering>
<clus scale="   24.366">  1  9  2 -1</clus>
<clus scale="   90.933">  7  8 -1 -1</clus>
<clus scale="   91.144">  5  6 -1 -1</clus>
<clus scale="  113.991">  1  7  2 -1</clus>
<clus scale="   24.366">  1  5  2 -1</clus>
</clustering>
</event>
<event>
 9    1  0.2423659E-006  0.1109038E+03  0.7546771E-02  0.1260701E+00
         -1   -1    0    0    0  501 -0.00000000000E+00  0.00000000000E+00  0.13279877268E+03  0.13279877268E+03  0.00000000000E+00 0.  1.
          1   -1    0    0  502    0  0.00000000000E+00 -0.00000000000E+00 -0.26898004049E+03  0.26898004049E+03  0.00000000000E+00 0. -1.
         23    2    1    2    0    0 -0.58986180319E+02 -0.30935263093E+02  0.48899744206E+02  0.12642945453E+03  0.95691493972E+02 0.  0.
         23    2    1    2    0    0  0.43176996346E+02 -0.44829079565E+02 -0.15919238267E+03  0.19373816427E+03  0.91205055809E+02 0.  0.
        -11    1    3    3    0    0  0.21646639863E+02  0.11817383456E+02  0.50409301420E+01  0.25172178010E+02  0.00000000000E+00 0. -1.
         11    1    3    3    0    0 -0.80632820182E+02 -0.42752646549E+02  0.43858814064E+02  0.10125727652E+03  0.00000000000E+00 0.  1.
        -11    1    4    4    0    0 -0.92264090449E+01 -0.43617306122E+02 -0.12080104616E+03  0.12876524675E+03  0.00000000000E+00 0.  1.
         11    1    4    4    0    0  0.52403405391E+02 -0.12117734428E+01 -0.38391336506E+02  0.64972917513E+02  0.00000000000E+00 0. -1.
         21    1    1    2  502  501  0.15809183973E+02  0.75764342658E+02 -0.25888629343E+02  0.81611194364E+02  0.00000000000E+00 0. -1.
<scales pt_clust_5="13000.00000" pt_clust_6="13000.00000" pt_clust_7="13000.00000" pt_clust_8="13000.00000" pt_clust_9="77.39616"></scales>
<clustering>
<clus scale="   77.396">  1  9  2 -1</clus>
<clus scale="   91.205">  7  8 -1 -1</clus>
<clus scale="   95.691">  5  6 -1 -1</clus>
<clus scale="  107.057">  2  7  1 -1</clus>
<clus scale="  107.057">  2  5  1 -1</clus>
</clustering>
</event>
<event>
 9    1  0.2423659E-006  0.1290031E+03  0.7546771E-02  0.1230064E+00
          1   -1    0    0  502    0  0.00000000000E+00  0.00000000000E+00  0.56391469324E+03  0.56391469324E+03  0.00000000000E+00 0. -1.
         -1   -1    0    0    0  501 -0.00000000000E+00 -0.00000000000E+00 -0.64805054645E+02  0.64805054645E+02  0.00000000000E+00 0.  1.
         23    2    1    2    0    0  0.81212225498E+02 -0.25273746030E+02  0.45896105332E+02  0.13143913814E+03  0.89082022549E+02 0.  0.
         23    2    1    2    0    0 -0.10751653506E+03  0.46806327069E+02  0.23161143931E+03  0.27308637076E+03  0.84744731469E+02 0.  0.
        -11    1    4    4    0    0 -0.51592508655E+02  0.29206815649E+02  0.37113957854E+02  0.69944770335E+02  0.00000000000E+00 0.  1.
         11    1    4    4    0    0 -0.55924026409E+02  0.17599511421E+02  0.19449748146E+03  0.20314160043E+03  0.00000000000E+00 0. -1.
        -11    1    3    3    0    0  0.14664934531E+02  0.31426168517E+02  0.20978060945E+02  0.40530771193E+02  0.00000000000E+00 0. -1.
         11    1    3    3    0    0  0.66547290967E+02 -0.56699914547E+02  0.24918044386E+02  0.90908366946E+02  0.00000000000E+00 0.  1.
         21    1    1    2  502  501  0.26304309566E+02 -0.21532581039E+02  0.22160209395E+03  0.22419423898E+03  0.00000000000E+00 0.  1.
<scales pt_clust_5="13000.00000" pt_clust_6="13000.00000" pt_clust_7="13000.00000" pt_clust_8="13000.00000" pt_clust_9="33.99366"></scales>
<clustering>
<clus scale="   33.994">  1  9  2 -1</clus>
<clus scale="   84.745">  5  6 -1 -1</clus>
<clus scale="   89.082">  7  8 -1 -1</clus>
<clus scale="  126.047">  1  5  2 -1</clus>
<clus scale="   33.994">  1  5  2 -1</clus>
</clustering>
</event>
<event>
 9    1  0.2423659E-006  0.1018148E+03  0.7546771E-02  0.1278979E+00
         -2   -1    0    0    0  501 -0.00000000000E+00  0.00000000000E+00  0.70230805560E+02  0.70230805560E+02  0.00000000000E+00 0.  1.
          2   -1    0    0  502    0  0.00000000000E+00 -0.00000000000E+00 -0.55977854750E+03  0.55977854750E+03  0.00000000000E+00 0. -1.
         23    2    1    2    0    0  0.32176080592E+02  0.19573833960E+02 -0.44541662311E+02  0.10690688983E+03  0.89591786862E+02 0.  0.
         23    2    1    2    0    0  0.32936024120E+02 -0.60230911612E+02 -0.61704047816E+02  0.13218938883E+03  0.94626109532E+02 0.  0.
        -11    1    3    3    0    0  0.57587627393E+01 -0.32195022282E+02  0.15297709479E+01  0.32741762432E+02  0.00000000000E+00 0.  1.
         11    1    3    3    0    0  0.26417317852E+02  0.51768856242E+02 -0.46071433259E+02  0.74165127396E+02  0.00000000000E+00 0. -1.
        -11    1    4    4    0    0 -0.32269779205E+02 -0.33253662508E+02 -0.24735115509E+02  0.52525904650E+02  0.00000000000E+00 0.  1.
         11    1    4    4    0    0  0.65205803325E+02 -0.26977249104E+02 -0.36968932307E+02  0.79663484184E+02  0.00000000000E+00 0. -1.
         21    1    1    2  502  501 -0.65112104711E+02  0.40657077652E+02 -0.38330203182E+03  0.39091307440E+03  0.00000000000E+00 0. -1.
<scales pt_clust_5="13000.00000" pt_clust_6="13000.00000" pt_clust_7="13000.00000" pt_clust_8="13000.00000" pt_clust_9="76.76317"></scales>
<clustering>
<clus scale="   76.763">  2  9  1 -1</clus>
<clus scale="   89.592">  5  6 -1 -1</clus>
<clus scale="   94.626">  7  8 -1 -1</clus>
<clus scale="   97.154">  1  5  2 -1</clus>
<clus scale="   76.763">  2  5  1 -1</clus>
</clustering>
</event>
<event>
 9    1  0.2423659E-006  0.1205079E+03  0.7546771E-02  0.1242779E+00
          1   -1    0    0  502    0  0.00000000000E+00  0.00000000000E+00  0.12316430292E+04  0.12316430292E+04  0.00000000000E+00 0. -1.
         -1   -1    0    0    0  501 -0.00000000000E+00 -0.00000000000E+00 -0.31420448721E+02  0.31420448721E+02  0.00000000000E+00 0.  1.
         23    2    1    2    0    0 -0.75892334651E+01 -0.63311787472E+02  0.16710318953E+03  0.20003926879E+03  0.89589364375E+02 0.  0.
         23    2    1    2    0    0 -0.44943976165E+02  0.12529876146E+03  0.55267665391E+03  0.57575903838E+03  0.91253744469E+02 0.  0.
        -11    1    3    3    0    0  0.27894754197E+02 -0.65624174856E+02  0.87651152176E+02  0.11299280559E+03  0.00000000000E+00 0.  1.
         11    1    3    3    0    0 -0.35483987662E+02  0.23123873842E+01  0.79452037357E+02  0.87046463202E+02  0.00000000000E+00 0. -1.
        -11    1    4    4    0    0 -0.23301422298E+02  0.12276408638E+03  0.52909897572E+03  0.54365402904E+03  0.00000000000E+00 0. -1.
         11    1    4    4    0    0 -0.21642553867E+02  0.25346750804E+01  0.23577678192E+02  0.32105009338E+02  0.00000000000E+00 0.  1.
         21    1    1    2  502  501  0.52533209630E+02 -0.61986973987E+02  0.48044273703E+03  0.48726517075E+03  0.00000000000E+00 0. -1.
<scales pt_clust_5="13000.00000" pt_clust_6="13000.00000" pt_clust_7="13000.00000" pt_clust_8="13000.00000" pt_clust_9="81.25345"></scales>
<clustering>
<clus scale="   81.253">  1  9  2 -1</clus>
<clus scale="   89.589">  5  6 -1 -1</clus>
<clus scale="   91.254">  7  8 -1 -1</clus>
<clus scale="  119.253">  2  5  1 -1</clus>
<clus scale="   81.253">  1  5  2 -1</clus>
</clustering>
</event>
<event>
 9    1  0.2423659E-006  0.9836062E+02  0.7546771E-02  0.1284284E+00
          2   -1    0    0  502    0  0.00000000000E+00  0.00000000000E+00  0.81928698640E+02  0.81928698640E+02  0.00000000000E+00 0. -1.
         -2   -1    0    0    0  501 -0.00000000000E+00 -0.00000000000E+00 -0.18713352200E+03  0.18713352200E+03  0.00000000000E+00 0.  1.
         23    2    1    2    0    0 -0.35151282735E+02  0.14417216036E+02 -0.45526177437E+02  0.10838253401E+03  0.90723051368E+02 0.  0.
         23    2    1    2    0    0  0.53100840426E+01 -0.49159763434E+02 -0.32726471581E+02  0.10753872841E+03  0.89714418197E+02 0.  0.
        -11    1    3    3    0    0 -0.23031504074E+02 -0.11655955352E+02  0.22681589066E+02  0.34362275210E+02  0.00000000000E+00 0.  1.
         11    1    3    3    0    0 -0.12119778661E+02  0.26073171388E+02 -0.68207766502E+02  0.74020258796E+02  0.00000000000E+00 0. -1.
        -13    1    4    4    0    0  0.14658134932E+02 -0.20044898771E+02 -0.61019342108E+02  0.65878820555E+02  0.00000000000E+00 0.  1.
         13    1    4    4    0    0 -0.93480508895E+01 -0.29114864664E+02  0.28292870527E+02  0.41659907855E+02  0.00000000000E+00 0. -1.
         21    1    1    2  502  501  0.29841198692E+02  0.34742547398E+02 -0.26952174339E+02  0.53140958222E+02  0.00000000000E+00 0. -1.
<scales pt_clust_5="13000.00000" pt_clust_6="13000.00000" pt_clust_7="13000.00000" pt_clust_8="13000.00000" pt_clust_9="45.79893"></scales>
<clustering>
<clus scale="   45.799">  2  9  1 -1</clus>
<clus scale="   89.714">  7  8 -1 -1</clus>
<clus scale="   90.723">  5  6 -1 -1</clus>
<clus scale="   97.431">  1  7  2 -1</clus>
<clus scale="   97.431">  1  5  2 -1</clus>
</clustering>
</event>
<event>
 9    1  0.2423659E-006  0.2629784E+03  0.7546771E-02  0.1143471E+00
          1   -1    0    0  502    0  0.00000000000E+00  0.00000000000E+00  0.67882453795E+03  0.67882453795E+03  0.00000000000E+00 0. -1.
         -1   -1    0    0    0  501 -0.00000000000E+00 -0.00000000000E+00 -0.18124770251E+03  0.18124770251E+03  0.00000000000E+00 0.  1.
         23    2    1    2    0    0  0.76902430054E+02 -0.22952662797E+03  0.26854282892E+02  0.25928526003E+03  0.88945134006E+02 0.  0.
         23    2    1    2    0    0  0.45629452490E+02 -0.64282889129E+01  0.88320209691E+02  0.13503990650E+03  0.91169880310E+02 0.  0.
        -11    1    3    3    0    0  0.11463358072E+02 -0.16385334698E+03  0.65906988936E+01  0.16438602497E+03  0.00000000000E+00 0. -1.
         11    1    3    3    0    0  0.65439071982E+02 -0.65673280995E+02  0.20263583998E+02  0.94899235060E+02  0.00000000000E+00 0.  1.
        -11    1    4    4    0    0 -0.27395543122E+02 -0.63347932748E+01  0.33445910297E+02  0.43695243498E+02  0.00000000000E+00 0.  1.
         11    1    4    4    0    0  0.73024995612E+02 -0.93495638133E-01  0.54874299395E+02  0.91344663006E+02  0.00000000000E+00 0. -1.
         21    1    1    2  502  501 -0.12253188254E+03  0.23595491688E+03  0.38240234286E+03  0.46574707392E+03  0.00000000000E+00 0. -1.
<scales pt_clust_5="13000.00000" pt_clust_6="13000.00000" pt_clust_7="13000.00000" pt_clust_8="13000.00000" pt_clust_9="247.48007"></scales>
<clustering>
<clus scale="   88.945">  5  6 -1 -1</clus>
<clus scale="   91.170">  7  8 -1 -1</clus>
<clus scale="  102.153">  1  7  2 -1</clus>
<clus scale="  247.480">  1  9  2 -1</clus>
<clus scale="  102.153">  1  5  2 -1</clus>
</clustering>
</event>
<event>
 9    1  0.2423659E-006  0.3367122E+03  0.7546771E-02  0.1068827E+00
         -1   -1    0    0    0  501 -0.00000000000E+00  0.00000000000E+00  0.21088529197E+04  0.21088529197E+04  0.00000000000E+00 0.  1.
          1   -1    0    0  502    0  0.00000000000E+00 -0.00000000000E+00 -0.72631394866E+02  0.72631394866E+02  0.00000000000E+00 0. -1.
         23    2    1    2    0    0 -0.30817526513E+03  0.11478914010E+03  0.15173648693E+04  0.15554515346E+04  0.94259160330E+02 0.  0.
         23    2    1    2    0    0  0.27119092075E+03 -0.97891735723E+02  0.45469864675E+03  0.55007480408E+03  0.11271256942E+03 0.  0.
        -11    1    3    3    0    0 -0.15358733193E+02 -0.15247040013E+02  0.10381623177E+03  0.10604797449E+03  0.00000000000E+00 0. -1.
         11    1    3    3    0    0 -0.29281653193E+03  0.13003618011E+03  0.14135486375E+04  0.14494035601E+04  0.00000000000E+00 0.  1.
        -13    1    4    4    0    0  0.15854169897E+03 -0.68576905488E+02  0.16937866712E+03  0.24192435833E+03  0.00000000000E+00 0. -1.
         13    1    4    4    0    0  0.11264922178E+03 -0.29314830235E+02  0.28531997962E+03  0.30815044574E+03  0.00000000000E+00 0.  1.
         21    1    1    2  502  501  0.36984344377E+02 -0.16897404375E+02  0.64158008776E+02  0.75957975841E+02  0.00000000000E+00 0. -1.
<scales pt_clust_5="13000.00000" pt_clust_6="13000.00000" pt_clust_7="13000.00000" pt_clust_8="13000.00000" pt_clust_9="40.66158"></scales>
<clustering>
<clus scale="   40.662">  2  9  1 -1</clus>
<clus scale="   94.259">  5  6 -1 -1</clus>
<clus scale="  112.713">  7  8 -1 -1</clus>
<clus scale="  330.992">  1  5  2 -1</clus>
<clus scale="   40.662">  2  5  1 -1</clus>
</clustering>
</event>
<event>
 9    1  0.2423659E-006  0.1460051E+03  0.7546771E-02  0.1221141E+00
          1   -1    0    0  502    0  0.00000000000E+00  0.00000000000E+00  0.16936891768E+03  0.16936891768E+03  0.00000000000E+00 0. -1.
         -1   -1    0    0    0  501 -0.00000000000E+00 -0.00000000000E+00 -0.27876927967E+03  0.27876927967E+03  0.00000000000E+00 0.  1.
         23    2    1    2    0    0 -0.40416453520E+02 -0.24299730096E+02 -0.12527649140E+03  0.16325134640E+03  0.93449645292E+02 0.  0.
         23    2    1    2    0    0 -0.90578691945E+02  0.54865815041E+02  0.47332048381E+02  0.14674385069E+03  0.89881465367E+02 0.  0.
        -11    1    3    3    0    0 -0.20834682031E+02  0.31545971521E+02 -0.80849396314E+02  0.89251650847E+02  0.00000000000E+00 0.  1.
         11    1    3    3    0    0 -0.19581771489E+02 -0.55845701618E+02 -0.44427095086E+02  0.73999695550E+02  0.00000000000E+00 0. -1.
        -11    1    4    4    0    0 -0.64667258293E+02 -0.12557723785E+02  0.30417089185E+02  0.72558597260E+02  0.00000000000E+00 0. -1.
         11    1    4    4    0    0 -0.25911433652E+02  0.67423538826E+02  0.16914959197E+02  0.74185253429E+02  0.00000000000E+00 0.  1.
         21    1    1    2  502  501  0.13099514547E+03 -0.30566084945E+02 -0.31455918964E+02  0.13814300026E+03  0.00000000000E+00 0. -1.
<scales pt_clust_5="13000.00000" pt_clust_6="13000.00000" pt_clust_7="13000.00000" pt_clust_8="13000.00000" pt_clust_9="115.06005"></scales>
<clustering>
<clus scale="   89.881">  7  8 -1 -1</clus>
<clus scale="   93.450">  5  6 -1 -1</clus>
<clus scale="  104.675">  2  5  1 -1</clus>
<clus scale="  115.060">  2  9  1 -1</clus>
<clus scale="  146.005">  1  5  2 -1</clus>
</clustering>
</event>
<event>
 9    1  0.2423659E-006  0.9938903E+02  0.7546771E-02  0.1283976E+00
         -2   -1    0    0    0  501 -0.00000000000E+00  0.00000000000E+00  0.51619046766E+02  0.51619046766E+02  0.00000000000E+00 0.  1.
          2   -1    0    0  502    0  0.00000000000E+00 -0.00000000000E+00 -0.42489471715E+03  0.42489471715E+03  0.00000000000E+00 0. -1.
         23    2    1    2    0    0  0.27065822742E+02  0.39581223115E+02 -0.16808713760E+03  0.19750454067E+03  0.91953932888E+02 0.  0.
         23    2    1    2    0    0 -0.45874253429E+02  0.21977369041E+02 -0.18637013803E+03  0.21194694387E+03  0.87179279605E+02 0.  0.
        -13    1    4    4    0    0  0.26257015381E+02  0.75963907374E+01 -0.47591075699E+02  0.54882114529E+02  0.00000000000E+00 0.  1.
         13    1    4    4    0    0 -0.72131268810E+02  0.14380978304E+02 -0.13877906233E+03  0.15706482935E+03  0.00000000000E+00 0. -1.
        -13    1    3    3    0    0 -0.13384226686E+02  0.40417452434E+02 -0.14456682130E+03  0.15070591828E+03  0.00000000000E+00 0. -1.
         13    1    3    3    0    0  0.40450049428E+02 -0.83622931826E+00 -0.23520316304E+02  0.46798622386E+02  0.00000000000E+00 0.  1.
         21    1    1    2  502  501  0.18808430687E+02 -0.61558592157E+02 -0.18818394755E+02  0.67062279371E+02  0.00000000000E+00 0.  1.
<scales pt_clust_5="13000.00000" pt_clust_6="13000.00000" pt_clust_7="13000.00000" pt_clust_8="13000.00000" pt_clust_9="64.36783"></scales>
<clustering>
<clus scale="   64.368">  1  9  2 -1</clus>
<clus scale="   87.179">  5  6 -1 -1</clus>
<clus scale="   91.954">  7  8 -1 -1</clus>
<clus scale="   94.989">  2  5  1 -1</clus>
<clus scale="   94.989">  2  5  1 -1</clus>
</clustering>
</event>
<event>
 9    1  0.2423659E-006  0.1141706E+03  0.7546771E-02  0.1253123E+00
          2   -1    0    0  502    0  0.00000000000E+00  0.00000000000E+00  0.35484800132E+03  0.35484800132E+03  0.00000000000E+00 0. -1.
         -2   -1    0    0    0  501 -0.00000000000E+00 -0.00000000000E+00 -0.20131782414E+03  0.20131782414E+03  0.00000000000E+00 0.  1.
         23    2    1    2    0    0  0.24513413355E+02 -0.88255408158E+02 -0.13458610881E+03  0.18607469915E+03  0.90113531041E+02 0.  0.
         23    2    1    2    0    0  0.41560063168E+02  0.57394099136E+02  0.27243973084E+03  0.29549971209E+03  0.89862959226E+02 0.  0.
        -11    1    3    3    0    0  0.35586479266E+02 -0.24667056283E+01 -0.15513371510E+02  0.38899188151E+02  0.00000000000E+00 0. -1.
         11    1    3    3    0    0 -0.11073065911E+02 -0.85788702530E+02 -0.11907273730E+03  0.14717551100E+03  0.00000000000E+00 0.  1.
        -13    1    4    4    0    0  0.40547259058E+02  0.77401255701E+02  0.25267964595E+03  0.26736125014E+03  0.00000000000E+00 0. -1.
         13    1    4    4    0    0  0.10128041105E+01 -0.20007156565E+02  0.19760084890E+02  0.28138461949E+02  0.00000000000E+00 0.  1.
         21    1    1    2  502  501 -0.66073476523E+02  0.30861309023E+02  0.15676555151E+02  0.74591414224E+02  0.00000000000E+00 0. -1.
<scales pt_clust_5="13000.00000" pt_clust_6="13000.00000" pt_clust_7="13000.00000" pt_clust_8="13000.00000" pt_clust_9="72.92547"></scales>
<clustering>
<clus scale="   72.925">  2  9  1 -1</clus>
<clus scale="   89.863">  7  8 -1 -1</clus>
<clus scale="   90.114">  5  6 -1 -1</clus>
<clus scale="  113.973">  1  7  2 -1</clus>
<clus scale="  113.973">  1  5  2 -1</clus>
</clustering>
</event>
<event>
 9    1  0.2423659E-006  0.1460307E+03  0.7546771E-02  0.1206569E+00
          2   -1    0    0  502    0  0.00000000000E+00  0.00000000000E+00  0.10399266266E+04  0.10399266266E+04  0.00000000000E+00 0. -1.
         -2   -1    0    0    0  501 -0.00000000000E+00 -0.00000000000E+00 -0.37966029016E+02  0.37966029016E+02  0.00000000000E+00 0.  1.
         23    2    1    2    0    0 -0.10508324051E+03  0.32705726121E+02  0.27127075039E+03  0.30735946728E+03  0.93647584889E+02 0.  0.
         23    2    1    2    0    0  0.11966264700E+03  0.27615413187E+02  0.30546253959E+03  0.34080133930E+03  0.88070594650E+02 0.  0.
        -13    1    3    3    0    0 -0.58084925420E+02 -0.28054054664E+02  0.15631067570E+03  0.16909735622E+03  0.00000000000E+00 0. -1.
         13    1    3    3    0    0 -0.46998315090E+02  0.60759780786E+02  0.11496007469E+03  0.13826211106E+03  0.00000000000E+00 0.  1.
        -13    1    4    4    0    0  0.60256326847E+02  0.33114344474E+02  0.70871517265E+02  0.98742881741E+02  0.00000000000E+00 0.  1.
         13    1    4    4    0    0  0.59406320153E+02 -0.54989312869E+01  0.23459102233E+03  0.24205845756E+03  0.00000000000E+00 0. -1.
         21    1    1    2  502  501 -0.14579406491E+02 -0.60321139308E+02  0.42522730757E+03  0.42973184900E+03  0.00000000000E+00 0. -1.
<scales pt_clust_5="13000.00000" pt_clust_6="13000.00000" pt_clust_7="13000.00000" pt_clust_8="13000.00000" pt_clust_9="62.05803"></scales>
<clustering>
<clus scale="   62.058">  1  9  2 -1</clus>
<clus scale="   88.071">  7  8 -1 -1</clus>
<clus scale="   93.648">  5  6 -1 -1</clus>
<clus scale="  142.519">  1  7  2 -1</clus>
<clus scale="   62.058">  1  5  2 -1</clus>
</clustering>
</event>
<event>
 9    1  0.2423659E-006  0.2158748E+03  0.7546771E-02  0.1162417E+00
         -2   -1    0    0    0  501 -0.00000000000E+00  0.00000000000E+00  0.15733795948E+03  0.15733795948E+03  0.00000000000E+00 0.  1.
          2   -1    0    0  502    0  0.00000000000E+00 -0.00000000000E+00 -0.11009086105E+04  0.11009086105E+04  0.00000000000E+00 0. -1.
         23    2    1    2    0    0  0.28754714544E+01  0.80057242479E+02 -0.89746428955E+02  0.14837376989E+03  0.86850006754E+02 0.  0.
         23    2    1    2    0    0 -0.19475793131E+03 -0.13538179686E+02 -0.87896664565E+03  0.90523701240E+03  0.93582852796E+02 0.  0.
        -11    1    3    3    0    0 -0.25195075242E+02  0.61592849442E+02 -0.93285361220E+02  0.11458895905E+03  0.00000000000E+00 0. -1.
         11    1    3    3    0    0  0.28070546696E+02  0.18464393037E+02  0.35389322650E+01  0.33784810842E+02  0.00000000000E+00 0.  1.
        -13    1    4    4    0    0 -0.19286498623E+03  0.72688702312E+01 -0.82711301879E+03  0.84933249393E+03  0.00000000000E+00 0. -1.
         13    1    4    4    0    0 -0.18929450853E+01 -0.20807049918E+02 -0.51853626854E+02  0.55904518469E+02  0.00000000000E+00 0.  1.
         21    1    1    2  502  501  0.19188245986E+03 -0.66519062793E+02  0.25142423626E+02  0.20463578764E+03  0.00000000000E+00 0.  1.
<scales pt_clust_5="13000.00000" pt_clust_6="13000.00000" pt_clust_7="13000.00000" pt_clust_8="13000.00000" pt_clust_9="194.53579"></scales>
<clustering>
<clus scale="   86.850">  5  6 -1 -1</clus>
<clus scale="   93.583">  7  8 -1 -1</clus>
<clus scale="  118.154">  1  5  2 -1</clus>
<clus scale="  194.536">  1  9  2 -1</clus>
<clus scale="  215.875">  2  5  1 -1</clus>
</clustering>
</event>
<event>
 9    1  0.2423659E-006  0.1572708E+03  0.7546771E-02  0.1209067E+00
         -2   -1    0    0    0  501 -0.00000000000E+00  0.00000000000E+00  0.20078241312E+03  0.20078241312E+03  0.00000000000E+00 0.  1.
          2   -1    0    0  502    0  0.00000000000E+00 -0.00000000000E+00 -0.29243953608E+03  0.29243953608E+03  0.00000000000E+00 0. -1.
         23    2    1    2    0    0  0.23947088483E+02 -0.11981515341E+03  0.86703018121E+02  0.17504191641E+03  0.90515883223E+02 0.  0.
         23    2    1    2    0    0  0.44541332119E+02 -0.13378084649E+02 -0.10752446731E+03  0.15250325379E+03  0.97636201944E+02 0.  0.
        -13    1    3    3    0    0  0.16270375005E+01 -0.12433566181E+03  0.87836059626E+02  0.15224052489E+03  0.00000000000E+00 0.  1.
         13    1    3    3    0    0  0.22320050982E+02  0.45205084007E+01 -0.11330415057E+01  0.22801391517E+02  0.00000000000E+00 0. -1.
        -13    1    4    4    0    0  0.50328780435E+02 -0.39069650687E+02 -0.29609087015E+02  0.70257538946E+02  0.00000000000E+00 0.  1.
         13    1    4    4    0    0 -0.57874483166E+01  0.25691566038E+02 -0.77915380293E+02  0.82245714841E+02  0.00000000000E+00 0. -1.
         21    1    1    2  502  501 -0.68488420601E+02  0.13319323806E+03 -0.70835673774E+02  0.16567677900E+03  0.00000000000E+00 0. -1.
<scales pt_clust_5="13000.00000" pt_clust_6="13000.00000" pt_clust_7="13000.00000" pt_clust_8="13000.00000" pt_clust_9="128.61168"></scales>
<clustering>
<clus scale="   90.516">  5  6 -1 -1</clus>
<clus scale="   97.636">  7  8 -1 -1</clus>
<clus scale="  108.147">  2  7  1 -1</clus>
<clus scale="  128.612">  2  9  1 -1</clus>
<clus scale="  108.147">  2  5  1 -1</clus>
</clustering>
</event>
<event>
 9    1  0.2423659E-006  0.1291172E+03  0.7546771E-02  0.1244319E+00
          2   -1    0    0  502    0  0.00000000000E+00  0.00000000000E+00  0.67821770767E+03  0.67821770767E+03  0.00000000000E+00 0. -1.
         -2   -1    0    0    0  501 -0.00000000000E+00 -0.00000000000E+00 -0.39520451603E+02  0.39520451603E+02  0.00000000000E+00 0.  1.
         23    2    1    2    0    0 -0.75637759472E+02  0.40249920559E+02  0.19719798932E+03  0.23168873903E+03  0.86322059974E+02 0.  0.
         23    2    1    2    0    0 -0.27755374717E+02 -0.52663844278E+01  0.19524079677E+03  0.21668494220E+03  0.89639833899E+02 0.  0.
        -11    1    4    4    0    0  0.19253689316E+02 -0.33642549794E+02  0.89624484506E+02  0.97647703158E+02  0.00000000000E+00 0.  1.
         11    1    4    4    0    0 -0.47009064034E+02  0.28376165367E+02  0.10561631227E+03  0.11903723904E+03  0.00000000000E+00 0. -1.
        -13    1    3    3    0    0 -0.69311906360E+01  0.37844714983E+02  0.24002157328E+02  0.45347187478E+02  0.00000000000E+00 0. -1.
         13    1    3    3    0    0 -0.68706568836E+02  0.24052055764E+01  0.17319583199E+03  0.18634155155E+03  0.00000000000E+00 0.  1.
         21    1    1    2  502  501  0.10339313419E+03 -0.34983536131E+02  0.24625846998E+03  0.26936447805E+03  0.00000000000E+00 0.  1.
<scales pt_clust_5="13000.00000" pt_clust_6="13000.00000" pt_clust_7="13000.00000" pt_clust_8="13000.00000" pt_clust_9="96.01952"></scales>
<clustering>
<clus scale="   86.322">  7  8 -1 -1</clus>
<clus scale="   89.640">  5  6 -1 -1</clus>
<clus scale="   93.986">  1  5  2 -1</clus>
<clus scale="   96.020">  1  9  2 -1</clus>
<clus scale="   93.986">  1  5  2 -1</clus>
</clustering>
</event>
<event>
 9    1  0.2423659E-006  0.1018118E+03  0.7546771E-02  0.1276874E+00
          2   -1    0    0  502    0  0.00000000000E+00  0.00000000000E+00  0.14455448287E+03  0.14455448287E+03  0.00000000000E+00 0. -1.
         -2   -1    0    0    0  501 -0.00000000000E+00 -0.00000000000E+00 -0.22645357511E+03  0.22645357511E+03  0.00000000000E+00 0.  1.
         23    2    1    2    0    0  0.90226597883E+01 -0.41975543120E+02 -0.15259152168E+03  0.18335661368E+03  0.92152703065E+02 0.  0.
         23    2    1    2    0    0 -0.63682642435E+02  0.27590819344E+02  0.62038653836E+02  0.13047171176E+03  0.91418492328E+02 0.  0.
        -11    1    4    4    0    0  0.11486585355E+02 -0.20807261900E+02  0.22458458433E+02  0.32699635259E+02  0.00000000000E+00 0.  1.
         11    1    4    4    0    0 -0.75169227790E+02  0.48398081244E+02  0.39580195403E+02  0.97772076498E+02  0.00000000000E+00 0. -1.
        -11    1    3    3    0    0  0.40006511922E+02 -0.11198842329E+02 -0.12494250637E+03  0.13166839014E+03  0.00000000000E+00 0. -1.
         11    1    3    3    0    0 -0.30983852134E+02 -0.30776700791E+02 -0.27649015311E+02  0.51688223536E+02  0.00000000000E+00 0.  1.
         21    1    1    2  502  501  0.54659982647E+02  0.14384723777E+02  0.86537756030E+01  0.57179732539E+02  0.00000000000E+00 0. -1.
<scales pt_clust_5="13000.00000" pt_clust_6="13000.00000" pt_clust_7="13000.00000" pt_clust_8="13000.00000" pt_clust_9="56.52109"></scales>
<clustering>
<clus scale="   56.521">  1  9  2 -1</clus>
<clus scale="   91.418">  5  6 -1 -1</clus>
<clus scale="   92.153">  7  8 -1 -1</clus>
<clus scale="  101.148">  1  5  2 -1</clus>
<clus scale="   56.521">  1  5  2 -1</clus>
</clustering>
</event>
<event>
 9    1  0.2423659E-006  0.9375024E+02  0.7546771E-02  0.1295398E+00
          2   -1    0    0  502    0  0.00000000000E+00  0.00000000000E+00  0.11839627436E+03  0.11839627436E+03  0.00000000000E+00 0. -1.
         -2   -1    0    0    0  501 -0.00000000000E+00 -0.00000000000E+00 -0.16610004731E+03  0.16610004731E+03  0.00000000000E+00 0.  1.
         23    2    1    2    0    0  0.29452732784E+02 -0.62569726290E+01 -0.60978918016E+01  0.93396647706E+02  0.88199412375E+02 0.  0.
         23    2    1    2    0    0 -0.80540675048E+01  0.24457054862E+02  0.41792591071E+02  0.10309711129E+03  0.90660786191E+02 0.  0.
        -11    1    3    3    0    0  0.28707219377E+02 -0.40748873855E+02  0.16089616439E+02  0.52377962179E+02  0.00000000000E+00 0.  1.
         11    1    3    3    0    0  0.74551340670E+00  0.34491901226E+02 -0.22187508241E+02  0.41018685527E+02  0.00000000000E+00 0. -1.
        -13    1    4    4    0    0 -0.28794950549E+01 -0.32251671967E+02 -0.13851465867E+00  0.32380256681E+02  0.00000000000E+00 0.  1.
         13    1    4    4    0    0 -0.51745724500E+01  0.56708726829E+02  0.41931105730E+02  0.70716854613E+02  0.00000000000E+00 0. -1.
         21    1    1    2  502  501 -0.21398665279E+02 -0.18200082233E+02 -0.83398472214E+02  0.88002562671E+02  0.00000000000E+00 0.  1.
<scales pt_clust_5="13000.00000" pt_clust_6="13000.00000" pt_clust_7="13000.00000" pt_clust_8="13000.00000" pt_clust_9="28.09174"></scales>
<clustering>
<clus scale="   28.092">  2  9  1 -1</clus>
<clus scale="   88.199">  5  6 -1 -1</clus>
<clus scale="   90.661">  7  8 -1 -1</clus>
<clus scale="   91.372">  2  5  1 -1</clus>
<clus scale="   93.750">  1  5  2 -1</clus>
</clustering>
</event>
<event>
 9    1  0.2423659E-006  0.9648908E+02  0.7546771E-02  0.1288014E+00
         -3   -1    0    0    0  501 -0.00000000000E+00  0.00000000000E+00  0.17909816862E+03  0.17909816862E+03  0.00000000000E+00 0.  1.
          3   -1    0    0  502    0  0.00000000000E+00 -0.00000000000E+00 -0.19490487426E+03  0.19490487426E+03  0.00000000000E+00 0. -1.
         23    2    1    2    0    0  0.24396195636E+02  0.22852408025E+02  0.12675240163E+03  0.15967116828E+03  0.91166352047E+02 0.  0.
         23    2    1    2    0    0  0.23532130552E+02 -0.43470612454E+02 -0.11720189770E+03  0.15632133347E+03  0.90865940591E+02 0.  0.
        -13    1    4    4    0    0  0.97030009603E+01  0.27574534835E+02 -0.47895773850E+02  0.56111570569E+02  0.00000000000E+00 0. -1.
         13    1    4    4    0    0  0.13829129592E+02 -0.71045147289E+02 -0.69306123848E+02  0.10020976290E+03  0.00000000000E+00 0.  1.
        -13    1    3    3    0    0  0.55200827340E+02  0.27328742219E+02  0.59859926324E+02  0.85890641340E+02  0.00000000000E+00 0. -1.
         13    1    3    3    0    0 -0.30804631704E+02 -0.44763341943E+01  0.66892475309E+02  0.73780526938E+02  0.00000000000E+00 0.  1.
         21    1    1    2  502  501 -0.47928326188E+02  0.20618204429E+02 -0.25357209567E+02  0.58010541129E+02  0.00000000000E+00 0.  1.
<scales pt_clust_5="13000.00000" pt_clust_6="13000.00000" pt_clust_7="13000.00000" pt_clust_8="13000.00000" pt_clust_9="52.17504"></scales>
<clustering>
<clus scale="   52.175">  2  9  1 -1</clus>
<clus scale="   90.866">  5  6 -1 -1</clus>
<clus scale="   91.166">  7  8 -1 -1</clus>
<clus scale="   96.205">  2  5  1 -1</clus>
<clus scale="   52.175">  2  5  1 -1</clus>
</clustering>
</event>
<event>
 9    1  0.2423659E-006  0.2865542E+03  0.7546771E-02  0.1116833E+00
         -1   -1    0    0    0  501 -0.00000000000E+00  0.00000000000E+00  0.77843184228E+02  0.77843184228E+02  0.00000000000E+00 0.  1.
          1   -1    0    0  502    0  0.00000000000E+00 -0.00000000000E+00 -0.25079568623E+04  0.25079568623E+04  0.00000000000E+00 0. -1.
         23    2    1    2    0    0  0.27679439532E+02  0.12073897547E+03 -0.10587959055E+03  0.18513539339E+03  0.87866800451E+02 0.  0.
         23    2    1    2    0    0  0.96891116055E+02  0.16467827382E+03 -0.41347165016E+03  0.46469101655E+03  0.92044082581E+02 0.  0.
        -13    1    3    3    0    0  0.20252278201E+02 -0.74548983892E+01 -0.58395610039E+01  0.22356895022E+02  0.00000000000E+00 0. -1.
         13    1    3    3    0    0  0.74271613311E+01  0.12819387386E+03 -0.10004002955E+03  0.16277849837E+03  0.00000000000E+00 0.  1.
        -13    1    4    4    0    0  0.47941068713E+02  0.13488871636E+03 -0.21646158529E+03  0.25951672350E+03  0.00000000000E+00 0.  1.
         13    1    4    4    0    0  0.48950047342E+02  0.29789557462E+02 -0.19701006487E+03  0.20517429305E+03  0.00000000000E+00 0. -1.
         21    1    1    2  502  501 -0.12457055559E+03 -0.28541724929E+03 -0.19107624373E+04  0.19359736366E+04  0.00000000000E+00 0. -1.
<scales pt_clust_5="13000.00000" pt_clust_6="13000.00000" pt_clust_7="13000.00000" pt_clust_8="13000.00000" pt_clust_9="271.36911"></scales>
<clustering>
<clus scale="   87.867">  5  6 -1 -1</clus>
<clus scale="   92.044">  7  8 -1 -1</clus>
<clus scale="  151.870">  1  5  2 -1</clus>
<clus scale="  271.369">  2  9  1 -1</clus>
<clus scale="  271.369">  2  5  1 -1</clus>
</clustering>
</event>
<event>
 9    1  0.2423659E-006  0.9321984E+02  0.7546771E-02  0.1295829E+00
          2   -1    0    0  502    0  0.00000000000E+00  0.00000000000E+00  0.54640600374E+03  0.54640600374E+03  0.00000000000E+00 0. -1.
         -2   -1    0    0    0  501 -0.00000000000E+00 -0.00000000000E+00 -0.22339025517E+02  0.22339025517E+02  0.00000000000E+00 0.  1.
         23    2    1    2    0    0 -0.15659173902E+02  0.21870384658E+02  0.20407662095E+03  0.22451437299E+03  0.89643254127E+02 0.  0.
         23    2    1    2    0    0 -0.12961765211E+02 -0.21307738106E+02  0.27740881232E+03  0.29292117666E+03  0.90692554934E+02 0.  0.
        -11    1    4    4    0    0  0.89634597809E+01 -0.52283842674E+02  0.12365389009E+03  0.13455195409E+03  0.00000000000E+00 0. -1.
         11    1    4    4    0    0 -0.21925224992E+02  0.30976104568E+02  0.15375492224E+03  0.15836922257E+03  0.00000000000E+00 0.  1.
        -11    1    3    3    0    0  0.23970398134E+02 -0.20915388624E+02  0.45204117848E+02  0.55276086497E+02  0.00000000000E+00 0.  1.
         11    1    3    3    0    0 -0.39629572035E+02  0.42785773282E+02  0.15887250310E+03  0.16923828649E+03  0.00000000000E+00 0. -1.
         21    1    1    2  502  501  0.28620939113E+02 -0.56264655177E+00  0.42581544955E+02  0.51309479608E+02  0.00000000000E+00 0.  1.
<scales pt_clust_5="13000.00000" pt_clust_6="13000.00000" pt_clust_7="13000.00000" pt_clust_8="13000.00000" pt_clust_9="28.62647"></scales>
<clustering>
<clus scale="   28.626">  2  9  1 -1</clus>
<clus scale="   89.643">  7  8 -1 -1</clus>
<clus scale="   90.693">  5  6 -1 -1</clus>
<clus scale="   92.199">  2  7  1 -1</clus>
<clus scale="   93.220">  1  5  2 -1</clus>
</clustering>
</event>
<event>
 9    1  0.2423659E-006  0.1076721E+03  0.7546771E-02  0.1265658E+00
         -2   -1    0    0    0  501 -0.00000000000E+00  0.00000000000E+00  0.32210009652E+03  0.32210009652E+03  0.00000000000E+00 0.  1.
          2   -1    0    0  502    0  0.00000000000E+00 -0.00000000000E+00 -0.25803184918E+03  0.25803184918E+03  0.00000000000E+00 0. -1.
         23    2    1    2    0    0  0.54756147635E+02  0.19707849952E+02  0.24597096429E+03  0.26898460584E+03  0.92001999185E+02 0.  0.
         23    2    1    2    0    0  0.23580372138E+02  0.41969304147E+02 -0.18331409045E+03  0.21143438361E+03  0.93717588391E+02 0.  0.
        -11    1    3    3    0    0  0.23862010544E+02  0.45680489451E+02  0.20536065170E+03  0.21172883585E+03  0.00000000000E+00 0.  1.
         11    1    3    3    0    0  0.30894137091E+02 -0.25972639498E+02  0.40610312592E+02  0.57255769997E+02  0.00000000000E+00 0. -1.
        -13    1    4    4    0    0 -0.21486108723E+02  0.13116149534E+02 -0.14095837996E+03  0.14318851605E+03  0.00000000000E+00 0. -1.
         13    1    4    4    0    0  0.45066480861E+02  0.28853154613E+02 -0.42355710492E+02  0.68245867565E+02  0.00000000000E+00 0.  1.
         21    1    1    2  502  501 -0.78336519774E+02 -0.61677154099E+02  0.14113735117E+01  0.99712956246E+02  0.00000000000E+00 0.  1.
<scales pt_clust_5="13000.00000" pt_clust_6="13000.00000" pt_clust_7="13000.00000" pt_clust_8="13000.00000" pt_clust_9="99.70297"></scales>
<clustering>
<clus scale="   92.002">  5  6 -1 -1</clus>
<clus scale="   93.718">  7  8 -1 -1</clus>
<clus scale="   99.703">  2  9  1 -1</clus>
<clus scale="  106.182">  1  5  2 -1</clus>
<clus scale="   99.703">  2  5  1 -1</clus>
</clustering>
</event>
<event>
 9    1  0.2423659E-006  0.1111878E+03  0.7546771E-02  0.1258946E+00
         -2   -1    0    0    0  501 -0.00000000000E+00  0.00000000000E+00  0.19173617282E+03  0.19173617282E+03  0.00000000000E+00 0.  1.
          2   -1    0    0  502    0  0.00000000000E+00 -0.00000000000E+00 -0.17323588988E+03  0.17323588988E+03  0.00000000000E+00 0. -1.
         23    2    1    2    0    0  0.41693383665E+02 -0.47405538163E+02  0.60707633652E+02  0.12671482848E+03  0.91572963713E+02 0.  0.
         23    2    1    2    0    0 -0.58320268820E+02  0.20768715742E+02 -0.11416012301E+03  0.15975134233E+03  0.93034210819E+02 0.  0.
        -11    1    4    4    0    0 -0.83514171006E+02  0.22163686767E+02 -0.85304027565E+02  0.12141920313E+03  0.00000000000E+00 0. -1.
         11    1    4    4    0    0  0.25193902186E+02 -0.13949710250E+01 -0.28856095445E+02  0.38332139203E+02  0.00000000000E+00 0.  1.
        -13    1    3    3    0    0  0.27520099056E+02  0.24991783825E+02  0.24633202467E+02  0.44595288704E+02  0.00000000000E+00 0.  1.
         13    1    3    3    0    0  0.14173284609E+02 -0.72397321989E+02  0.36074431185E+02  0.82119539776E+02  0.00000000000E+00 0. -1.
         21    1    1    2  502  501  0.16626885155E+02  0.26636822421E+02  0.71952772306E+02  0.78505891889E+02  0.00000000000E+00 0.  1.
<scales pt_clust_5="13000.00000" pt_clust_6="13000.00000" pt_clust_7="13000.00000" pt_clust_8="13000.00000" pt_clust_9="31.40022"></scales>
<clustering>
<clus scale="   31.400">  1  9  2 -1</clus>
<clus scale="   91.573">  7  8 -1 -1</clus>
<clus scale="   93.034">  5  6 -1 -1</clus>
<clus scale="  109.968">  1  7  2 -1</clus>
<clus scale="  111.188">  2  5  1 -1</clus>
</clustering>
</event>
<event>
 9    1  0.2423659E-006  0.1082230E+03  0.7546771E-02  0.1265014E+00
         -2   -1    0    0    0  501 -0.00000000000E+00  0.00000000000E+00  0.26918080018E+03  0.26918080018E+03  0.00000000000E+00 0.  1.
          2   -1    0    0  502    0  0.00000000000E+00 -0.00000000000E+00 -0.17624055149E+03  0.17624055149E+03  0.00000000000E+00 0. -1.
         23    2    1    2    0    0 -0.17688473552E+02 -0.56921299120E+02  0.21574742801E+03  0.24103641689E+03  0.89435368746E+02 0.  0.
         23    2    1    2    0    0  0.38190538908E+02  0.13410506652E+02 -0.11937460276E+03  0.15616350462E+03  0.92186687983E+02 0.  0.
        -13    1    4    4    0    0 -0.17824011475E+02  0.10059266209E+02 -0.91018425025E+02  0.93291145967E+02  0.00000000000E+00 0.  1.
         13    1    4    4    0    0  0.56014550383E+02  0.33512404433E+01 -0.28356177732E+02  0.62872358654E+02  0.00000000000E+00 0. -1.
        -13    1    3    3    0    0 -0.22525016898E+02 -0.78271686399E+02  0.19291971922E+03  0.20940833637E+03  0.00000000000E+00 0.  1.
         13    1    3    3    0    0  0.48365433456E+01  0.21350387279E+02  0.22827708790E+02  0.31628080515E+02  0.00000000000E+00 0. -1.
         21    1    1    2  502  501 -0.20502065356E+02  0.43510792467E+02 -0.34325765694E+01  0.48221430162E+02  0.00000000000E+00 0.  1.
<scales pt_clust_5="13000.00000" pt_clust_6="13000.00000" pt_clust_7="13000.00000" pt_clust_8="13000.00000" pt_clust_9="48.09910"></scales>
<clustering>
<clus scale="   48.099">  2  9  1 -1</clus>
<clus scale="   89.435">  7  8 -1 -1</clus>
<clus scale="   92.187">  5  6 -1 -1</clus>
<clus scale="  105.889">  1  7  2 -1</clus>
<clus scale="   48.099">  2  5  1 -1</clus>
</clustering>
</event>
<event>
 9    1  0.2423659E-006  0.3415615E+03  0.7546771E-02  0.1109923E+00
          2   -1    0    0  502    0  0.00000000000E+00  0.00000000000E+00  0.31090476532E+04  0.31090476532E+04  0.00000000000E+00 0. -1.
         -2   -1    0    0    0  501 -0.00000000000E+00 -0.00000000000E+00 -0.69032546207E+02  0.69032546207E+02  0.00000000000E+00 0.  1.
         23    2    1    2    0    0 -0.22948979860E+02 -0.52883862147E+02  0.32809674690E+03  0.34504802476E+03  0.89929447411E+02 0.  0.
         23    2    1    2    0    0  0.28430877369E+03 -0.15272191756E+03  0.53706650519E+03  0.63290416263E+03  0.89284854155E+02 0.  0.
        -11    1    4    4    0    0  0.25170750847E+03 -0.10019622758E+03  0.46290315158E+03  0.53635369075E+03  0.00000000000E+00 0.  1.
         11    1    4    4    0    0  0.32601265215E+02 -0.52525689978E+02  0.74163353611E+02  0.96550471879E+02  0.00000000000E+00 0. -1.
        -13    1    3    3    0    0  0.21607410111E+02  0.69009719633E+01  0.29107796386E+02  0.36902132678E+02  0.00000000000E+00 0.  1.
         13    1    3    3    0    0 -0.44556389971E+02 -0.59784834110E+02  0.29898895051E+03  0.30814589208E+03  0.00000000000E+00 0. -1.
         21    1    1    2  502  501 -0.26135979383E+03  0.20560577971E+03  0.21748518549E+04  0.22001280120E+04  0.00000000000E+00 0. -1.
<scales pt_clust_5="13000.00000" pt_clust_6="13000.00000" pt_clust_7="13000.00000" pt_clust_8="13000.00000" pt_clust_9="329.68546"></scales>
<clustering>
<clus scale="   89.285">  5  6 -1 -1</clus>
<clus scale="   89.929">  7  8 -1 -1</clus>
<clus scale="  106.821">  2  7  1 -1</clus>
<clus scale="  329.685">  1  9  2 -1</clus>
<clus scale="  329.685">  1  5  2 -1</clus>
</clustering>
</event>
<event>
 9    1  0.2423659E-006  0.3008802E+03  0.7546771E-02  0.1129514E+00
         -1   -1    0    0    0  501 -0.00000000000E+00  0.00000000000E+00  0.15525360614E+03  0.15525360614E+03  0.00000000000E+00 0.  1.
          1   -1    0    0  502    0  0.00000000000E+00 -0.00000000000E+00 -0.10609092087E+04  0.10609092087E+04  0.00000000000E+00 0. -1.
         23    2    1    2    0    0  0.52366887544E+02  0.29031425191E+03 -0.66566439403E+03  0.73389267288E+03  0.92003880587E+02 0.  0.
         23    2    1    2    0    0  0.22264479329E+02 -0.15861520148E+02 -0.16063457673E+03  0.18698787375E+03  0.91726238496E+02 0.  0.
        -11    1    4    4    0    0  0.50998904257E+02  0.63799230329E+00 -0.49711827392E+02  0.71221914129E+02  0.00000000000E+00 0.  1.
         11    1    4    4    0    0 -0.28734424928E+02 -0.16499512451E+02 -0.11092274934E+03  0.11576595963E+03  0.00000000000E+00 0. -1.
        -11    1    3    3    0    0  0.95820812390E+01  0.67835097449E+02 -0.76618002793E+02  0.10278003249E+03  0.00000000000E+00 0.  1.
         11    1    3    3    0    0  0.42784806305E+02  0.22247915447E+03 -0.58904639124E+03  0.63111264039E+03  0.00000000000E+00 0. -1.
         21    1    1    2  502  501 -0.74631366873E+02 -0.27445273177E+03 -0.79356631759E+02  0.29528226818E+03  0.00000000000E+00 0.  1.
<scales pt_clust_5="13000.00000" pt_clust_6="13000.00000" pt_clust_7="13000.00000" pt_clust_8="13000.00000" pt_clust_9="286.46847"></scales>
<clustering>
<clus scale="   91.726">  5  6 -1 -1</clus>
<clus scale="   92.004">  7  8 -1 -1</clus>
<clus scale="   95.713">  2  5  1 -1</clus>
<clus scale="  286.468">  1  9  2 -1</clus>
<clus scale="   95.713">  2  5  1 -1</clus>
</clustering>
</event>
<event>
 9    1  0.2423659E-006  0.1114120E+03  0.7546771E-02  0.1258384E+00
         -1   -1    0    0    0  501 -0.00000000000E+00  0.00000000000E+00  0.20154827459E+03  0.20154827459E+03  0.00000000000E+00 0.  1.
          1   -1    0    0  502    0  0.00000000000E+00 -0.00000000000E+00 -0.10199805500E+03  0.10199805500E+03  0.00000000000E+00 0. -1.
         23    2    1    2    0    0  0.17287810045E+02 -0.67468980690E+02  0.12855397661E+03  0.17230644941E+03  0.91172670646E+02 0.  0.
         23    2    1    2    0    0 -0.23289236395E+02  0.43611926455E+02 -0.18135550746E+02  0.10434575326E+03  0.90081903632E+02 0.  0.
        -13    1    4    4    0    0 -0.53849868487E+02  0.37021130883E+02  0.48713659845E+01  0.65529403130E+02  0.00000000000E+00 0.  1.
         13    1    4    4    0    0  0.30560632092E+02  0.65907955718E+01 -0.23006916731E+02  0.38816350133E+02  0.00000000000E+00 0. -1.
        -13    1    3    3    0    0 -0.35448376770E+02 -0.34783031573E+02  0.37987700650E+02  0.62526091367E+02  0.00000000000E+00 0.  1.
         13    1    3    3    0    0  0.52736186815E+02 -0.32685949118E+02  0.90566275961E+02  0.10978035804E+03  0.00000000000E+00 0. -1.
         21    1    1    2  502  501  0.60014263498E+01  0.23857054235E+02 -0.10868206271E+02  0.26894126916E+02  0.00000000000E+00 0. -1.
<scales pt_clust_5="13000.00000" pt_clust_6="13000.00000" pt_clust_7="13000.00000" pt_clust_8="13000.00000" pt_clust_9="24.60033"></scales>
<clustering>
<clus scale="   24.600">  2  9  1 -1</clus>
<clus scale="   90.082">  5  6 -1 -1</clus>
<clus scale="   91.173">  7  8 -1 -1</clus>
<clus scale="  110.521">  2  5  1 -1</clus>
<clus scale="   24.600">  2  5  1 -1</clus>
</clustering>
</event>
<event>
 9    1  0.2423659E-006  0.9932734E+02  0.7546771E-02  0.1283675E+00
          3   -1    0    0  502    0  0.00000000000E+00  0.00000000000E+00  0.36201252954E+03  0.36201252954E+03  0.00000000000E+00 0. -1.
         -3   -1    0    0    0  501 -0.00000000000E+00 -0.00000000000E+00 -0.49673385226E+02  0.49673385226E+02  0.00000000000E+00 0.  1.
         23    2    1    2    0    0  0.15561720671E+02  0.15824089169E+01  0.66458159033E+02  0.11141115970E+03  0.88040265993E+02 0.  0.
         23    2    1    2    0    0 -0.47400188332E+02 -0.51258542505E+01  0.24739366249E+03  0.26820401731E+03  0.91960417695E+02 0.  0.
        -11    1    4    4    0    0 -0.63026342602E+00 -0.43225444149E+02  0.10649405097E+03  0.11493397734E+03  0.00000000000E+00 0.  1.
         11    1    4    4    0    0 -0.46769924906E+02  0.38099589899E+02  0.14089961152E+03  0.15327003997E+03  0.00000000000E+00 0. -1.
        -13    1    3    3    0    0 -0.22065705065E+02 -0.28609771191E+02  0.10704565602E+02  0.37682914860E+02  0.00000000000E+00 0.  1.
         13    1    3    3    0    0  0.37627425736E+02  0.30192180108E+02  0.55753593430E+02  0.73728244843E+02  0.00000000000E+00 0. -1.
         21    1    1    2  502  501  0.31838467661E+02  0.35434453336E+01 -0.15126772116E+01  0.32070737755E+02  0.00000000000E+00 0.  1.
<scales pt_clust_5="13000.00000" pt_clust_6="13000.00000" pt_clust_7="13000.00000" pt_clust_8="13000.00000" pt_clust_9="32.03504"></scales>
<clustering>
<clus scale="   32.035">  2  9  1 -1</clus>
<clus scale="   88.040">  7  8 -1 -1</clus>
<clus scale="   91.960">  5  6 -1 -1</clus>
<clus scale="   95.709">  2  7  1 -1</clus>
<clus scale="   99.327">  1  5  2 -1</clus>
</clustering>
</event>
<event>
 9    1  0.2423659E-006  0.9322966E+02  0.7546771E-02  0.1295537E+00
          1   -1    0    0  502    0  0.00000000000E+00  0.00000000000E+00  0.22284028059E+03  0.22284028059E+03  0.00000000000E+00 0. -1.
         -1   -1    0    0    0  501 -0.00000000000E+00 -0.00000000000E+00 -0.85856030628E+02  0.85856030628E+02  0.00000000000E+00 0.  1.
         23    2    1    2    0    0 -0.69601089739E+01 -0.12815159501E+02  0.38618684356E+02  0.99929955085E+02  0.91005064211E+02 0.  0.
         23    2    1    2    0    0 -0.24123311122E+02 -0.52891385677E+02  0.37178939600E+02  0.11375408174E+03  0.90433869449E+02 0.  0.
        -11    1    4    4    0    0 -0.38228737579E+02  0.14255154827E+01  0.42740755467E+02  0.57360619324E+02  0.00000000000E+00 0. -1.
         11    1    4    4    0    0  0.14105426457E+02 -0.54316901159E+02 -0.55618158677E+01  0.56393462412E+02  0.00000000000E+00 0.  1.
        -13    1    3    3    0    0 -0.24915247858E+02  0.33806935721E+02  0.14287136432E+02  0.44359900204E+02  0.00000000000E+00 0. -1.
         13    1    3    3    0    0  0.17955138884E+02 -0.46622095222E+02  0.24331547924E+02  0.55570054882E+02  0.00000000000E+00 0.  1.
         21    1    1    2  502  501  0.31083420096E+02  0.65706545177E+02  0.61186626005E+02  0.95012274396E+02  0.00000000000E+00 0.  1.
<scales pt_clust_5="13000.00000" pt_clust_6="13000.00000" pt_clust_7="13000.00000" pt_clust_8="13000.00000" pt_clust_9="72.68789"></scales>
<clustering>
<clus scale="   72.688">  1  9  2 -1</clus>
<clus scale="   90.434">  5  6 -1 -1</clus>
<clus scale="   91.005">  7  8 -1 -1</clus>
<clus scale="   92.672">  1  5  2 -1</clus>
<clus scale="   72.688">  1  5  2 -1</clus>
</clustering>
</event>
<event>
 9    1  0.2423659E-006  0.9540328E+02  0.7546771E-02  0.1292070E+00
         -1   -1    0    0    0  501 -0.00000000000E+00  0.00000000000E+00  0.77089199933E+02  0.77089199933E+02  0.00000000000E+00 0.  1.
          1   -1    0    0  502    0  0.00000000000E+00 -0.00000000000E+00 -0.16801358533E+03  0.16801358533E+03  0.00000000000E+00 0. -1.
         23    2    1    2    0    0 -0.12352717111E+02  0.68627143017E+01 -0.16906948202E+01  0.92682573983E+02  0.91583375148E+02 0.  0.
         23    2    1    2    0    0  0.79652459972E+01  0.19305304045E+02 -0.69961552782E+02  0.11962645605E+03  0.94761438419E+02 0.  0.
        -13    1    4    4    0    0 -0.38951255896E+02 -0.19518035702E+01 -0.52162856959E+02  0.65130434661E+02  0.00000000000E+00 0. -1.
         13    1    4    4    0    0  0.46916501894E+02  0.21257107615E+02 -0.17798695823E+02  0.54496021388E+02  0.00000000000E+00 0.  1.
        -13    1    3    3    0    0  0.19907086382E+02  0.40765674234E+02  0.39838773072E+01  0.45541229258E+02  0.00000000000E+00 0.  1.
         13    1    3    3    0    0 -0.32259803493E+02 -0.33902959932E+02 -0.56745721274E+01  0.47141344724E+02  0.00000000000E+00 0. -1.
         21    1    1    2  502  501  0.43874711135E+01 -0.26168018347E+02 -0.19272137794E+02  0.32793755231E+02  0.00000000000E+00 0.  1.
<scales pt_clust_5="13000.00000" pt_clust_6="13000.00000" pt_clust_7="13000.00000" pt_clust_8="13000.00000" pt_clust_9="26.53328"></scales>
<clustering>
<clus scale="   26.533">  2  9  1 -1</clus>
<clus scale="   91.583">  7  8 -1 -1</clus>
<clus scale="   92.247">  1  7  2 -1</clus>
<clus scale="   94.761">  5  6 -1 -1</clus>
<clus scale="   26.533">  2  5  1 -1</clus>
</clustering>
</event>
<event>
 9    1  0.2423659E-006  0.9162012E+02  0.7546771E-02  0.1300260E+00
          2   -1    0    0  502    0  0.00000000000E+00  0.00000000000E+00  0.32931158426E+03  0.32931158426E+03  0.00000000000E+00 0. -1.
         -2   -1    0    0    0  501 -0.00000000000E+00 -0.00000000000E+00 -0.56567493515E+02  0.56567493515E+02  0.00000000000E+00 0.  1.
         23    2    1    2    0    0  0.45631382790E+01  0.14487100702E+02  0.11722694145E+02  0.93280707249E+02  0.91286200869E+02 0.  0.
         23    2    1    2    0    0  0.15870997978E+02  0.11875259986E+02  0.14063986941E+03  0.16768143783E+03  0.89132381030E+02 0.  0.
        -11    1    3    3    0    0  0.17308076206E+02 -0.36173942041E+02  0.20546985258E+01  0.40154020605E+02  0.00000000000E+00 0. -1.
         11    1    3    3    0    0 -0.12744937927E+02  0.50661042742E+02  0.96679956189E+01  0.53126686644E+02  0.00000000000E+00 0.  1.
        -11    1    4    4    0    0 -0.17812415133E+02  0.21455763429E+02  0.59503610298E+01  0.28513833723E+02  0.00000000000E+00 0.  1.
         11    1    4    4    0    0  0.33683413111E+02 -0.95805034427E+01  0.13468950838E+03  0.13916760410E+03  0.00000000000E+00 0. -1.
         21    1    1    2  502  501 -0.20434136257E+02 -0.26362360688E+02  0.12038152719E+03  0.12491693269E+03  0.00000000000E+00 0. -1.
<scales pt_clust_5="13000.00000" pt_clust_6="13000.00000" pt_clust_7="13000.00000" pt_clust_8="13000.00000" pt_clust_9="33.35458"></scales>
<clustering>
<clus scale="   33.355">  1  9  2 -1</clus>
<clus scale="   89.132">  7  8 -1 -1</clus>
<clus scale="   89.474">  1  7  2 -1</clus>
<clus scale="   91.286">  5  6 -1 -1</clus>
<clus scale="   33.355">  1  5  2 -1</clus>
</clustering>
</event>
<event>
 9    1  0.2423659E-006  0.1514386E+03  0.7546771E-02  0.1217317E+00
          2   -1    0    0  502    0  0.00000000000E+00  0.00000000000E+00  0.23870627584E+03  0.23870627584E+03  0.00000000000E+00 0. -1.
         -2   -1    0    0    0  501 -0.00000000000E+00 -0.00000000000E+00 -0.15954011446E+03  0.15954011446E+03  0.00000000000E+00 0.  1.
         23    2    1    2    0    0  0.10527189067E+02 -0.38546976670E+02 -0.22514626360E+02  0.10412257415E+03  0.93476793521E+02 0.  0.
         23    2    1    2    0    0  0.57200776290E+02  0.12423229239E+03  0.51758664996E+02  0.17403522817E+03  0.94359472033E+02 0.  0.
        -11    1    4    4    0    0  0.70417769563E+00  0.69362993777E+02  0.63943259032E+02  0.94342255366E+02  0.00000000000E+00 0. -1.
         11    1    4    4    0    0  0.56496598594E+02  0.54869298616E+02 -0.12184594036E+02  0.79692972809E+02  0.00000000000E+00 0.  1.
        -13    1    3    3    0    0 -0.39850105488E+02 -0.31402632600E+02 -0.12732868513E+02  0.52309484630E+02  0.00000000000E+00 0. -1.
         13    1    3    3    0    0  0.50377294555E+02 -0.71443440700E+01 -0.97817578471E+01  0.51813089518E+02  0.00000000000E+00 0.  1.
         21    1    1    2  502  501 -0.67727965357E+02 -0.85685315722E+02  0.49922122745E+02  0.12008858797E+03  0.00000000000E+00 0.  1.
<scales pt_clust_5="13000.00000" pt_clust_6="13000.00000" pt_clust_7="13000.00000" pt_clust_8="13000.00000" pt_clust_9="118.44802"></scales>
<clustering>
<clus scale="   93.477">  7  8 -1 -1</clus>
<clus scale="   94.359">  5  6 -1 -1</clus>
<clus scale="  101.659">  2  7  1 -1</clus>
<clus scale="  118.448">  1  9  2 -1</clus>
<clus scale="  118.448">  1  5  2 -1</clus>
</clustering>
</event>
<event>
 9    1  0.2423659E-006  0.9902711E+02  0.7546771E-02  0.1282381E+00
          1   -1    0    0  502    0  0.00000000000E+00  0.00000000000E+00  0.31436301786E+02  0.31436301786E+02  0.00000000000E+00 0. -1.
         -1   -1    0    0    0  501 -0.00000000000E+00 -0.00000000000E+00 -0.49986036821E+03  0.49986036821E+03  0.00000000000E+00 0.  1.
         23    2    1    2    0    0  0.16297628005E+02 -0.13922437683E+02 -0.16775381872E+03  0.19251051974E+03  0.91975592226E+02 0.  0.
         23    2    1    2    0    0 -0.54721716093E+02  0.20607121552E+01 -0.16037564352E+03  0.19284202725E+03  0.92027103028E+02 0.  0.
        -13    1    3    3    0    0  0.53372296521E+02 -0.91509737143E+01 -0.12164114846E+03  0.13314995815E+03  0.00000000000E+00 0. -1.
         13    1    3    3    0    0 -0.37074668516E+02 -0.47714639686E+01 -0.46112670262E+02  0.59360561593E+02  0.00000000000E+00 0.  1.
        -13    1    4    4    0    0 -0.60840032740E+02  0.24876980197E+02 -0.15536102029E+03  0.16869327299E+03  0.00000000000E+00 0.  1.
         13    1    4    4    0    0  0.61183166473E+01 -0.22816268041E+02 -0.50146232300E+01  0.24148754255E+02  0.00000000000E+00 0. -1.
         21    1    1    2  502  501  0.38424088088E+02  0.11861725528E+02 -0.14029460418E+03  0.14594412301E+03  0.00000000000E+00 0. -1.
<scales pt_clust_5="13000.00000" pt_clust_6="13000.00000" pt_clust_7="13000.00000" pt_clust_8="13000.00000" pt_clust_9="40.21332"></scales>
<clustering>
<clus scale="   40.213">  2  9  1 -1</clus>
<clus scale="   91.976">  5  6 -1 -1</clus>
<clus scale="   92.027">  7  8 -1 -1</clus>
<clus scale="   98.979">  2  5  1 -1</clus>
<clus scale="   99.027">  1  5  2 -1</clus>
</clustering>
</event>
<event>
 9    1  0.2423659E-006  0.9716713E+02  0.7546771E-02  0.1286581E+00
         -1   -1    0    0    0  501 -0.00000000000E+00  0.00000000000E+00  0.15689829726E+03  0.15689829726E+03  0.00000000000E+00 0.  1.
          1   -1    0    0  502    0  0.00000000000E+00 -0.00000000000E+00 -0.14062197402E+03  0.14062197402E+03  0.00000000000E+00 0. -1.
         23    2    1    2    0    0 -0.10874554936E+02  0.18306407389E+02  0.10622196135E+03  0.14202054878E+03  0.91833276680E+02 0.  0.
         23    2    1    2    0    0 -0.21960236297E+01 -0.34011094161E+02 -0.93059114224E+02  0.13483160831E+03  0.91422025867E+02 0.  0.
        -13    1    4    4    0    0  0.34089791681E+01  0.31563526671E+02 -0.29504594228E+02  0.43340494176E+02  0.00000000000E+00 0.  1.
         13    1    4    4    0    0 -0.56050027979E+01 -0.65574620832E+02 -0.63554519995E+02  0.91491114134E+02  0.00000000000E+00 0. -1.
        -13    1    3    3    0    0  0.22012062915E+02  0.71021860207E+00  0.10215410701E+03  0.10450118135E+03  0.00000000000E+00 0. -1.
         13    1    3    3    0    0 -0.32886617851E+02  0.17596188787E+02  0.40678543419E+01  0.37519367431E+02  0.00000000000E+00 0.  1.
         21    1    1    2  502  501  0.13070578566E+02  0.15704686773E+02  0.31134761084E+01  0.20668114189E+02  0.00000000000E+00 0. -1.
<scales pt_clust_5="13000.00000" pt_clust_6="13000.00000" pt_clust_7="13000.00000" pt_clust_8="13000.00000" pt_clust_9="20.43226"></scales>
<clustering>
<clus scale="   20.432">  1  9  2 -1</clus>
<clus scale="   91.422">  5  6 -1 -1</clus>
<clus scale="   91.833">  7  8 -1 -1</clus>
<clus scale="   96.779">  2  5  1 -1</clus>
<clus scale="   96.779">  2  5  1 -1</clus>
</clustering>
</event>
<event>
 9    1  0.2423659E-006  0.9294152E+02  0.7546771E-02  0.1296146E+00
         -1   -1    0    0    0  501 -0.00000000000E+00  0.00000000000E+00  0.28575417789E+03  0.28575417789E+03  0.00000000000E+00 0.  1.
          1   -1    0    0  502    0  0.00000000000E+00 -0.00000000000E+00 -0.45336117185E+02  0.45336117185E+02  0.00000000000E+00 0. -1.
         23    2    1    2    0    0  0.25405692598E+02  0.10640434210E+02  0.14053843133E+03  0.17042860020E+03  0.92391498685E+02 0.  0.
         23    2    1    2    0    0 -0.13248732897E+01 -0.32568915995E+00  0.50837359508E+02  0.10506111882E+03  0.91932258770E+02 0.  0.
        -11    1    3    3    0    0  0.33537521548E+02 -0.25489883569E+02  0.24740515945E+02  0.48852764970E+02  0.00000000000E+00 0. -1.
         11    1    3    3    0    0 -0.81318289501E+01  0.36130317779E+02  0.11579791538E+03  0.12157583523E+03  0.00000000000E+00 0.  1.
        -11    1    4    4    0    0  0.21655385263E+02  0.38669619608E+02  0.36987605413E+02  0.57726754159E+02  0.00000000000E+00 0.  1.
         11    1    4    4    0    0 -0.22980258553E+02 -0.38995308768E+02  0.13849754095E+02  0.47334364658E+02  0.00000000000E+00 0. -1.
         21    1    1    2  502  501 -0.24080819308E+02 -0.10314745050E+02  0.49042269869E+02  0.55600576057E+02  0.00000000000E+00 0.  1.
<scales pt_clust_5="13000.00000" pt_clust_6="13000.00000" pt_clust_7="13000.00000" pt_clust_8="13000.00000" pt_clust_9="26.19694"></scales>
<clustering>
<clus scale="   26.197">  1  9  2 -1</clus>
<clus scale="   91.932">  7  8 -1 -1</clus>
<clus scale="   92.391">  5  6 -1 -1</clus>
<clus scale="   92.485">  2  7  1 -1</clus>
<clus scale="   92.485">  2  5  1 -1</clus>
</clustering>
</event>
<event>
 9    1  0.2423659E-006  0.9195061E+02  0.7546771E-02  0.1311566E+00
         -1   -1    0    0    0  501 -0.00000000000E+00  0.00000000000E+00  0.40562871460E+02  0.40562871460E+02  0.00000000000E+00 0.  1.
          1   -1    0    0  502    0  0.00000000000E+00 -0.00000000000E+00 -0.37472193355E+03  0.37472193355E+03  0.00000000000E+00 0. -1.
         23    2    1    2    0    0 -0.16996661016E+02 -0.22573214454E+02 -0.47958157147E+02  0.10597465691E+03  0.90178747910E+02 0.  0.
         23    2    1    2    0    0 -0.17676289967E+02 -0.20341603959E+01 -0.21087260214E+03  0.22281107510E+03  0.69720383074E+02 0.  0.
        -11    1    3    3    0    0 -0.30421079310E+02 -0.42469266728E+02  0.11747461461E+00  0.52240735859E+02  0.00000000000E+00 0.  1.
         11    1    3    3    0    0  0.13424418295E+02  0.19896052274E+02 -0.48075631762E+02  0.53733921055E+02  0.00000000000E+00 0. -1.
        -11    1    4    4    0    0 -0.35954660478E+02  0.18202590774E+02 -0.85699788781E+02  0.94702300490E+02  0.00000000000E+00 0.  1.
         11    1    4    4    0    0  0.18278370510E+02 -0.20236751170E+02 -0.12517281336E+03  0.12810877461E+03  0.00000000000E+00 0. -1.
         21    1    1    2  502  501  0.34672950983E+02  0.24607374850E+02 -0.75328302796E+02  0.86499072995E+02  0.00000000000E+00 0. -1.
<scales pt_clust_5="13000.00000" pt_clust_6="13000.00000" pt_clust_7="13000.00000" pt_clust_8="13000.00000" pt_clust_9="42.51748"></scales>
<clustering>
<clus scale="   42.517">  2  9  1 -1</clus>
<clus scale="   69.720">  7  8 -1 -1</clus>
<clus scale="   71.997">  2  7  1 -1</clus>
<clus scale="   90.179">  5  6 -1 -1</clus>
<clus scale="   42.517">  2  5  1 -1</clus>
</clustering>
</event>
<event>
 9    1  0.2423659E-006  0.1371377E+03  0.7546771E-02  0.1217449E+00
         -1   -1    0    0    0  501 -0.00000000000E+00  0.00000000000E+00  0.31112545695E+03  0.31112545695E+03  0.00000000000E+00 0.  1.
          1   -1    0    0  502    0  0.00000000000E+00 -0.00000000000E+00 -0.14168843696E+03  0.14168843696E+03  0.00000000000E+00 0. -1.
         23    2    1    2    0    0  0.10507717219E+03 -0.86763055066E+02  0.19408965925E+03  0.25436648993E+03  0.91991714473E+02 0.  0.
         23    2    1    2    0    0 -0.25697012850E+02  0.30071613199E+02 -0.95485119772E+01  0.99739430946E+02  0.91061197085E+02 0.  0.
        -11    1    3    3    0    0  0.58019962024E+02  0.37909668362E+01  0.44209334100E+02  0.73042129243E+02  0.00000000000E+00 0. -1.
         11    1    3    3    0    0  0.47057210167E+02 -0.90554021902E+02  0.14988032516E+03  0.18132436069E+03  0.00000000000E+00 0.  1.
        -13    1    4    4    0    0 -0.50041352159E+02 -0.74915511392E+01 -0.18895305940E+02  0.54011969516E+02  0.00000000000E+00 0.  1.
         13    1    4    4    0    0  0.24344339309E+02  0.37563164338E+02  0.93467939629E+01  0.45727461430E+02  0.00000000000E+00 0. -1.
         21    1    1    2  502  501 -0.79380159341E+02  0.56691441868E+02 -0.15104127288E+02  0.98707973027E+02  0.00000000000E+00 0. -1.
<scales pt_clust_5="13000.00000" pt_clust_6="13000.00000" pt_clust_7="13000.00000" pt_clust_8="13000.00000" pt_clust_9="97.54552"></scales>
<clustering>
<clus scale="   91.061">  7  8 -1 -1</clus>
<clus scale="   91.992">  5  6 -1 -1</clus>
<clus scale="   97.546">  2  9  1 -1</clus>
<clus scale="  136.515">  2  7  1 -1</clus>
<clus scale="   97.546">  2  5  1 -1</clus>
</clustering>
</event>
<event>
 9    1  0.2423659E-006  0.1097494E+03  0.7546771E-02  0.1261155E+00
         -2   -1    0    0    0  501 -0.00000000000E+00  0.00000000000E+00  0.15769995862E+03  0.15769995862E+03  0.00000000000E+00 0.  1.
          2   -1    0    0  502    0  0.00000000000E+00 -0.00000000000E+00 -0.17441273282E+03  0.17441273282E+03  0.00000000000E+00 0. -1.
         23    2    1    2    0    0 -0.51162438473E+01  0.76474576149E+02  0.89125384178E+02  0.15061802321E+03  0.94169623885E+02 0.  0.
         23    2    1    2    0    0  0.18227324973E+02 -0.49785376438E+02 -0.10678930705E+03  0.15174372684E+03  0.93868969594E+02 0.  0.
        -13    1    4    4    0    0  0.52301592374E+02 -0.31619749516E+02 -0.35528056620E+02  0.70693054338E+02  0.00000000000E+00 0.  1.
         13    1    4    4    0    0 -0.34074267402E+02 -0.18165626922E+02 -0.71261250433E+02  0.81050672506E+02  0.00000000000E+00 0. -1.
        -13    1    3    3    0    0  0.30228722997E+02  0.38684506193E+02  0.18164097145E+01  0.49128057744E+02  0.00000000000E+00 0. -1.
         13    1    3    3    0    0 -0.35344966844E+02  0.37790069956E+02  0.87308974464E+02  0.10148996547E+03  0.00000000000E+00 0.  1.
         21    1    1    2  502  501 -0.13111081126E+02 -0.26689199711E+02  0.95114868193E+00  0.29750941385E+02  0.00000000000E+00 0. -1.
<scales pt_clust_5="13000.00000" pt_clust_6="13000.00000" pt_clust_7="13000.00000" pt_clust_8="13000.00000" pt_clust_9="29.73573"></scales>
<clustering>
<clus scale="   29.736">  1  9  2 -1</clus>
<clus scale="   93.869">  5  6 -1 -1</clus>
<clus scale="   94.170">  7  8 -1 -1</clus>
<clus scale="  109.492">  2  5  1 -1</clus>
<clus scale="  109.492">  2  5  1 -1</clus>
</clustering>
</event>
<event>
 9    1  0.2423659E-006  0.1049690E+03  0.7546771E-02  0.1270635E+00
         -1   -1    0    0    0  501 -0.00000000000E+00  0.00000000000E+00  0.85808968651E+02  0.85808968651E+02  0.00000000000E+00 0.  1.
          1   -1    0    0  502    0  0.00000000000E+00 -0.00000000000E+00 -0.73670203934E+03  0.73670203934E+03  0.00000000000E+00 0. -1.
         23    2    1    2    0    0 -0.82306262550E+01 -0.60985137067E+02 -0.10632037950E+03  0.15241281132E+03  0.90214809245E+02 0.  0.
         23    2    1    2    0    0  0.16563122789E+02 -0.42731735511E+02 -0.55451894841E+03  0.56557284956E+03  0.10139549181E+03 0.  0.
        -11    1    4    4    0    0  0.24836087345E+02 -0.74408921069E+02 -0.38082327262E+03  0.38881857432E+03  0.00000000000E+00 0. -1.
         11    1    4    4    0    0 -0.82729645560E+01  0.31677185558E+02 -0.17369567579E+03  0.17675427524E+03  0.00000000000E+00 0.  1.
        -11    1    3    3    0    0 -0.23366270844E+02 -0.80555211367E+02 -0.75148069226E+02  0.11261597134E+03  0.00000000000E+00 0.  1.
         11    1    3    3    0    0  0.15135644589E+02  0.19570074300E+02 -0.31172310271E+02  0.39796839986E+02  0.00000000000E+00 0. -1.
         21    1    1    2  502  501 -0.83324965345E+01  0.10371687258E+03  0.99462572138E+01  0.10452534711E+03  0.00000000000E+00 0.  1.
<scales pt_clust_5="13000.00000" pt_clust_6="13000.00000" pt_clust_7="13000.00000" pt_clust_8="13000.00000" pt_clust_9="104.05105"></scales>
<clustering>
<clus scale="   90.215">  7  8 -1 -1</clus>
<clus scale="  101.395">  5  6 -1 -1</clus>
<clus scale="  104.051">  1  9  2 -1</clus>
<clus scale="  104.051">  1  7  2 -1</clus>
<clus scale="  104.969">  2  5  1 -1</clus>
</clustering>
</event>
<event>
 9    1  0.2423659E-006  0.9837033E+02  0.7546771E-02  0.1284331E+00
          1   -1    0    0  502    0  0.00000000000E+00  0.00000000000E+00  0.17248940282E+03  0.17248940282E+03  0.00000000000E+00 0. -1.
         -1   -1    0    0    0  501 -0.00000000000E+00 -0.00000000000E+00 -0.14072045679E+03  0.14072045679E+03  0.00000000000E+00 0.  1.
         23    2    1    2    0    0  0.69709143731E+02  0.36578405037E+01 -0.35491885761E+02  0.11941051835E+03  0.90146843653E+02 0.  0.
         23    2    1    2    0    0  0.12137178779E+02 -0.21637217364E+02  0.17082904403E+02  0.96126914768E+02  0.91285693490E+02 0.  0.
        -11    1    4    4    0    0  0.55738306702E+01 -0.51231666198E+02  0.33683390725E+02  0.61565591206E+02  0.00000000000E+00 0. -1.
         11    1    4    4    0    0  0.65633481092E+01  0.29594448834E+02 -0.16600486322E+02  0.34561323562E+02  0.00000000000E+00 0.  1.
        -13    1    3    3    0    0 -0.18430177688E+02 -0.10124242854E+02 -0.19697963558E+02  0.28812870584E+02  0.00000000000E+00 0. -1.
         13    1    3    3    0    0  0.88139321419E+02  0.13782083357E+02 -0.15793922204E+02  0.90597647764E+02  0.00000000000E+00 0.  1.
         21    1    1    2  502  501 -0.81846322510E+02  0.17979376860E+02  0.50177927391E+02  0.97672426498E+02  0.00000000000E+00 0. -1.
<scales pt_clust_5="13000.00000" pt_clust_6="13000.00000" pt_clust_7="13000.00000" pt_clust_8="13000.00000" pt_clust_9="83.79784"></scales>
<clustering>
<clus scale="   83.798">  1  9  2 -1</clus>
<clus scale="   90.147">  7  8 -1 -1</clus>
<clus scale="   91.286">  5  6 -1 -1</clus>
<clus scale="   97.314">  2  7  1 -1</clus>
<clus scale="   83.798">  1  5  2 -1</clus>
</clustering>
</event>
<event>
 9    1  0.2423659E-006  0.1033086E+03  0.7546771E-02  0.1274151E+00
          1   -1    0    0  502    0  0.00000000000E+00  0.00000000000E+00  0.10024408888E+04  0.10024408888E+04  0.00000000000E+00 0. -1.
         -1   -1    0    0    0  501 -0.00000000000E+00 -0.00000000000E+00 -0.63498868305E+02  0.63498868305E+02  0.00000000000E+00 0.  1.
         23    2    1    2    0    0  0.59468498835E+02  0.48712717523E+01  0.23852955038E+00  0.10896158031E+03  0.91172021181E+02 0.  0.
         23    2    1    2    0    0  0.26445700902E+02  0.38793102526E+01  0.36477939039E+03  0.37659322213E+03  0.89688500686E+02 0.  0.
        -11    1    3    3    0    0  0.82651515955E+02  0.10384201650E+00  0.10207791629E+02  0.83279546605E+02  0.00000000000E+00 0.  1.
         11    1    3    3    0    0 -0.23183017120E+02  0.47674297358E+01 -0.99692620783E+01  0.25682033709E+02  0.00000000000E+00 0. -1.
        -11    1    4    4    0    0  0.29230564266E+02  0.42917209948E+02  0.24966553661E+03  0.25500822138E+03  0.00000000000E+00 0.  1.
         11    1    4    4    0    0 -0.27848633640E+01 -0.39037899695E+02  0.11511385378E+03  0.12158500075E+03  0.00000000000E+00 0. -1.
         21    1    1    2  502  501 -0.85914199737E+02 -0.87505820049E+01  0.57392410058E+03  0.58038495469E+03  0.00000000000E+00 0. -1.
<scales pt_clust_5="13000.00000" pt_clust_6="13000.00000" pt_clust_7="13000.00000" pt_clust_8="13000.00000" pt_clust_9="86.35868"></scales>
<clustering>
<clus scale="   86.359">  1  9  2 -1</clus>
<clus scale="   89.689">  7  8 -1 -1</clus>
<clus scale="   91.172">  5  6 -1 -1</clus>
<clus scale="  102.002">  1  7  2 -1</clus>
<clus scale="   86.359">  1  5  2 -1</clus>
</clustering>
</event>
<event>
 9    1  0.2423659E-006  0.9182196E+02  0.7546771E-02  0.1302066E+00
          3   -1    0    0  502    0  0.00000000000E+00  0.00000000000E+00  0.65282948082E+03  0.65282948082E+03  0.00000000000E+00 0. -1.
         -3   -1    0    0    0  501 -0.00000000000E+00 -0.00000000000E+00 -0.22762787657E+02  0.22762787657E+02  0.00000000000E+00 0.  1.
         23    2    1    2    0    0 -0.26055832781E+01 -0.15683218808E+02  0.13256301251E+03  0.16173132161E+03  0.91276041138E+02 0.  0.
         23    2    1    2    0    0 -0.25863447237E+02 -0.10107913082E+02  0.36654010517E+03  0.37737971635E+03  0.85397387557E+02 0.  0.
        -11    1    3    3    0    0  0.30114395823E+02 -0.37694036549E+02  0.98256941361E+02  0.10946297891E+03  0.00000000000E+00 0.  1.
         11    1    3    3    0    0 -0.32719979101E+02  0.22010817741E+02  0.34306071151E+02  0.52268342693E+02  0.00000000000E+00 0. -1.
        -11    1    4    4    0    0  0.29456128163E+02 -0.17059448315E+02  0.14079249692E+03  0.14484894012E+03  0.00000000000E+00 0.  1.
         11    1    4    4    0    0 -0.55319575400E+02  0.69515352325E+01  0.22574760825E+03  0.23253077623E+03  0.00000000000E+00 0. -1.
         21    1    1    2  502  501  0.28469030515E+02  0.25791131891E+02  0.13096357548E+03  0.13648123053E+03  0.00000000000E+00 0. -1.
<scales pt_clust_5="13000.00000" pt_clust_6="13000.00000" pt_clust_7="13000.00000" pt_clust_8="13000.00000" pt_clust_9="38.41443"></scales>
<clustering>
<clus scale="   38.414">  1  9  2 -1</clus>
<clus scale="   85.397">  7  8 -1 -1</clus>
<clus scale="   85.981">  1  7  2 -1</clus>
<clus scale="   91.276">  5  6 -1 -1</clus>
<clus scale="   38.414">  1  5  2 -1</clus>
</clustering>
</event>
<event>
 9    1  0.2423659E-006  0.1308399E+03  0.7546771E-02  0.1226267E+00
         -1   -1    0    0    0  501 -0.00000000000E+00  0.00000000000E+00  0.58734733346E+03  0.58734733346E+03  0.00000000000E+00 0.  1.
          1   -1    0    0  502    0  0.00000000000E+00 -0.00000000000E+00 -0.45558027339E+02  0.45558027339E+02  0.00000000000E+00 0. -1.
         23    2    1    2    0    0  0.64027975141E+02 -0.50342621168E+02  0.25559237913E+03  0.28331788076E+03  0.91146015721E+02 0.  0.
         23    2    1    2    0    0 -0.45778817019E+02  0.94800275414E+02  0.14812785291E+03  0.20339382761E+03  0.91347665519E+02 0.  0.
        -13    1    3    3    0    0  0.76320138786E+02 -0.11695119166E+02  0.12850911177E+03  0.14992041623E+03  0.00000000000E+00 0.  1.
         13    1    3    3    0    0 -0.12292163645E+02 -0.38647502003E+02  0.12708326737E+03  0.13339746453E+03  0.00000000000E+00 0. -1.
        -13    1    4    4    0    0 -0.63096851963E+02  0.35033120570E+02  0.10604698919E+03  0.12827508012E+03  0.00000000000E+00 0. -1.
         13    1    4    4    0    0  0.17318034944E+02  0.59767154844E+02  0.42080863722E+02  0.75118747488E+02  0.00000000000E+00 0.  1.
         21    1    1    2  502  501 -0.18249158122E+02 -0.44457654246E+02  0.13806907408E+03  0.14619365243E+03  0.00000000000E+00 0.  1.
<scales pt_clust_5="13000.00000" pt_clust_6="13000.00000" pt_clust_7="13000.00000" pt_clust_8="13000.00000" pt_clust_9="48.05741"></scales>
<clustering>
<clus scale="   48.057">  1  9  2 -1</clus>
<clus scale="   91.146">  5  6 -1 -1</clus>
<clus scale="   91.348">  7  8 -1 -1</clus>
<clus scale="  130.699">  1  5  2 -1</clus>
<clus scale="  130.840">  2  5  1 -1</clus>
</clustering>
</event>
<event>
 9    1  0.2423659E-006  0.1010963E+03  0.7546771E-02  0.1278397E+00
          1   -1    0    0  502    0  0.00000000000E+00  0.00000000000E+00  0.61913010102E+03  0.61913010102E+03  0.00000000000E+00 0. -1.
         -1   -1    0    0    0  501 -0.00000000000E+00 -0.00000000000E+00 -0.30657236850E+02  0.30657236850E+02  0.00000000000E+00 0.  1.
         23    2    1    2    0    0  0.16458243049E+02  0.52090766626E+02  0.12943025818E+03  0.16799855593E+03  0.92124922424E+02 0.  0.
         23    2    1    2    0    0 -0.51307880262E+01 -0.35339117662E+02  0.44762854434E+03  0.45856789083E+03  0.92940941306E+02 0.  0.
        -11    1    4    4    0    0  0.19396128109E+02  0.26369665982E+02  0.12851676104E+03  0.13262023578E+03  0.00000000000E+00 0. -1.
         11    1    4    4    0    0 -0.24526916135E+02 -0.61708783644E+02  0.31911178330E+03  0.32594765505E+03  0.00000000000E+00 0.  1.
        -13    1    3    3    0    0 -0.85368811887E+01  0.68180877916E+02  0.55539118910E+02  0.88352160036E+02  0.00000000000E+00 0. -1.
         13    1    3    3    0    0  0.24995124238E+02 -0.16090111290E+02  0.73891139267E+02  0.79646395896E+02  0.00000000000E+00 0.  1.
         21    1    1    2  502  501 -0.11327455023E+02 -0.16751648964E+02  0.11414061653E+02  0.23220891106E+02  0.00000000000E+00 0.  1.
<scales pt_clust_5="13000.00000" pt_clust_6="13000.00000" pt_clust_7="13000.00000" pt_clust_8="13000.00000" pt_clust_9="20.22199"></scales>
<clustering>
<clus scale="   20.222">  2  9  1 -1</clus>
<clus scale="   92.125">  7  8 -1 -1</clus>
<clus scale="   92.941">  5  6 -1 -1</clus>
<clus scale="  100.347">  2  7  1 -1</clus>
<clus scale="  101.096">  1  5  2 -1</clus>
</clustering>
</event>
<event>
 9    1  0.2423659E-006  0.1122502E+03  0.7546771E-02  0.1260204E+00
          2   -1    0    0  502    0  0.00000000000E+00  0.00000000000E+00  0.25715421131E+03  0.25715421131E+03  0.00000000000E+00 0. -1.
         -2   -1    0    0    0  501 -0.00000000000E+00 -0.00000000000E+00 -0.13986600713E+03  0.13986600713E+03  0.00000000000E+00 0.  1.
         23    2    1    2    0    0 -0.32102159266E+02 -0.52144607996E+02 -0.91552284881E+02  0.14435302435E+03  0.93307909632E+02 0.  0.
         23    2    1    2    0    0  0.18869402629E+02  0.68677191478E+02  0.12575476567E+03  0.16692531636E+03  0.83529570618E+02 0.  0.
        -11    1    4    4    0    0  0.54766304047E+01  0.86347935064E+02  0.10882608913E+03  0.13902905109E+03  0.00000000000E+00 0. -1.
         11    1    4    4    0    0  0.13392772224E+02 -0.17670743586E+02  0.16928676536E+02  0.27896265270E+02  0.00000000000E+00 0.  1.
        -13    1    3    3    0    0  0.19176346698E+02 -0.41357802298E+02 -0.77808900484E+02  0.90179959404E+02  0.00000000000E+00 0.  1.
         13    1    3    3    0    0 -0.51278505964E+02 -0.10786805698E+02 -0.13743384396E+02  0.54173064947E+02  0.00000000000E+00 0. -1.
         21    1    1    2  502  501  0.13232756637E+02 -0.16532583482E+02  0.83085723396E+02  0.85741877732E+02  0.00000000000E+00 0.  1.
<scales pt_clust_5="13000.00000" pt_clust_6="13000.00000" pt_clust_7="13000.00000" pt_clust_8="13000.00000" pt_clust_9="21.17622"></scales>
<clustering>
<clus scale="   21.176">  1  9  2 -1</clus>
<clus scale="   83.530">  5  6 -1 -1</clus>
<clus scale="   93.308">  7  8 -1 -1</clus>
<clus scale="  104.264">  1  5  2 -1</clus>
<clus scale="   21.176">  1  5  2 -1</clus>
</clustering>
</event>
<event>
 9    1  0.2423659E-006  0.9256237E+02  0.7546771E-02  0.1297203E+00
          2   -1    0    0  502    0  0.00000000000E+00  0.00000000000E+00  0.59324341419E+03  0.59324341419E+03  0.00000000000E+00 0. -1.
         -2   -1    0    0    0  501 -0.00000000000E+00 -0.00000000000E+00 -0.63272336442E+02  0.63272336442E+02  0.00000000000E+00 0.  1.
         23    2    1    2    0    0 -0.75307231442E+01 -0.19986817577E+02 -0.10940688607E+01  0.92107306820E+02  0.89590034685E+02 0.  0.
         23    2    1    2    0    0 -0.61787315033E+02  0.18638480810E+02  0.22916918359E+03  0.25465373293E+03  0.90360078134E+02 0.  0.
        -11    1    3    3    0    0 -0.30919296677E+02  0.18303970643E+02 -0.22499432413E+02  0.42394135293E+02  0.00000000000E+00 0. -1.
         11    1    3    3    0    0  0.23388573533E+02 -0.38290788221E+02  0.21405363552E+02  0.49713171527E+02  0.00000000000E+00 0.  1.
        -13    1    4    4    0    0  0.21986307955E+02  0.14927458518E+02  0.67216644650E+02  0.72279347488E+02  0.00000000000E+00 0.  1.
         13    1    4    4    0    0 -0.83773622989E+02  0.37110222925E+01  0.16195253894E+03  0.18237438544E+03  0.00000000000E+00 0. -1.
         21    1    1    2  502  501  0.69318038177E+02  0.13483367670E+01  0.30189596302E+03  0.30975471089E+03  0.00000000000E+00 0. -1.
<scales pt_clust_5="13000.00000" pt_clust_6="13000.00000" pt_clust_7="13000.00000" pt_clust_8="13000.00000" pt_clust_9="69.33115"></scales>
<clustering>
<clus scale="   69.331">  1  9  2 -1</clus>
<clus scale="   89.590">  5  6 -1 -1</clus>
<clus scale="   90.360">  7  8 -1 -1</clus>
<clus scale="   91.811">  2  5  1 -1</clus>
<clus scale="   69.331">  1  5  2 -1</clus>
</clustering>
</event>
<event>
 9    1  0.2423659E-006  0.1247741E+03  0.7546771E-02  0.1237377E+00
          2   -1    0    0  502    0  0.00000000000E+00  0.00000000000E+00  0.34250490837E+03  0.34250490837E+03  0.00000000000E+00 0. -1.
         -2   -1    0    0    0  501 -0.00000000000E+00 -0.00000000000E+00 -0.61817024627E+02  0.61817024627E+02  0.00000000000E+00 0.  1.
         23    2    1    2    0    0  0.60639404982E+02 -0.87912094172E+02  0.91414047652E+02  0.16612449365E+03  0.88516357487E+02 0.  0.
         23    2    1    2    0    0 -0.42690089382E+02  0.66754411213E+02  0.16968035558E+03  0.20423083873E+03  0.81487528335E+02 0.  0.
        -13    1    3    3    0    0  0.28356722785E+02 -0.61237554463E+02  0.21421917904E+01  0.67518373717E+02  0.00000000000E+00 0.  1.
         13    1    3    3    0    0  0.32282682198E+02 -0.26674539709E+02  0.89271855862E+02  0.98606119930E+02  0.00000000000E+00 0. -1.
        -13    1    4    4    0    0 -0.64238957878E+02  0.35997486059E+02  0.91114791688E+02  0.11715104770E+03  0.00000000000E+00 0. -1.
         13    1    4    4    0    0  0.21548868497E+02  0.30756925154E+02  0.78565563887E+02  0.87079791038E+02  0.00000000000E+00 0.  1.
         21    1    1    2  502  501 -0.17949315601E+02  0.21157682959E+02  0.19593480515E+02  0.33966600617E+02  0.00000000000E+00 0.  1.
<scales pt_clust_5="13000.00000" pt_clust_6="13000.00000" pt_clust_7="13000.00000" pt_clust_8="13000.00000" pt_clust_9="27.74573"></scales>
<clustering>
<clus scale="   27.746">  2  9  1 -1</clus>
<clus scale="   81.488">  7  8 -1 -1</clus>
<clus scale="   88.516">  5  6 -1 -1</clus>
<clus scale="  119.890">  1  7  2 -1</clus>
<clus scale="  119.890">  1  5  2 -1</clus>
</clustering>
</event>
<event>
 9    1  0.2423659E-006  0.9638431E+02  0.7546771E-02  0.1288381E+00
         -1   -1    0    0    0  501 -0.00000000000E+00  0.00000000000E+00  0.26916551523E+03  0.26916551523E+03  0.00000000000E+00 0.  1.
          1   -1    0    0  502    0  0.00000000000E+00 -0.00000000000E+00 -0.59306372230E+02  0.59306372230E+02  0.00000000000E+00 0. -1.
         23    2    1    2    0    0 -0.18884157529E+01 -0.84567484722E+01  0.77497595847E+02  0.11966214595E+03  0.90763809428E+02 0.  0.
         23    2    1    2    0    0  0.38309185043E+02  0.44896039994E+02  0.10496842593E+03  0.15046012718E+03  0.90203278004E+02 0.  0.
        -11    1    4    4    0    0  0.18035642870E+02  0.57005041347E+02  0.11100774063E+03  0.12608559645E+03  0.00000000000E+00 0.  1.
         11    1    4    4    0    0  0.20273542173E+02 -0.12109001353E+02 -0.60393147032E+01  0.24374530726E+02  0.00000000000E+00 0. -1.
        -11    1    3    3    0    0 -0.35038924062E+02  0.25224819839E+02  0.44643646561E+02  0.62105337239E+02  0.00000000000E+00 0.  1.
         11    1    3    3    0    0  0.33150508309E+02 -0.33681568311E+02  0.32853949287E+02  0.57556808709E+02  0.00000000000E+00 0. -1.
         21    1    1    2  502  501 -0.36420769290E+02 -0.36439291522E+02  0.27393121223E+02  0.58349614332E+02  0.00000000000E+00 0. -1.
<scales pt_clust_5="13000.00000" pt_clust_6="13000.00000" pt_clust_7="13000.00000" pt_clust_8="13000.00000" pt_clust_9="51.51984"></scales>
<clustering>
<clus scale="   51.520">  2  9  1 -1</clus>
<clus scale="   90.203">  5  6 -1 -1</clus>
<clus scale="   90.764">  7  8 -1 -1</clus>
<clus scale="   95.857">  2  5  1 -1</clus>
<clus scale="   51.520">  2  5  1 -1</clus>
</clustering>
</event>
<event>
 9    1  0.2423659E-006  0.1046371E+03  0.7546771E-02  0.1273761E+00
          1   -1    0    0  502    0  0.00000000000E+00  0.00000000000E+00  0.31916944810E+03  0.31916944810E+03  0.00000000000E+00 0. -1.
         -1   -1    0    0    0  501 -0.00000000000E+00 -0.00000000000E+00 -0.14597829725E+03  0.14597829725E+03  0.00000000000E+00 0.  1.
         23    2    1    2    0    0 -0.27189650923E+02  0.62761153580E+01 -0.98719605133E+02  0.13890704515E+03  0.93653296858E+02 0.  0.
         23    2    1    2    0    0  0.47455675989E+02 -0.72537334478E+01  0.28514254039E+03  0.30201782615E+03  0.87200006541E+02 0.  0.
        -11    1    4    4    0    0 -0.69282701603E+01 -0.36384689511E+02  0.12615107366E+03  0.13147600520E+03  0.00000000000E+00 0.  1.
         11    1    4    4    0    0  0.54383946149E+02  0.29130956063E+02  0.15899146673E+03  0.17054182095E+03  0.00000000000E+00 0. -1.
        -11    1    3    3    0    0  0.22517921986E+02 -0.10679995883E+02  0.23227968044E+01  0.25030271825E+02  0.00000000000E+00 0. -1.
         11    1    3    3    0    0 -0.49707572909E+02  0.16956111241E+02 -0.10104240194E+03  0.11387677332E+03  0.00000000000E+00 0.  1.
         21    1    1    2  502  501 -0.20266025065E+02  0.97761808976E+00 -0.13231784401E+02  0.24222874056E+02  0.00000000000E+00 0. -1.
<scales pt_clust_5="13000.00000" pt_clust_6="13000.00000" pt_clust_7="13000.00000" pt_clust_8="13000.00000" pt_clust_9="20.28959"></scales>
<clustering>
<clus scale="   20.290">  2  9  1 -1</clus>
<clus scale="   87.200">  5  6 -1 -1</clus>
<clus scale="   93.653">  7  8 -1 -1</clus>
<clus scale="   98.903">  1  5  2 -1</clus>
<clus scale="   98.903">  1  5  2 -1</clus>
</clustering>
</event>
<event>
 9    1  0.2423659E-006  0.9691415E+02  0.7546771E-02  0.1288297E+00
         -4   -1    0    0    0  501 -0.00000000000E+00  0.00000000000E+00  0.84703335112E+03  0.84703335112E+03  0.00000000000E+00 0.  1.
          4   -1    0    0  502    0  0.00000000000E+00 -0.00000000000E+00 -0.14879868773E+02  0.14879868773E+02  0.00000000000E+00 0. -1.
         23    2    1    2    0    0  0.14531278417E+02 -0.34972831783E+01  0.47789997979E+03  0.48702729102E+03  0.92648812578E+02 0.  0.
         23    2    1    2    0    0 -0.35620567657E+02  0.65839003869E+00  0.24250476812E+03  0.26112918366E+03  0.90059034401E+02 0.  0.
        -11    1    4    4    0    0 -0.55693854646E+02  0.17398794017E+02  0.21663004499E+03  0.22435039530E+03  0.00000000000E+00 0.  1.
         11    1    4    4    0    0  0.20073286988E+02 -0.16740403978E+02  0.25874723134E+02  0.36778788358E+02  0.00000000000E+00 0. -1.
        -13    1    3    3    0    0 -0.27480744189E+02 -0.32642998784E+02  0.22486605419E+03  0.22887878670E+03  0.00000000000E+00 0.  1.
         13    1    3    3    0    0  0.42012022606E+02  0.29145715606E+02  0.25303392560E+03  0.25814850433E+03  0.00000000000E+00 0. -1.
         21    1    1    2  502  501  0.21089289240E+02  0.28388931396E+01  0.11174873442E+03  0.11375674521E+03  0.00000000000E+00 0.  1.
<scales pt_clust_5="13000.00000" pt_clust_6="13000.00000" pt_clust_7="13000.00000" pt_clust_8="13000.00000" pt_clust_9="21.27951"></scales>
<clustering>
<clus scale="   21.280">  1  9  2 -1</clus>
<clus scale="   90.059">  5  6 -1 -1</clus>
<clus scale="   92.649">  7  8 -1 -1</clus>
<clus scale="   94.441">  2  5  1 -1</clus>
<clus scale="   94.441">  2  5  1 -1</clus>
</clustering>
</event>
<event>
 9    1  0.2423659E-006  0.1301432E+03  0.7546771E-02  0.1243876E+00
          2   -1    0    0  502    0  0.00000000000E+00  0.00000000000E+00  0.99066530794E+03  0.99066530794E+03  0.00000000000E+00 0. -1.
         -2   -1    0    0    0  501 -0.00000000000E+00 -0.00000000000E+00 -0.41878410841E+02  0.41878410841E+02  0.00000000000E+00 0.  1.
         23    2    1    2    0    0 -0.12529518392E+02 -0.11283146368E+02  0.61088884872E+02  0.11093920480E+03  0.91056889274E+02 0.  0.
         23    2    1    2    0    0 -0.59357463812E+02 -0.52227266114E+02  0.26259925324E+03  0.28918869413E+03  0.91764574733E+02 0.  0.
        -13    1    3    3    0    0  0.35875323934E+02  0.13365515438E+02  0.24955416497E+02  0.45699547950E+02  0.00000000000E+00 0. -1.
         13    1    3    3    0    0 -0.48404842326E+02 -0.24648661806E+02  0.36133468375E+02  0.65239656853E+02  0.00000000000E+00 0.  1.
        -13    1    4    4    0    0 -0.83940741072E+02 -0.41835249849E+02  0.19119743192E+03  0.21296171983E+03  0.00000000000E+00 0.  1.
         13    1    4    4    0    0  0.24583277261E+02 -0.10392016265E+02  0.71401821321E+02  0.76226974300E+02  0.00000000000E+00 0. -1.
         21    1    1    2  502  501  0.71886982204E+02  0.63510412482E+02  0.62509875899E+03  0.63241581985E+03  0.00000000000E+00 0. -1.
<scales pt_clust_5="13000.00000" pt_clust_6="13000.00000" pt_clust_7="13000.00000" pt_clust_8="13000.00000" pt_clust_9="92.28498"></scales>
<clustering>
<clus scale="   91.057">  5  6 -1 -1</clus>
<clus scale="   91.765">  7  8 -1 -1</clus>
<clus scale="   92.605">  2  5  1 -1</clus>
<clus scale="   92.285">  1  9  2 -1</clus>
<clus scale="   92.285">  1  5  2 -1</clus>
</clustering>
</event>
<event>
 9    1  0.2423659E-006  0.2635669E+03  0.7546771E-02  0.1105213E+00
         -1   -1    0    0    0  501 -0.00000000000E+00  0.00000000000E+00  0.11306436596E+04  0.11306436596E+04  0.00000000000E+00 0.  1.
          1   -1    0    0  502    0  0.00000000000E+00 -0.00000000000E+00 -0.39811721080E+03  0.39811721080E+03  0.00000000000E+00 0. -1.
         23    2    1    2    0    0 -0.21568876977E+03 -0.11737201662E+03  0.10273822101E+04  0.10603192540E+04  0.92004777689E+02 0.  0.
         23    2    1    2    0    0  0.21682065340E+03  0.17939409250E+03 -0.27521501792E+03  0.40337412943E+03  0.88169983790E+02 0.  0.
        -13    1    4    4    0    0  0.40051004086E+02  0.39279717949E+02 -0.13179296719E+02  0.57625281192E+02  0.00000000000E+00 0.  1.
         13    1    4    4    0    0  0.17676964931E+03  0.14011437455E+03 -0.26203572120E+03  0.34574884824E+03  0.00000000000E+00 0. -1.
        -13    1    3    3    0    0 -0.97264652581E+02 -0.34501631039E+02  0.60877187358E+03  0.61745766595E+03  0.00000000000E+00 0.  1.
         13    1    3    3    0    0 -0.11842411719E+03 -0.82870385579E+02  0.41861033654E+03  0.44286158808E+03  0.00000000000E+00 0. -1.
         21    1    1    2  502  501 -0.11318836290E+01 -0.62022075885E+02 -0.19640743378E+02  0.65067486951E+02  0.00000000000E+00 0.  1.
<scales pt_clust_5="13000.00000" pt_clust_6="13000.00000" pt_clust_7="13000.00000" pt_clust_8="13000.00000" pt_clust_9="62.03240"></scales>
<clustering>
<clus scale="   62.032">  2  9  1 -1</clus>
<clus scale="   88.170">  5  6 -1 -1</clus>
<clus scale="   92.005">  7  8 -1 -1</clus>
<clus scale="  262.253">  2  5  1 -1</clus>
<clus scale="   62.032">  2  5  1 -1</clus>
</clustering>
</event>
<event>
 9    1  0.2423659E-006  0.1333618E+03  0.7546771E-02  0.1235058E+00
         -2   -1    0    0    0  501 -0.00000000000E+00  0.00000000000E+00  0.13451883493E+03  0.13451883493E+03  0.00000000000E+00 0.  1.
          2   -1    0    0  502    0  0.00000000000E+00 -0.00000000000E+00 -0.66615347659E+03  0.66615347659E+03  0.00000000000E+00 0. -1.
         23    2    1    2    0    0 -0.13597776133E+02  0.73757563479E+02 -0.38643807719E+01  0.11894467496E+03  0.92237869531E+02 0.  0.
         23    2    1    2    0    0 -0.44973874435E+02  0.24492866677E+02 -0.55473504865E+03  0.56420791458E+03  0.89314314497E+02 0.  0.
        -11    1    4    4    0    0 -0.56932322366E+02 -0.16605461072E+02 -0.35710414056E+03  0.36199502466E+03  0.00000000000E+00 0. -1.
         11    1    4    4    0    0  0.11958447931E+02  0.41098327749E+02 -0.19763090809E+03  0.20221288993E+03  0.00000000000E+00 0.  1.
        -13    1    3    3    0    0  0.27607620975E+02  0.71884992270E+02  0.33204985030E+01  0.77075667755E+02  0.00000000000E+00 0.  1.
         13    1    3    3    0    0 -0.41205397109E+02  0.18725712088E+01 -0.71848792748E+01  0.41869007201E+02  0.00000000000E+00 0. -1.
         21    1    1    2  502  501  0.58571650568E+02 -0.98250430156E+02  0.26964787765E+02  0.11751972198E+03  0.00000000000E+00 0.  1.
<scales pt_clust_5="13000.00000" pt_clust_6="13000.00000" pt_clust_7="13000.00000" pt_clust_8="13000.00000" pt_clust_9="96.31999"></scales>
<clustering>
<clus scale="   89.314">  5  6 -1 -1</clus>
<clus scale="   92.238">  7  8 -1 -1</clus>
<clus scale="  102.954">  2  5  1 -1</clus>
<clus scale="   96.320">  2  9  1 -1</clus>
<clus scale="  102.954">  2  5  1 -1</clus>
</clustering>
</event>
<event>
 9    1  0.2423659E-006  0.1029438E+03  0.7546771E-02  0.1274756E+00
          3   -1    0    0  502    0  0.00000000000E+00  0.00000000000E+00  0.70959584779E+02  0.70959584779E+02  0.00000000000E+00 0. -1.
         -3   -1    0    0    0  501 -0.00000000000E+00 -0.00000000000E+00 -0.39714896970E+03  0.39714896970E+03  0.00000000000E+00 0.  1.
         23    2    1    2    0    0 -0.83142197263E+01 -0.49171357168E+02 -0.32621852202E+03  0.34209300847E+03  0.90122992183E+02 0.  0.
         23    2    1    2    0    0  0.22758790568E+02  0.27922667958E+02  0.95464415864E+01  0.98616066005E+02  0.91303647207E+02 0.  0.
        -11    1    4    4    0    0 -0.28379868524E+02  0.31413988167E+02  0.19152796416E+02  0.46465957437E+02  0.00000000000E+00 0. -1.
         11    1    4    4    0    0  0.51138659092E+02 -0.34913202085E+01 -0.96063548293E+01  0.52150108568E+02  0.00000000000E+00 0.  1.
        -13    1    3    3    0    0 -0.21105274153E+02  0.74659672351E+01 -0.18784200013E+02  0.29223610899E+02  0.00000000000E+00 0. -1.
         13    1    3    3    0    0  0.12791054427E+02 -0.56637324403E+02 -0.30743432201E+03  0.31286939757E+03  0.00000000000E+00 0.  1.
         21    1    1    2  502  501 -0.14444570841E+02  0.21248689209E+02 -0.95173044915E+01  0.27399480008E+02  0.00000000000E+00 0. -1.
<scales pt_clust_5="13000.00000" pt_clust_6="13000.00000" pt_clust_7="13000.00000" pt_clust_8="13000.00000" pt_clust_9="25.69343"></scales>
<clustering>
<clus scale="   25.693">  1  9  2 -1</clus>
<clus scale="   90.123">  7  8 -1 -1</clus>
<clus scale="   91.304">  5  6 -1 -1</clus>
<clus scale="  101.898">  2  7  1 -1</clus>
<clus scale="   25.693">  1  5  2 -1</clus>
</clustering>
</event>
<event>
 9    1  0.2423659E-006  0.1967322E+03  0.7546771E-02  0.1152558E+00
          4   -1    0    0  502    0  0.00000000000E+00  0.00000000000E+00  0.61955487410E+03  0.61955487410E+03  0.00000000000E+00 0. -1.
         -4   -1    0    0    0  501 -0.00000000000E+00 -0.00000000000E+00 -0.15784359412E+03  0.15784359412E+03  0.00000000000E+00 0.  1.
         23    2    1    2    0    0 -0.12016524117E+03 -0.46948538425E+02  0.95526003305E+02  0.18510915869E+03  0.92175554665E+02 0.  0.
         23    2    1    2    0    0  0.18832756389E+03  0.66885895887E+02  0.43872501389E+03  0.49077273977E+03  0.91854503985E+02 0.  0.
        -11    1    4    4    0    0  0.69134828333E+02  0.53349789923E+02  0.10753128274E+03  0.13852364903E+03  0.00000000000E+00 0.  1.
         11    1    4    4    0    0  0.11919273555E+03  0.13536105964E+02  0.33119373115E+03  0.35224909074E+03  0.00000000000E+00 0. -1.
        -13    1    3    3    0    0 -0.41707921732E+02  0.21723462812E+02  0.54836588125E+01  0.47344799986E+02  0.00000000000E+00 0. -1.
         13    1    3    3    0    0 -0.78457319434E+02 -0.68672001237E+02  0.90042344492E+02  0.13776435870E+03  0.00000000000E+00 0.  1.
         21    1    1    2  502  501 -0.68162322722E+02 -0.19937357462E+02 -0.72539737207E+02  0.10151656976E+03  0.00000000000E+00 0.  1.
<scales pt_clust_5="13000.00000" pt_clust_6="13000.00000" pt_clust_7="13000.00000" pt_clust_8="13000.00000" pt_clust_9="71.01831"></scales>
<clustering>
<clus scale="   71.018">  2  9  1 -1</clus>
<clus scale="   91.855">  5  6 -1 -1</clus>
<clus scale="   92.176">  7  8 -1 -1</clus>
<clus scale="  196.582">  1  5  2 -1</clus>
<clus scale="  196.582">  1  5  2 -1</clus>
</clustering>
</event>
<event>
 9    1  0.2423659E-006  0.9728175E+02  0.7546771E-02  0.1286709E+00
         -2   -1    0    0    0  501 -0.00000000000E+00  0.00000000000E+00  0.44681548121E+02  0.44681548121E+02  0.00000000000E+00 0.  1.
          2   -1    0    0  502    0  0.00000000000E+00 -0.00000000000E+00 -0.55698508855E+03  0.55698508855E+03  0.00000000000E+00 0. -1.
         23    2    1    2    0    0 -0.16038297150E+02  0.41679945367E+02 -0.37931284623E+02  0.10705098363E+03  0.89591773744E+02 0.  0.
         23    2    1    2    0    0 -0.55199199569E+01 -0.17649012508E+01 -0.25847190893E+03  0.27400076856E+03  0.90747501747E+02 0.  0.
        -11    1    4    4    0    0 -0.44077034345E+02  0.16354626621E+01 -0.79742313050E+02  0.91127911121E+02  0.00000000000E+00 0.  1.
         11    1    4    4    0    0  0.38557114388E+02 -0.34003639129E+01 -0.17872959588E+03  0.18287285744E+03  0.00000000000E+00 0. -1.
        -13    1    3    3    0    0 -0.91914511973E+00  0.61600884587E+02  0.11508931882E-01  0.61607742550E+02  0.00000000000E+00 0.  1.
         13    1    3    3    0    0 -0.15119152030E+02 -0.19920939219E+02 -0.37942793555E+02  0.45443241084E+02  0.00000000000E+00 0. -1.
         21    1    1    2  502  501  0.21558217107E+02 -0.39915044117E+02 -0.21590034688E+03  0.22061488448E+03  0.00000000000E+00 0. -1.
<scales pt_clust_5="13000.00000" pt_clust_6="13000.00000" pt_clust_7="13000.00000" pt_clust_8="13000.00000" pt_clust_9="45.36483"></scales>
<clustering>
<clus scale="   45.365">  2  9  1 -1</clus>
<clus scale="   89.592">  7  8 -1 -1</clus>
<clus scale="   90.748">  5  6 -1 -1</clus>
<clus scale="   96.205">  1  7  2 -1</clus>
<clus scale="   45.365">  2  5  1 -1</clus>
</clustering>
</event>
<event>
 9    1  0.2423659E-006  0.1033216E+03  0.7546771E-02  0.1273984E+00
         -2   -1    0    0    0  501 -0.00000000000E+00  0.00000000000E+00  0.14233782468E+03  0.14233782468E+03  0.00000000000E+00 0.  1.
          2   -1    0    0  502    0  0.00000000000E+00 -0.00000000000E+00 -0.68404428635E+03  0.68404428635E+03  0.00000000000E+00 0. -1.
         23    2    1    2    0    0 -0.80468982829E+02  0.61712774039E+02 -0.30386920403E+03  0.33301066762E+03  0.90971907275E+02 0.  0.
         23    2    1    2    0    0  0.25545322585E+02 -0.75579629740E+00 -0.34522803916E+03  0.35822285279E+03  0.92130768514E+02 0.  0.
        -13    1    4    4    0    0  0.84583312613E+01 -0.46247360787E+02 -0.17032763579E+03  0.17669710032E+03  0.00000000000E+00 0.  1.
         13    1    4    4    0    0  0.17086991323E+02  0.45491564489E+02 -0.17490040337E+03  0.18152575247E+03  0.00000000000E+00 0. -1.
        -13    1    3    3    0    0 -0.87505382513E+02  0.20185241069E+02 -0.24235757879E+03  0.25846050361E+03  0.00000000000E+00 0.  1.
         13    1    3    3    0    0  0.70363996839E+01  0.41527532970E+02 -0.61511625234E+02  0.74550164010E+02  0.00000000000E+00 0. -1.
         21    1    1    2  502  501  0.54923660245E+02 -0.60956977741E+02  0.10739078152E+03  0.13514859062E+03  0.00000000000E+00 0.  1.
<scales pt_clust_5="13000.00000" pt_clust_6="13000.00000" pt_clust_7="13000.00000" pt_clust_8="13000.00000" pt_clust_9="82.05097"></scales>
<clustering>
<clus scale="   82.051">  1  9  2 -1</clus>
<clus scale="   90.972">  7  8 -1 -1</clus>
<clus scale="   92.131">  5  6 -1 -1</clus>
<clus scale="  102.290">  1  7  2 -1</clus>
<clus scale="  103.322">  2  5  1 -1</clus>
</clustering>
</event>
<event>
 9    1  0.2423659E-006  0.3050722E+03  0.7546771E-02  0.1116912E+00
          1   -1    0    0  502    0  0.00000000000E+00  0.00000000000E+00  0.99932793008E+03  0.99932793008E+03  0.00000000000E+00 0. -1.
         -1   -1    0    0    0  501 -0.00000000000E+00 -0.00000000000E+00 -0.22245269757E+03  0.22245269757E+03  0.00000000000E+00 0.  1.
         23    2    1    2    0    0  0.21175653843E+02  0.77718838764E+02  0.92986041509E+02  0.15628183207E+03  0.96379359339E+02 0.  0.
         23    2    1    2    0    0  0.19847098237E+02 -0.35493851477E+03  0.46856079066E+02  0.36954994640E+03  0.89422671408E+02 0.  0.
        -13    1    4    4    0    0  0.18469530150E+02 -0.89902228904E+02  0.49950449690E+02  0.10449201754E+03  0.00000000000E+00 0. -1.
         13    1    4    4    0    0  0.13775680873E+01 -0.26503628587E+03 -0.30943706247E+01  0.26505792886E+03  0.00000000000E+00 0.  1.
        -13    1    3    3    0    0  0.32488400317E+02  0.30013886179E+01 -0.45003774368E+01  0.32935662828E+02  0.00000000000E+00 0.  1.
         13    1    3    3    0    0 -0.11312746474E+02  0.74717450146E+02  0.97486418946E+02  0.12334616925E+03  0.00000000000E+00 0. -1.
         21    1    1    2  502  501 -0.41022752080E+02  0.27721967601E+03  0.63703311194E+03  0.69594884917E+03  0.00000000000E+00 0. -1.
<scales pt_clust_5="13000.00000" pt_clust_6="13000.00000" pt_clust_7="13000.00000" pt_clust_8="13000.00000" pt_clust_9="291.67218"></scales>
<clustering>
<clus scale="   89.423">  5  6 -1 -1</clus>
<clus scale="   96.379">  7  8 -1 -1</clus>
<clus scale="  125.609">  2  7  1 -1</clus>
<clus scale="  291.672">  1  9  2 -1</clus>
<clus scale="  291.672">  1  5  2 -1</clus>
</clustering>
</event>
<event>
 9    1  0.2423659E-006  0.1240197E+03  0.7546771E-02  0.1236901E+00
          1   -1    0    0  502    0  0.00000000000E+00  0.00000000000E+00  0.42500285476E+03  0.42500285476E+03  0.00000000000E+00 0. -1.
         -1   -1    0    0    0  501 -0.00000000000E+00 -0.00000000000E+00 -0.30129091958E+03  0.30129091958E+03  0.00000000000E+00 0.  1.
         23    2    1    2    0    0  0.10707357057E+03 -0.42408009062E+02  0.13273717618E+03  0.19833542876E+03  0.91948874986E+02 0.  0.
         23    2    1    2    0    0 -0.71584225395E+02  0.53212455771E+01  0.24382221537E+03  0.26995300099E+03  0.90954565878E+02 0.  0.
        -11    1    4    4    0    0 -0.20375408688E+01 -0.26574892243E+02  0.13066951842E+03  0.13336003718E+03  0.00000000000E+00 0. -1.
         11    1    4    4    0    0 -0.69546684526E+02  0.31896137821E+02  0.11315269695E+03  0.13659296381E+03  0.00000000000E+00 0.  1.
        -11    1    3    3    0    0  0.77280278073E+02  0.21152545868E+01  0.30878420713E+02  0.83247778029E+02  0.00000000000E+00 0.  1.
         11    1    3    3    0    0  0.29793292497E+02 -0.44523263649E+02  0.10185875547E+03  0.11508765073E+03  0.00000000000E+00 0. -1.
         21    1    1    2  502  501 -0.35489345175E+02  0.37086763485E+02 -0.25284745637E+03  0.25800534460E+03  0.00000000000E+00 0.  1.
<scales pt_clust_5="13000.00000" pt_clust_6="13000.00000" pt_clust_7="13000.00000" pt_clust_8="13000.00000" pt_clust_9="51.33149"></scales>
<clustering>
<clus scale="   51.331">  2  9  1 -1</clus>
<clus scale="   90.955">  5  6 -1 -1</clus>
<clus scale="   91.949">  7  8 -1 -1</clus>
<clus scale="  123.284">  1  5  2 -1</clus>
<clus scale="  123.284">  1  5  2 -1</clus>
</clustering>
</event>
<event>
 9    1  0.2423659E-006  0.9715984E+02  0.7546771E-02  0.1287000E+00
          2   -1    0    0  502    0  0.00000000000E+00  0.00000000000E+00  0.14881856709E+03  0.14881856709E+03  0.00000000000E+00 0. -1.
         -2   -1    0    0    0  501 -0.00000000000E+00 -0.00000000000E+00 -0.10253573506E+03  0.10253573506E+03  0.00000000000E+00 0.  1.
         23    2    1    2    0    0 -0.58280535177E+01 -0.23566962306E+02 -0.47730271692E+01  0.94713484179E+02  0.91424801760E+02 0.  0.
         23    2    1    2    0    0  0.34687578186E+02  0.20351477356E+02  0.70787193980E+02  0.12153331052E+03  0.90233630220E+02 0.  0.
        -11    1    4    4    0    0  0.52457736780E+02  0.36556549547E+02  0.22845864513E+02  0.67897930662E+02  0.00000000000E+00 0.  1.
         11    1    4    4    0    0 -0.17770158593E+02 -0.16205072191E+02  0.47941329468E+02  0.53635379856E+02  0.00000000000E+00 0. -1.
        -11    1    3    3    0    0  0.41558026020E+02 -0.21799201086E+02 -0.57851623927E+01  0.47283641977E+02  0.00000000000E+00 0.  1.
         11    1    3    3    0    0 -0.47386079538E+02 -0.17677612194E+01  0.10121352235E+01  0.47429842203E+02  0.00000000000E+00 0. -1.
         21    1    1    2  502  501 -0.28859524668E+02  0.32154849501E+01 -0.19731334774E+02  0.35107507452E+02  0.00000000000E+00 0.  1.
<scales pt_clust_5="13000.00000" pt_clust_6="13000.00000" pt_clust_7="13000.00000" pt_clust_8="13000.00000" pt_clust_9="29.03810"></scales>
<clustering>
<clus scale="   29.038">  2  9  1 -1</clus>
<clus scale="   90.234">  5  6 -1 -1</clus>
<clus scale="   91.425">  7  8 -1 -1</clus>
<clus scale="   96.040">  1  5  2 -1</clus>
<clus scale="   96.040">  1  5  2 -1</clus>
</clustering>
</event>
<event>
 9    1  0.2423659E-006  0.1260901E+03  0.7546771E-02  0.1242266E+00
         -1   -1    0    0    0  501 -0.00000000000E+00  0.00000000000E+00  0.13154201450E+03  0.13154201450E+03  0.00000000000E+00 0.  1.
          1   -1    0    0  502    0  0.00000000000E+00 -0.00000000000E+00 -0.26059867363E+03  0.26059867363E+03  0.00000000000E+00 0. -1.
         23    2    1    2    0    0 -0.44725364783E+02 -0.14689673070E+02 -0.38574627042E+01  0.12271883760E+03  0.11326468264E+03 0.  0.
         23    2    1    2    0    0  0.32555514591E+01  0.10564094748E+03 -0.77617251126E+02  0.15871538616E+03  0.89417714874E+02 0.  0.
        -11    1    4    4    0    0 -0.33571801809E+02  0.91034617320E+02 -0.43099111830E+02  0.10616920866E+03  0.00000000000E+00 0.  1.
         11    1    4    4    0    0  0.36827353268E+02  0.14606330155E+02 -0.34518139296E+02  0.52546177499E+02  0.00000000000E+00 0. -1.
        -13    1    3    3    0    0  0.26844421938E+02  0.23034791835E+02 -0.19388968901E+02  0.40338030928E+02  0.00000000000E+00 0. -1.
         13    1    3    3    0    0 -0.71569786721E+02 -0.37724464905E+02  0.15531506197E+02  0.82380806675E+02  0.00000000000E+00 0.  1.
         21    1    1    2  502  501  0.41469813324E+02 -0.90951274405E+02 -0.47581945305E+02  0.11070646436E+03  0.00000000000E+00 0. -1.
<scales pt_clust_5="13000.00000" pt_clust_6="13000.00000" pt_clust_7="13000.00000" pt_clust_8="13000.00000" pt_clust_9="99.95939"></scales>
<clustering>
<clus scale="   89.418">  5  6 -1 -1</clus>
<clus scale="   99.959">  2  9  1 -1</clus>
<clus scale="  105.192">  2  5  1 -1</clus>
<clus scale="  113.265">  7  8 -1 -1</clus>
<clus scale="   99.959">  2  5  1 -1</clus>
</clustering>
</event>
<event>
 9    1  0.2423659E-006  0.2219421E+03  0.7546771E-02  0.1169517E+00
          4   -1    0    0  502    0  0.00000000000E+00  0.00000000000E+00  0.21345449621E+03  0.21345449621E+03  0.00000000000E+00 0. -1.
         -4   -1    0    0    0  501 -0.00000000000E+00 -0.00000000000E+00 -0.45683717362E+03  0.45683717362E+03  0.00000000000E+00 0.  1.
         23    2    1    2    0    0 -0.11254991153E+02  0.10404979195E+02 -0.18932045923E+03  0.21063145231E+03  0.91040836996E+02 0.  0.
         23    2    1    2    0    0  0.20533664266E+03 -0.22615459325E+02  0.60863382555E+02  0.23377379255E+03  0.90946351924E+02 0.  0.
        -11    1    3    3    0    0 -0.49157053274E+02  0.19870799369E+02 -0.10151628885E+03  0.11452869272E+03  0.00000000000E+00 0.  1.
         11    1    3    3    0    0  0.37902062121E+02 -0.94658201735E+01 -0.87804170383E+02  0.96102759592E+02  0.00000000000E+00 0. -1.
        -11    1    4    4    0    0  0.11935224831E+03  0.13942886125E+01 -0.10021829124E+02  0.11978038352E+03  0.00000000000E+00 0. -1.
         11    1    4    4    0    0  0.85984394352E+02 -0.24009747938E+02  0.70885211678E+02  0.11399340903E+03  0.00000000000E+00 0.  1.
         21    1    1    2  502  501 -0.19408165151E+03  0.12210480130E+02 -0.11492560073E+03  0.22588642496E+03  0.00000000000E+00 0.  1.
<scales pt_clust_5="13000.00000" pt_clust_6="13000.00000" pt_clust_7="13000.00000" pt_clust_8="13000.00000" pt_clust_9="202.45265"></scales>
<clustering>
<clus scale="   90.946">  7  8 -1 -1</clus>
<clus scale="   91.041">  5  6 -1 -1</clus>
<clus scale="   92.322">  2  5  1 -1</clus>
<clus scale="  202.453">  2  9  1 -1</clus>
<clus scale="  221.942">  1  5  2 -1</clus>
</clustering>
</event>
<event>
 9    1  0.2423659E-006  0.1922421E+03  0.7546771E-02  0.1175053E+00
          2   -1    0    0  502    0  0.00000000000E+00  0.00000000000E+00  0.41772968856E+03  0.41772968856E+03  0.00000000000E+00 0.  1.
         -2   -1    0    0    0  501 -0.00000000000E+00 -0.00000000000E+00 -0.20862221096E+03  0.20862221096E+03  0.00000000000E+00 0. -1.
         23    2    1    2    0    0  0.80236356315E+02 -0.27505294863E+02  0.43141932078E+02  0.13245152022E+03  0.92129065901E+02 0.  0.
         23    2    1    2    0    0 -0.32020943975E+02 -0.14267182737E+03 -0.80544758439E+02  0.19049914517E+03  0.91770774336E+02 0.  0.
        -11    1    3    3    0    0  0.25135859739E+02  0.17398963506E+02 -0.20692247703E+02  0.36914827521E+02  0.00000000000E+00 0. -1.
         11    1    3    3    0    0  0.55100496576E+02 -0.44904258370E+02  0.63834179781E+02  0.95536692695E+02  0.00000000000E+00 0.  1.
        -11    1    4    4    0    0  0.14288379075E+02 -0.11964566345E+03 -0.62368546969E+02  0.13568005826E+03  0.00000000000E+00 0.  1.
         11    1    4    4    0    0 -0.46309323050E+02 -0.23026163913E+02 -0.18176211470E+02  0.54819086907E+02  0.00000000000E+00 0. -1.
         21    1    1    2  502  501 -0.48215412340E+02  0.17017712223E+03  0.24651030395E+03  0.30340123413E+03  0.00000000000E+00 0. -1.
<scales pt_clust_5="13000.00000" pt_clust_6="13000.00000" pt_clust_7="13000.00000" pt_clust_8="13000.00000" pt_clust_9="168.92354"></scales>
<clustering>
<clus scale="   91.771">  7  8 -1 -1</clus>
<clus scale="   92.129">  5  6 -1 -1</clus>
<clus scale="  125.229">  2  5  1 -1</clus>
<clus scale="  168.924">  1  9  2 -1</clus>
<clus scale="  168.924">  1  5  2 -1</clus>
</clustering>
</event>
<event>
 9    1  0.2423659E-006  0.1046664E+03  0.7546771E-02  0.1270821E+00
         -1   -1    0    0    0  501 -0.00000000000E+00  0.00000000000E+00  0.22900293710E+03  0.22900293710E+03  0.00000000000E+00 0.  1.
          1   -1    0    0  502    0  0.00000000000E+00 -0.00000000000E+00 -0.10778490424E+03  0.10778490424E+03  0.00000000000E+00 0. -1.
         23    2    1    2    0    0  0.49376762867E+02  0.37882168913E+02  0.26523264552E+02  0.11353669986E+03  0.91181002516E+02 0.  0.
         23    2    1    2    0    0 -0.25025872764E+02 -0.38448253485E+02 -0.21612955861E+02  0.10442028269E+03  0.91279313493E+02 0.  0.
        -11    1    4    4    0    0 -0.45060416515E+02 -0.55247842847E+02 -0.29432636004E+02  0.77130054700E+02  0.00000000000E+00 0.  1.
         11    1    4    4    0    0  0.20034543751E+02  0.16799589363E+02  0.78196801432E+01  0.27290227988E+02  0.00000000000E+00 0. -1.
        -13    1    3    3    0    0  0.13159481138E+02  0.63135972307E+02  0.25561421325E+02  0.69373692443E+02  0.00000000000E+00 0.  1.
         13    1    3    3    0    0  0.36217281728E+02 -0.25253803395E+02  0.96184322680E+00  0.44163007417E+02  0.00000000000E+00 0. -1.
         21    1    1    2  502  501 -0.24350890103E+02  0.56608457188E+00  0.11630772417E+03  0.11883085879E+03  0.00000000000E+00 0.  1.
<scales pt_clust_5="13000.00000" pt_clust_6="13000.00000" pt_clust_7="13000.00000" pt_clust_8="13000.00000" pt_clust_9="24.35747"></scales>
<clustering>
<clus scale="   24.357">  1  9  2 -1</clus>
<clus scale="   91.181">  7  8 -1 -1</clus>
<clus scale="   91.279">  5  6 -1 -1</clus>
<clus scale="  104.581">  1  7  2 -1</clus>
<clus scale="  104.666">  2  5  1 -1</clus>
</clustering>
</event>
<event>
 9    1  0.2423659E-006  0.9389576E+02  0.7546771E-02  0.1293781E+00
         -1   -1    0    0    0  501 -0.00000000000E+00  0.00000000000E+00  0.16229575296E+03  0.16229575296E+03  0.00000000000E+00 0.  1.
          1   -1    0    0  502    0  0.00000000000E+00 -0.00000000000E+00 -0.29187506738E+03  0.29187506738E+03  0.00000000000E+00 0. -1.
         23    2    1    2    0    0  0.21222787060E+02 -0.22989767588E+02  0.11556095216E+03  0.15014485703E+03  0.90610199881E+02 0.  0.
         23    2    1    2    0    0  0.22226109590E+02  0.14485789514E+02 -0.24192774183E+03  0.25963627331E+03  0.90432981293E+02 0.  0.
        -11    1    3    3    0    0  0.54391020499E+02 -0.28470373642E+02  0.83921900684E+02  0.10397995336E+03  0.00000000000E+00 0.  1.
         11    1    3    3    0    0 -0.33168233439E+02  0.54806060543E+01  0.31639051478E+02  0.46164903667E+02  0.00000000000E+00 0. -1.
        -11    1    4    4    0    0  0.26558640287E+02 -0.29561298055E+02 -0.56997610369E+02  0.69483518220E+02  0.00000000000E+00 0.  1.
         11    1    4    4    0    0 -0.43325306962E+01  0.44047087569E+02 -0.18493013146E+03  0.19015275509E+03  0.00000000000E+00 0. -1.
         21    1    1    2  502  501 -0.43448896651E+02  0.85039780734E+01 -0.32125247480E+01  0.44389690002E+02  0.00000000000E+00 0.  1.
<scales pt_clust_5="13000.00000" pt_clust_6="13000.00000" pt_clust_7="13000.00000" pt_clust_8="13000.00000" pt_clust_9="44.27329"></scales>
<clustering>
<clus scale="   44.273">  1  9  2 -1</clus>
<clus scale="   90.433">  7  8 -1 -1</clus>
<clus scale="   90.610">  5  6 -1 -1</clus>
<clus scale="   93.725">  2  7  1 -1</clus>
<clus scale="   93.725">  2  5  1 -1</clus>
</clustering>
</event>
<event>
 9    1  0.2423659E-006  0.2015883E+03  0.7546771E-02  0.1172591E+00
          2   -1    0    0  502    0  0.00000000000E+00  0.00000000000E+00  0.57167614831E+03  0.57167614831E+03  0.00000000000E+00 0. -1.
         -2   -1    0    0    0  501 -0.00000000000E+00 -0.00000000000E+00 -0.16587533918E+03  0.16587533918E+03  0.00000000000E+00 0.  1.
         23    2    1    2    0    0 -0.10106028971E+03  0.79803293563E+02  0.34692560893E+03  0.38338849104E+03  0.10023776288E+03 0.  0.
         23    2    1    2    0    0 -0.69683286153E+02 -0.10096049886E+02  0.11384831736E+03  0.16171946673E+03  0.90741699142E+02 0.  0.
        -11    1    4    4    0    0  0.64714665719E+01 -0.29998369942E+02  0.11886440318E+02  0.32910021911E+02  0.00000000000E+00 0.  1.
         11    1    4    4    0    0 -0.76154752725E+02  0.19902320055E+02  0.10196187704E+03  0.12880944482E+03  0.00000000000E+00 0. -1.
        -13    1    3    3    0    0 -0.25847999774E+02  0.48801139120E+02  0.46657043556E+02  0.72294882150E+02  0.00000000000E+00 0.  1.
         13    1    3    3    0    0 -0.75212289939E+02  0.31002154443E+02  0.30026856538E+03  0.31109360889E+03  0.00000000000E+00 0. -1.
         21    1    1    2  502  501  0.17074357587E+03 -0.69707243677E+02 -0.54973117160E+02  0.19244352972E+03  0.00000000000E+00 0.  1.
<scales pt_clust_5="13000.00000" pt_clust_6="13000.00000" pt_clust_7="13000.00000" pt_clust_8="13000.00000" pt_clust_9="174.90059"></scales>
<clustering>
<clus scale="   90.742">  5  6 -1 -1</clus>
<clus scale="  100.238">  7  8 -1 -1</clus>
<clus scale="  114.855">  1  5  2 -1</clus>
<clus scale="  174.901">  2  9  1 -1</clus>
<clus scale="  114.855">  1  5  2 -1</clus>
</clustering>
</event>
<event>
 9    1  0.2423659E-006  0.2652218E+03  0.7546771E-02  0.1130668E+00
          2   -1    0    0  502    0  0.00000000000E+00  0.00000000000E+00  0.67423050793E+03  0.67423050793E+03  0.00000000000E+00 0. -1.
         -2   -1    0    0    0  501 -0.00000000000E+00 -0.00000000000E+00 -0.26372570815E+03  0.26372570815E+03  0.00000000000E+00 0.  1.
         23    2    1    2    0    0  0.24513748993E+03  0.94124901336E+01 -0.83639799806E+02  0.27507671079E+03  0.92144434266E+02 0.  0.
         23    2    1    2    0    0  0.32294221639E+01  0.10323246335E+03  0.29631211274E+03  0.32596304469E+03  0.88225096685E+02 0.  0.
        -13    1    3    3    0    0  0.91593245878E+02  0.23682682778E+02 -0.74824842067E+02  0.12061902480E+03  0.00000000000E+00 0.  1.
         13    1    3    3    0    0  0.15354424405E+03 -0.14270192645E+02 -0.88149577393E+01  0.15445768599E+03  0.00000000000E+00 0. -1.
        -13    1    4    4    0    0  0.45430705058E+02  0.45526895623E+02  0.13706427814E+03  0.15140430486E+03  0.00000000000E+00 0. -1.
         13    1    4    4    0    0 -0.42201282894E+02  0.57705567730E+02  0.15924783460E+03  0.17455873983E+03  0.00000000000E+00 0.  1.
         21    1    1    2  502  501 -0.24836691210E+03 -0.11264495349E+03  0.19783248685E+03  0.33691646060E+03  0.00000000000E+00 0. -1.
<scales pt_clust_5="13000.00000" pt_clust_6="13000.00000" pt_clust_7="13000.00000" pt_clust_8="13000.00000" pt_clust_9="248.70065"></scales>
<clustering>
<clus scale="   88.225">  7  8 -1 -1</clus>
<clus scale="   92.144">  5  6 -1 -1</clus>
<clus scale="  135.835">  1  7  2 -1</clus>
<clus scale="  248.701">  1  9  2 -1</clus>
<clus scale="  135.835">  1  5  2 -1</clus>
</clustering>
</event>
<event>
 9    1  0.2423659E-006  0.1247039E+03  0.7546771E-02  0.1240501E+00
          2   -1    0    0  502    0  0.00000000000E+00  0.00000000000E+00  0.33298257539E+03  0.33298257539E+03  0.00000000000E+00 0. -1.
         -2   -1    0    0    0  501 -0.00000000000E+00 -0.00000000000E+00 -0.14527200985E+03  0.14527200985E+03  0.00000000000E+00 0.  1.
         23    2    1    2    0    0  0.43658293961E+02  0.61094875476E+02 -0.52972415636E+02  0.12980501476E+03  0.91676794209E+02 0.  0.
         23    2    1    2    0    0 -0.37006764941E+02  0.56947088575E+02  0.18760526022E+03  0.21885253126E+03  0.89934560805E+02 0.  0.
        -13    1    4    4    0    0 -0.66572672638E+02  0.46410923062E+02  0.12999226586E+03  0.15324452259E+03  0.00000000000E+00 0.  1.
         13    1    4    4    0    0  0.29565907698E+02  0.10536165513E+02  0.57612994363E+02  0.65608008667E+02  0.00000000000E+00 0. -1.
        -13    1    3    3    0    0  0.60116115511E+02  0.36867919794E+02 -0.14452289716E+01  0.70535661483E+02  0.00000000000E+00 0. -1.
         13    1    3    3    0    0 -0.16457821550E+02  0.24226955682E+02 -0.51527186664E+02  0.59269353273E+02  0.00000000000E+00 0.  1.
         21    1    1    2  502  501 -0.66515290206E+01 -0.11804196405E+03  0.53077720953E+02  0.12959703923E+03  0.00000000000E+00 0. -1.
<scales pt_clust_5="13000.00000" pt_clust_6="13000.00000" pt_clust_7="13000.00000" pt_clust_8="13000.00000" pt_clust_9="84.53651"></scales>
<clustering>
<clus scale="   89.935">  5  6 -1 -1</clus>
<clus scale="   91.677">  7  8 -1 -1</clus>
<clus scale="  112.697">  1  5  2 -1</clus>
<clus scale="   84.537">  1  9  2 -1</clus>
<clus scale="  112.697">  1  5  2 -1</clus>
</clustering>
</event>
<event>
 9    1  0.3935905E-006  0.2038482E+03  0.7546771E-02  0.1167670E+00
          2   -1    0    0  502    0  0.00000000000E+00  0.00000000000E+00  0.60454179942E+03  0.60454179942E+03  0.00000000000E+00 0. -1.
         -2   -1    0    0    0  501 -0.00000000000E+00 -0.00000000000E+00 -0.32637074154E+03  0.32637074154E+03  0.00000000000E+00 0.  1.
         23    2    1    2    0    0  0.16150156304E+03 -0.10917188167E+03 -0.18816029093E+03  0.28745208115E+03  0.96037228521E+02 0.  0.
         23    2    1    2    0    0 -0.74646346951E+02 -0.29751195189E+02  0.46320092038E+03  0.47959084875E+03  0.94842389467E+02 0.  0.
        -11    1    4    4    0    0 -0.23796979305E+02 -0.58865411216E+02  0.28564032066E+03  0.29261207365E+03  0.00000000000E+00 0. -1.
         11    1    4    4    0    0 -0.50849367647E+02  0.29114216027E+02  0.17756059972E+03  0.18697877510E+03  0.00000000000E+00 0.  1.
        -13    1    3    3    0    0 -0.47127485115E+01 -0.33434782923E+02 -0.20418852980E+02  0.39459146780E+02  0.00000000000E+00 0. -1.
         13    1    3    3    0    0  0.16621431155E+03 -0.75737098750E+02 -0.16774143795E+03  0.24799293437E+03  0.00000000000E+00 0.  1.
         21    1    1    2  502  501 -0.86855216084E+02  0.13892307686E+03  0.31304284244E+01  0.16386961106E+03  0.00000000000E+00 0. -1.
<scales pt_clust_5="13000.00000" pt_clust_6="13000.00000" pt_clust_7="13000.00000" pt_clust_8="13000.00000" pt_clust_9="179.80802"></scales>
<clustering>
<clus scale="   94.842">  5  6 -1 -1</clus>
<clus scale="   96.037">  7  8 -1 -1</clus>
<clus scale="  124.307">  1  5  2 -1</clus>
<clus scale="  179.808">  1  9  2 -1</clus>
<clus scale="  124.307">  1  5  2 -1</clus>
</clustering>
</event>
<event>
 9    1  0.2423659E-006  0.2109755E+03  0.7546771E-02  0.1151736E+00
          1   -1    0    0  502    0  0.00000000000E+00  0.00000000000E+00  0.16378926679E+03  0.16378926679E+03  0.00000000000E+00 0. -1.
         -1   -1    0    0    0  501 -0.00000000000E+00 -0.00000000000E+00 -0.99503171653E+03  0.99503171653E+03  0.00000000000E+00 0.  1.
         23    2    1    2    0    0  0.11330603592E+03 -0.73691741250E+02 -0.62397292797E+03  0.64479030334E+03  0.90241841407E+02 0.  0.
         23    2    1    2    0    0 -0.97802769477E+02 -0.15775241487E+03 -0.53642338431E+01  0.20650426817E+03  0.90355031145E+02 0.  0.
        -11    1    4    4    0    0 -0.85436031140E+02 -0.64329141600E+02  0.20250644392E+02  0.10884687627E+03  0.00000000000E+00 0. -1.
         11    1    4    4    0    0 -0.12366738338E+02 -0.93423273268E+02 -0.25614878235E+02  0.97657391897E+02  0.00000000000E+00 0.  1.
        -11    1    3    3    0    0  0.25124756990E+02 -0.60681917043E+02 -0.17202366914E+03  0.18413498096E+03  0.00000000000E+00 0. -1.
         11    1    3    3    0    0  0.88181278928E+02 -0.13009824208E+02 -0.45194925883E+03  0.46065532238E+03  0.00000000000E+00 0.  1.
         21    1    1    2  502  501 -0.15503266441E+02  0.23144415612E+03 -0.20190528793E+03  0.30752641182E+03  0.00000000000E+00 0.  1.
<scales pt_clust_5="13000.00000" pt_clust_6="13000.00000" pt_clust_7="13000.00000" pt_clust_8="13000.00000" pt_clust_9="190.64792"></scales>
<clustering>
<clus scale="   90.242">  7  8 -1 -1</clus>
<clus scale="   90.355">  5  6 -1 -1</clus>
<clus scale="  162.519">  2  7  1 -1</clus>
<clus scale="  190.648">  2  9  1 -1</clus>
<clus scale="  210.975">  1  5  2 -1</clus>
</clustering>
</event>
<event>
 9    1  0.2423659E-006  0.1812116E+03  0.7546771E-02  0.1194963E+00
         -2   -1    0    0    0  501 -0.00000000000E+00  0.00000000000E+00  0.53918182937E+02  0.53918182937E+02  0.00000000000E+00 0.  1.
          2   -1    0    0  502    0  0.00000000000E+00 -0.00000000000E+00 -0.10780868452E+04  0.10780868452E+04  0.00000000000E+00 0. -1.
         23    2    1    2    0    0 -0.20219761658E+02 -0.18448761627E+02 -0.80140229091E+02  0.12500489585E+03  0.91948747144E+02 0.  0.
         23    2    1    2    0    0 -0.98796973614E+02 -0.97821656259E+02 -0.31081876792E+03  0.35229540989E+03  0.90409241302E+02 0.  0.
        -11    1    4    4    0    0 -0.42415331832E+02  0.60169178879E+01 -0.12454529068E+03  0.13170722496E+03  0.00000000000E+00 0.  1.
         11    1    4    4    0    0 -0.56381641782E+02 -0.10383857415E+03 -0.18627347724E+03  0.22058818493E+03  0.00000000000E+00 0. -1.
        -11    1    3    3    0    0  0.33635852513E+02  0.80255856892E+01 -0.39654222377E+02  0.52614047100E+02  0.00000000000E+00 0.  1.
         11    1    3    3    0    0 -0.53855614170E+02 -0.26474347317E+02 -0.40486006714E+02  0.72390848753E+02  0.00000000000E+00 0. -1.
         21    1    1    2  502  501  0.11901673527E+03  0.11627041789E+03 -0.63320966522E+03  0.65470472236E+03  0.00000000000E+00 0.  1.
<scales pt_clust_5="13000.00000" pt_clust_6="13000.00000" pt_clust_7="13000.00000" pt_clust_8="13000.00000" pt_clust_9="157.04713"></scales>
<clustering>
<clus scale="   90.409">  5  6 -1 -1</clus>
<clus scale="   91.949">  7  8 -1 -1</clus>
<clus scale="   95.936">  1  7  2 -1</clus>
<clus scale="  157.047">  2  9  1 -1</clus>
<clus scale="  157.047">  2  5  1 -1</clus>
</clustering>
</event>
<event>
 9    1  0.2423659E-006  0.1370690E+03  0.7546771E-02  0.1219770E+00
         -2   -1    0    0    0  501 -0.00000000000E+00  0.00000000000E+00  0.79226181073E+02  0.79226181073E+02  0.00000000000E+00 0.  1.
          2   -1    0    0  502    0  0.00000000000E+00 -0.00000000000E+00 -0.40379210518E+03  0.40379210518E+03  0.00000000000E+00 0. -1.
         23    2    1    2    0    0  0.90675708229E+02 -0.77271982089E+02 -0.76603869428E+02  0.17350063550E+03  0.10020615964E+03 0.  0.
         23    2    1    2    0    0 -0.66120833991E+02  0.21593783809E+02 -0.10926863115E+03  0.15806181777E+03  0.90585033519E+02 0.  0.
        -11    1    3    3    0    0  0.10365357472E+03 -0.56064039864E+02 -0.87072925259E+02  0.14652281198E+03  0.00000000000E+00 0. -1.
         11    1    3    3    0    0 -0.12977866487E+02 -0.21207942226E+02  0.10469055830E+02  0.26977823522E+02  0.00000000000E+00 0.  1.
        -13    1    4    4    0    0 -0.28185404662E+02 -0.25283391086E+02 -0.85010665343E+02  0.93061700622E+02  0.00000000000E+00 0.  1.
         13    1    4    4    0    0 -0.37935429330E+02  0.46877174894E+02 -0.24257965806E+02  0.65000117150E+02  0.00000000000E+00 0. -1.
         21    1    1    2  502  501 -0.24554874237E+02  0.55678198280E+02 -0.13869342353E+03  0.15145583298E+03  0.00000000000E+00 0.  1.
<scales pt_clust_5="13000.00000" pt_clust_6="13000.00000" pt_clust_7="13000.00000" pt_clust_8="13000.00000" pt_clust_9="60.85231"></scales>
<clustering>
<clus scale="   60.852">  2  9  1 -1</clus>
<clus scale="   90.585">  7  8 -1 -1</clus>
<clus scale="  100.206">  5  6 -1 -1</clus>
<clus scale="  130.201">  2  7  1 -1</clus>
<clus scale="   60.852">  2  5  1 -1</clus>
</clustering>
</event>
<event>
 9    1  0.2423659E-006  0.1479109E+03  0.7546771E-02  0.1203339E+00
         -1   -1    0    0    0  501 -0.00000000000E+00  0.00000000000E+00  0.10715081162E+03  0.10715081162E+03  0.00000000000E+00 0.  1.
          1   -1    0    0  502    0  0.00000000000E+00 -0.00000000000E+00 -0.60592926241E+03  0.60592926241E+03  0.00000000000E+00 0. -1.
         23    2    1    2    0    0  0.48837209777E+02 -0.96444828228E+02 -0.63161341630E+01  0.14262415182E+03  0.92817440075E+02 0.  0.
         23    2    1    2    0    0  0.15555263191E+02  0.16785606862E+03 -0.32910918997E+03  0.38090329147E+03  0.91415712810E+02 0.  0.
        -13    1    3    3    0    0 -0.22666694509E+02 -0.28878144601E+02  0.18580407461E+02  0.41145568619E+02  0.00000000000E+00 0.  1.
         13    1    3    3    0    0  0.71503904286E+02 -0.67566683627E+02 -0.24896541624E+02  0.10147858320E+03  0.00000000000E+00 0. -1.
        -13    1    4    4    0    0  0.82958173072E+01  0.49762326222E+02 -0.28716655050E+02  0.58049599250E+02  0.00000000000E+00 0.  1.
         13    1    4    4    0    0  0.72594458837E+01  0.11809374240E+03 -0.30039253492E+03  0.32285369222E+03  0.00000000000E+00 0. -1.
         21    1    1    2  502  501 -0.64392472968E+02 -0.71411240392E+02 -0.16335312666E+03  0.18955263073E+03  0.00000000000E+00 0. -1.
<scales pt_clust_5="13000.00000" pt_clust_6="13000.00000" pt_clust_7="13000.00000" pt_clust_8="13000.00000" pt_clust_9="96.15589"></scales>
<clustering>
<clus scale="   91.416">  7  8 -1 -1</clus>
<clus scale="   92.817">  5  6 -1 -1</clus>
<clus scale="   96.156">  2  9  1 -1</clus>
<clus scale="  147.035">  2  7  1 -1</clus>
<clus scale="   96.156">  2  5  1 -1</clus>
</clustering>
</event>
<event>
 9    1  0.2423659E-006  0.9713649E+02  0.7546771E-02  0.1287150E+00
         -2   -1    0    0    0  501 -0.00000000000E+00  0.00000000000E+00  0.14041217010E+02  0.14041217010E+02  0.00000000000E+00 0.  1.
          2   -1    0    0  502    0  0.00000000000E+00 -0.00000000000E+00 -0.10950823096E+04  0.10950823096E+04  0.00000000000E+00 0. -1.
         23    2    1    2    0    0  0.26891944541E+02  0.53002754640E+02 -0.39879996441E+03  0.41318552800E+03  0.90268489819E+02 0.  0.
         23    2    1    2    0    0 -0.52861976371E+01 -0.14937877909E+02 -0.49360929827E+03  0.50229474313E+03  0.91644888297E+02 0.  0.
        -11    1    4    4    0    0 -0.41933251575E+02 -0.31566201807E+02 -0.29833508812E+03  0.30291689865E+03  0.00000000000E+00 0.  1.
         11    1    4    4    0    0  0.36647053938E+02  0.16628323898E+02 -0.19527421015E+03  0.19937784448E+03  0.00000000000E+00 0. -1.
        -11    1    3    3    0    0  0.80492339807E+01  0.72460813345E+02 -0.34862063267E+03  0.35616247017E+03  0.00000000000E+00 0.  1.
         11    1    3    3    0    0  0.18842710560E+02 -0.19458058705E+02 -0.50179331747E+02  0.57023057831E+02  0.00000000000E+00 0. -1.
         21    1    1    2  502  501 -0.21605746904E+02 -0.38064876731E+02 -0.18863182991E+03  0.19364325548E+03  0.00000000000E+00 0. -1.
<scales pt_clust_5="13000.00000" pt_clust_6="13000.00000" pt_clust_7="13000.00000" pt_clust_8="13000.00000" pt_clust_9="43.76920"></scales>
<clustering>
<clus scale="   43.769">  1  9  2 -1</clus>
<clus scale="   90.268">  7  8 -1 -1</clus>
<clus scale="   91.645">  5  6 -1 -1</clus>
<clus scale="   95.839">  1  7  2 -1</clus>
<clus scale="   97.136">  2  5  1 -1</clus>
</clustering>
</event>
<event>
 9    1  0.2423659E-006  0.1108811E+03  0.7546771E-02  0.1262315E+00
         -4   -1    0    0    0  501 -0.00000000000E+00  0.00000000000E+00  0.19994937505E+03  0.19994937505E+03  0.00000000000E+00 0.  1.
          4   -1    0    0  502    0  0.00000000000E+00 -0.00000000000E+00 -0.31534694965E+03  0.31534694965E+03  0.00000000000E+00 0. -1.
         23    2    1    2    0    0 -0.35770704613E+02 -0.64251137553E+02  0.13627674406E+03  0.18459592758E+03  0.10048160787E+03 0.  0.
         23    2    1    2    0    0  0.13684619110E+02  0.43294090756E+02 -0.27411869432E+03  0.29287523378E+03  0.92591559506E+02 0.  0.
        -13    1    3    3    0    0 -0.58965405781E+02 -0.77279194847E+02  0.11464622462E+03  0.15030884822E+03  0.00000000000E+00 0.  1.
         13    1    3    3    0    0  0.23194701168E+02  0.13028057294E+02  0.21630519445E+02  0.34287079354E+02  0.00000000000E+00 0. -1.
        -13    1    4    4    0    0 -0.99196532062E+01  0.67882513164E+02 -0.19543860533E+03  0.20712962986E+03  0.00000000000E+00 0.  1.
         13    1    4    4    0    0  0.23604272316E+02 -0.24588422407E+02 -0.78680088992E+02  0.85745603921E+02  0.00000000000E+00 0. -1.
         21    1    1    2  502  501  0.22086085503E+02  0.20957046796E+02  0.22444375662E+02  0.37825163346E+02  0.00000000000E+00 0. -1.
<scales pt_clust_5="13000.00000" pt_clust_6="13000.00000" pt_clust_7="13000.00000" pt_clust_8="13000.00000" pt_clust_9="30.44656"></scales>
<clustering>
<clus scale="   30.447">  1  9  2 -1</clus>
<clus scale="   92.592">  7  8 -1 -1</clus>
<clus scale="  100.482">  5  6 -1 -1</clus>
<clus scale="  103.785">  2  7  1 -1</clus>
<clus scale="  103.785">  2  5  1 -1</clus>
</clustering>
</event>
<event>
 9    1  0.2423659E-006  0.9343170E+02  0.7546771E-02  0.1296988E+00
          2   -1    0    0  502    0  0.00000000000E+00  0.00000000000E+00  0.19361247406E+03  0.19361247406E+03  0.00000000000E+00 0. -1.
         -2   -1    0    0    0  501 -0.00000000000E+00 -0.00000000000E+00 -0.10497072259E+03  0.10497072259E+03  0.00000000000E+00 0.  1.
         23    2    1    2    0    0  0.13641674939E+02 -0.92150465067E+01 -0.60069730178E+02  0.11058312175E+03  0.91374186478E+02 0.  0.
         23    2    1    2    0    0 -0.32972044838E+02  0.15286401231E+02  0.12097661449E+03  0.15365262369E+03  0.87481184885E+02 0.  0.
        -11    1    4    4    0    0  0.15735039620E+02  0.37461096519E+02  0.60729362506E+02  0.73068328944E+02  0.00000000000E+00 0.  1.
         11    1    4    4    0    0 -0.48707084459E+02 -0.22174695288E+02  0.60247251988E+02  0.80584294746E+02  0.00000000000E+00 0. -1.
        -13    1    3    3    0    0  0.39649032620E+02  0.53497271710E+01  0.37116748152E+01  0.40180118199E+02  0.00000000000E+00 0.  1.
         13    1    3    3    0    0 -0.26007357681E+02 -0.14564773678E+02 -0.63781404993E+02  0.70403003549E+02  0.00000000000E+00 0. -1.
         21    1    1    2  502  501  0.19330369899E+02 -0.60713547240E+01  0.27734867150E+02  0.34347451207E+02  0.00000000000E+00 0. -1.
<scales pt_clust_5="13000.00000" pt_clust_6="13000.00000" pt_clust_7="13000.00000" pt_clust_8="13000.00000" pt_clust_9="20.26141"></scales>
<clustering>
<clus scale="   20.261">  1  9  2 -1</clus>
<clus scale="   87.481">  5  6 -1 -1</clus>
<clus scale="   89.628">  1  5  2 -1</clus>
<clus scale="   91.374">  7  8 -1 -1</clus>
<clus scale="   20.261">  1  5  2 -1</clus>
</clustering>
</event>
<event>
 9    1  0.2423659E-006  0.2344886E+03  0.7546771E-02  0.1123575E+00
         -1   -1    0    0    0  501 -0.00000000000E+00  0.00000000000E+00  0.13450569395E+03  0.13450569395E+03  0.00000000000E+00 0.  1.
          1   -1    0    0  502    0  0.00000000000E+00 -0.00000000000E+00 -0.64974509400E+03  0.64974509400E+03  0.00000000000E+00 0. -1.
         23    2    1    2    0    0  0.20471788607E+03  0.40568865729E+02 -0.16755322500E+03  0.28314921080E+03  0.92434553200E+02 0.  0.
         23    2    1    2    0    0 -0.19181626126E+03 -0.11871561707E+03 -0.34447302184E+03  0.42183184131E+03  0.91616394539E+02 0.  0.
        -11    1    4    4    0    0 -0.13969176793E+03 -0.49882312375E+02 -0.26885101531E+03  0.30705521254E+03  0.00000000000E+00 0.  1.
         11    1    4    4    0    0 -0.52124493330E+02 -0.68833304694E+02 -0.75622006526E+02  0.11477662877E+03  0.00000000000E+00 0. -1.
        -13    1    3    3    0    0  0.58846699840E+02  0.10044611369E+02 -0.10651444212E+03  0.12210304943E+03  0.00000000000E+00 0. -1.
         13    1    3    3    0    0  0.14587118623E+03  0.30524254360E+02 -0.61038782875E+02  0.16104616137E+03  0.00000000000E+00 0.  1.
         21    1    1    2  502  501 -0.12901624811E+02  0.78146751340E+02 -0.32131532227E+01  0.79269735848E+02  0.00000000000E+00 0.  1.
<scales pt_clust_5="13000.00000" pt_clust_6="13000.00000" pt_clust_7="13000.00000" pt_clust_8="13000.00000" pt_clust_9="79.20459"></scales>
<clustering>
<clus scale="   79.205">  1  9  2 -1</clus>
<clus scale="   91.616">  5  6 -1 -1</clus>
<clus scale="   92.435">  7  8 -1 -1</clus>
<clus scale="  234.167">  2  5  1 -1</clus>
<clus scale="  234.167">  2  5  1 -1</clus>
</clustering>
</event>
<event>
 9    1  0.2423659E-006  0.1472949E+03  0.7546771E-02  0.1215390E+00
         -3   -1    0    0    0  501 -0.00000000000E+00  0.00000000000E+00  0.19771611325E+03  0.19771611325E+03  0.00000000000E+00 0.  1.
          3   -1    0    0  502    0  0.00000000000E+00 -0.00000000000E+00 -0.21382735278E+03  0.21382735278E+03  0.00000000000E+00 0. -1.
         23    2    1    2    0    0  0.69371333086E+02  0.94069573415E+01  0.33211374396E+02  0.11977116371E+03  0.91330518269E+02 0.  0.
         23    2    1    2    0    0  0.63506383552E+02  0.65732692065E+02 -0.46787890172E+02  0.13909984469E+03  0.93839291176E+02 0.  0.
        -13    1    4    4    0    0  0.86020687698E+02  0.51768997762E+02 -0.21916138222E+02  0.10276139818E+03  0.00000000000E+00 0. -1.
         13    1    4    4    0    0 -0.22514304146E+02  0.13963694304E+02 -0.24871751950E+02  0.36338446511E+02  0.00000000000E+00 0.  1.
        -13    1    3    3    0    0  0.22594406572E+02 -0.40515038946E+02  0.17477652369E+02  0.49572612615E+02  0.00000000000E+00 0.  1.
         13    1    3    3    0    0  0.46776926514E+02  0.49921996287E+02  0.15733722028E+02  0.70198551098E+02  0.00000000000E+00 0. -1.
         21    1    1    2  502  501 -0.13287771664E+03 -0.75139649407E+02 -0.25347237590E+01  0.15267245762E+03  0.00000000000E+00 0.  1.
<scales pt_clust_5="13000.00000" pt_clust_6="13000.00000" pt_clust_7="13000.00000" pt_clust_8="13000.00000" pt_clust_9="113.53396"></scales>
<clustering>
<clus scale="   91.331">  7  8 -1 -1</clus>
<clus scale="   93.839">  5  6 -1 -1</clus>
<clus scale="  115.074">  1  7  2 -1</clus>
<clus scale="  113.534">  1  9  2 -1</clus>
<clus scale="  147.295">  2  5  1 -1</clus>
</clustering>
</event>
<event>
 9    1  0.2423659E-006  0.1882494E+03  0.7546771E-02  0.1191189E+00
          1   -1    0    0  502    0  0.00000000000E+00  0.00000000000E+00  0.37898997601E+03  0.37898997601E+03  0.00000000000E+00 0. -1.
         -1   -1    0    0    0  501 -0.00000000000E+00 -0.00000000000E+00 -0.26008545941E+03  0.26008545941E+03  0.00000000000E+00 0.  1.
         23    2    1    2    0    0  0.89449512599E+01 -0.18592246731E+02 -0.13301832352E+03  0.16229026529E+03  0.90656340233E+02 0.  0.
         23    2    1    2    0    0  0.63180745964E+02  0.15583482159E+03  0.25829775564E+03  0.32161339402E+03  0.91875711491E+02 0.  0.
        -13    1    4    4    0    0  0.48412392571E+02  0.16301847005E+02  0.62226941410E+02  0.80509019417E+02  0.00000000000E+00 0.  1.
         13    1    4    4    0    0  0.14768353393E+02  0.13953297459E+03  0.19607081423E+03  0.24110437460E+03  0.00000000000E+00 0. -1.
        -13    1    3    3    0    0 -0.20885480709E+02 -0.47127254741E+02 -0.78358110786E+02  0.93793256526E+02  0.00000000000E+00 0. -1.
         13    1    3    3    0    0  0.29830431969E+02  0.28535008009E+02 -0.54660212733E+02  0.68497008763E+02  0.00000000000E+00 0.  1.
         21    1    1    2  502  501 -0.72125697224E+02 -0.13724257486E+03 -0.63749155098E+01  0.15517177611E+03  0.00000000000E+00 0.  1.
<scales pt_clust_5="13000.00000" pt_clust_6="13000.00000" pt_clust_7="13000.00000" pt_clust_8="13000.00000" pt_clust_9="164.30668"></scales>
<clustering>
<clus scale="   90.656">  7  8 -1 -1</clus>
<clus scale="   91.876">  5  6 -1 -1</clus>
<clus scale="   92.974">  2  7  1 -1</clus>
<clus scale="  164.307">  2  9  1 -1</clus>
<clus scale="  188.249">  1  5  2 -1</clus>
</clustering>
</event>
<event>
 9    1  0.2423659E-006  0.4026406E+03  0.7546771E-02  0.1067266E+00
         -2   -1    0    0    0  501 -0.00000000000E+00  0.00000000000E+00  0.48915847976E+03  0.48915847976E+03  0.00000000000E+00 0.  1.
          2   -1    0    0  502    0  0.00000000000E+00 -0.00000000000E+00 -0.91326959422E+03  0.91326959422E+03  0.00000000000E+00 0. -1.
         23    2    1    2    0    0  0.14541290370E+03 -0.10490830195E+03  0.11619080107E+03  0.23310231123E+03  0.93197214907E+02 0.  0.
         23    2    1    2    0    0 -0.38429139565E+03  0.18342413352E+03 -0.73300355285E+03  0.85252678746E+03  0.90462286693E+02 0.  0.
        -11    1    3    3    0    0  0.50884092727E+02 -0.43619088807E+02 -0.55277129630E+01  0.67248579254E+02  0.00000000000E+00 0. -1.
         11    1    3    3    0    0  0.94528810968E+02 -0.61289213142E+02  0.12171851403E+03  0.16585373197E+03  0.00000000000E+00 0.  1.
        -13    1    4    4    0    0 -0.16799337617E+03  0.74326864381E+02 -0.40542839632E+03  0.44510497834E+03  0.00000000000E+00 0. -1.
         13    1    4    4    0    0 -0.21629801948E+03  0.10909726914E+03 -0.32757515654E+03  0.40742180912E+03  0.00000000000E+00 0.  1.
         21    1    1    2  502  501  0.23887849195E+03 -0.78515831572E+02  0.19270163732E+03  0.31679897530E+03  0.00000000000E+00 0.  1.
<scales pt_clust_5="13000.00000" pt_clust_6="13000.00000" pt_clust_7="13000.00000" pt_clust_8="13000.00000" pt_clust_9="392.34683"></scales>
<clustering>
<clus scale="   90.462">  7  8 -1 -1</clus>
<clus scale="   93.197">  5  6 -1 -1</clus>
<clus scale="  202.080">  1  5  2 -1</clus>
<clus scale="  392.347">  1  9  2 -1</clus>
<clus scale="  402.641">  2  5  1 -1</clus>
</clustering>
</event>
<event>
 9    1  0.2423659E-006  0.9076609E+02  0.7546771E-02  0.1309269E+00
         -1   -1    0    0    0  501 -0.00000000000E+00  0.00000000000E+00  0.46144094764E+02  0.46144094764E+02  0.00000000000E+00 0.  1.
          1   -1    0    0  502    0  0.00000000000E+00 -0.00000000000E+00 -0.29035773674E+03  0.29035773674E+03  0.00000000000E+00 0. -1.
         23    2    1    2    0    0 -0.99304739552E+01  0.81903707041E+01 -0.33370945357E+02  0.97491627955E+02  0.90693445420E+02 0.  0.
         23    2    1    2    0    0 -0.10327481128E+02  0.14069885973E+02 -0.12813875909E+03  0.15099972091E+03  0.77953547553E+02 0.  0.
        -11    1    3    3    0    0  0.91480498426E+01  0.42065360996E+02 -0.39147389161E+02  0.58186763871E+02  0.00000000000E+00 0. -1.
         11    1    3    3    0    0 -0.19078523798E+02 -0.33874990292E+02  0.57764438047E+01  0.39304864084E+02  0.00000000000E+00 0.  1.
        -11    1    4    4    0    0  0.27971917905E+02  0.25972324908E+02 -0.77609951687E+02  0.86488695523E+02  0.00000000000E+00 0. -1.
         11    1    4    4    0    0 -0.38299399033E+02 -0.11902438935E+02 -0.50528807398E+02  0.64511025383E+02  0.00000000000E+00 0.  1.
         21    1    1    2  502  501  0.20257955083E+02 -0.22260256677E+02 -0.82703937536E+02  0.88010482645E+02  0.00000000000E+00 0.  1.
<scales pt_clust_5="13000.00000" pt_clust_6="13000.00000" pt_clust_7="13000.00000" pt_clust_8="13000.00000" pt_clust_9="30.09824"></scales>
<clustering>
<clus scale="   30.098">  2  9  1 -1</clus>
<clus scale="   77.954">  7  8 -1 -1</clus>
<clus scale="   78.038">  2  7  1 -1</clus>
<clus scale="   90.693">  5  6 -1 -1</clus>
<clus scale="   30.098">  2  5  1 -1</clus>
</clustering>
</event>
<event>
 9    1  0.2423659E-006  0.9772485E+02  0.7546771E-02  0.1285690E+00
          1   -1    0    0  502    0  0.00000000000E+00  0.00000000000E+00  0.50562491488E+03  0.50562491488E+03  0.00000000000E+00 0. -1.
         -1   -1    0    0    0  501 -0.00000000000E+00 -0.00000000000E+00 -0.32966898548E+02  0.32966898548E+02  0.00000000000E+00 0.  1.
         23    2    1    2    0    0 -0.29848885607E+01  0.16796878672E+02  0.18529382365E+03  0.20645342980E+03  0.89432504720E+02 0.  0.
         23    2    1    2    0    0  0.13512409842E+02 -0.54295077592E+02  0.26860366585E+03  0.28890759606E+03  0.90493806881E+02 0.  0.
        -11    1    4    4    0    0  0.29057191275E+02  0.14802344826E+02  0.55830499311E+02  0.64656588454E+02  0.00000000000E+00 0.  1.
         11    1    4    4    0    0 -0.15544781433E+02 -0.69097422417E+02  0.21277316654E+03  0.22425100761E+03  0.00000000000E+00 0. -1.
        -11    1    3    3    0    0  0.22363069014E+02  0.20390383363E+02  0.17696087677E+03  0.17953001558E+03  0.00000000000E+00 0.  1.
         11    1    3    3    0    0 -0.25347957575E+02 -0.35935046913E+01  0.83329468795E+01  0.26923414213E+02  0.00000000000E+00 0. -1.
         21    1    1    2  502  501 -0.10527521281E+02  0.37498198920E+02  0.18760526832E+02  0.43230787566E+02  0.00000000000E+00 0.  1.
<scales pt_clust_5="13000.00000" pt_clust_6="13000.00000" pt_clust_7="13000.00000" pt_clust_8="13000.00000" pt_clust_9="38.94796"></scales>
<clustering>
<clus scale="   38.948">  2  9  1 -1</clus>
<clus scale="   89.433">  7  8 -1 -1</clus>
<clus scale="   90.494">  5  6 -1 -1</clus>
<clus scale="   96.743">  2  7  1 -1</clus>
<clus scale="   97.725">  1  5  2 -1</clus>
</clustering>
</event>
<event>
 9    1  0.2423659E-006  0.1413896E+03  0.7546771E-02  0.1211960E+00
         -2   -1    0    0    0  501 -0.00000000000E+00  0.00000000000E+00  0.53889567272E+03  0.53889567272E+03  0.00000000000E+00 0.  1.
          2   -1    0    0  502    0  0.00000000000E+00 -0.00000000000E+00 -0.26589298552E+03  0.26589298552E+03  0.00000000000E+00 0. -1.
         23    2    1    2    0    0  0.87090650128E+02 -0.68745795297E+02  0.47121150330E+03  0.49311926364E+03  0.93891222252E+02 0.  0.
         23    2    1    2    0    0 -0.56307980901E+02  0.49923921794E+02 -0.88829528951E+01  0.11893611225E+03  0.91672816389E+02 0.  0.
        -11    1    3    3    0    0  0.31979857633E+02 -0.80463576098E+02  0.23998425467E+03  0.25512651932E+03  0.00000000000E+00 0.  1.
         11    1    3    3    0    0  0.55110792494E+02  0.11717780801E+02  0.23122724863E+03  0.23799274431E+03  0.00000000000E+00 0. -1.
        -13    1    4    4    0    0  0.65910338818E+00  0.34263423632E+02 -0.39581871602E+02  0.52355908700E+02  0.00000000000E+00 0. -1.
         13    1    4    4    0    0 -0.56967084289E+02  0.15660498163E+02  0.30698918707E+02  0.66580203551E+02  0.00000000000E+00 0.  1.
         21    1    1    2  502  501 -0.30782669227E+02  0.18821873502E+02 -0.18932586320E+03  0.19273328235E+03  0.00000000000E+00 0. -1.
<scales pt_clust_5="13000.00000" pt_clust_6="13000.00000" pt_clust_7="13000.00000" pt_clust_8="13000.00000" pt_clust_9="36.08096"></scales>
<clustering>
<clus scale="   36.081">  2  9  1 -1</clus>
<clus scale="   91.673">  7  8 -1 -1</clus>
<clus scale="   93.891">  5  6 -1 -1</clus>
<clus scale="  139.926">  2  7  1 -1</clus>
<clus scale="   36.081">  2  5  1 -1</clus>
</clustering>
</event>
<event>
 9    1  0.2423659E-006  0.1097426E+03  0.7546771E-02  0.1262322E+00
         -1   -1    0    0    0  501 -0.00000000000E+00  0.00000000000E+00  0.31640634390E+03  0.31640634390E+03  0.00000000000E+00 0.  1.
          1   -1    0    0  502    0  0.00000000000E+00 -0.00000000000E+00 -0.52711380175E+02  0.52711380175E+02  0.00000000000E+00 0. -1.
         23    2    1    2    0    0 -0.46128779584E+02  0.54029063808E+02  0.14884964408E+03  0.18686043038E+03  0.87827102078E+02 0.  0.
         23    2    1    2    0    0  0.53408602186E+02 -0.21939151420E+02  0.79705823694E+02  0.13411643298E+03  0.91106498737E+02 0.  0.
        -11    1    3    3    0    0 -0.31398299903E+02  0.71902033499E+02  0.14278089610E+03  0.16291758638E+03  0.00000000000E+00 0.  1.
         11    1    3    3    0    0 -0.14730479681E+02 -0.17872969691E+02  0.60687479720E+01  0.23942844007E+02  0.00000000000E+00 0. -1.
        -11    1    4    4    0    0  0.37387696366E+02  0.32565840465E+02  0.26212900841E+02  0.56084667916E+02  0.00000000000E+00 0. -1.
         11    1    4    4    0    0  0.16020905821E+02 -0.54504991885E+02  0.53492922853E+02  0.78031765064E+02  0.00000000000E+00 0.  1.
         21    1    1    2  502  501 -0.72798226018E+01 -0.32089912388E+02  0.35139495960E+02  0.48140860716E+02  0.00000000000E+00 0. -1.
<scales pt_clust_5="13000.00000" pt_clust_6="13000.00000" pt_clust_7="13000.00000" pt_clust_8="13000.00000" pt_clust_9="32.90529"></scales>
<clustering>
<clus scale="   32.905">  1  9  2 -1</clus>
<clus scale="   87.827">  5  6 -1 -1</clus>
<clus scale="   91.106">  7  8 -1 -1</clus>
<clus scale="  107.036">  1  5  2 -1</clus>
<clus scale="  109.743">  2  5  1 -1</clus>
</clustering>
</event>
<event>
 9    1  0.2423659E-006  0.9974041E+02  0.7546771E-02  0.1280843E+00
         -2   -1    0    0    0  501 -0.00000000000E+00  0.00000000000E+00  0.11135957523E+03  0.11135957523E+03  0.00000000000E+00 0.  1.
          2   -1    0    0  502    0  0.00000000000E+00 -0.00000000000E+00 -0.24526550562E+03  0.24526550562E+03  0.00000000000E+00 0. -1.
         23    2    1    2    0    0 -0.79737197363E+01  0.54710355677E+02 -0.60665308630E+02  0.12193908771E+03  0.90177925328E+02 0.  0.
         23    2    1    2    0    0  0.47972938452E+02 -0.10411003096E+02 -0.12067781372E+03  0.15844520799E+03  0.90177366340E+02 0.  0.
        -11    1    4    4    0    0  0.53358414670E+01 -0.28208193917E+02 -0.10622351840E+03  0.11003458215E+03  0.00000000000E+00 0. -1.
         11    1    4    4    0    0  0.42637096985E+02  0.17797190820E+02 -0.14454295323E+02  0.48410625834E+02  0.00000000000E+00 0.  1.
        -13    1    3    3    0    0 -0.34966468218E+02 -0.94055291902E+01 -0.21110574451E+02  0.41913890689E+02  0.00000000000E+00 0. -1.
         13    1    3    3    0    0  0.26992748482E+02  0.64115884868E+02 -0.39554734179E+02  0.80025197025E+02  0.00000000000E+00 0.  1.
         21    1    1    2  502  501 -0.39999218715E+02 -0.44299352581E+02  0.47437191965E+02  0.76240785138E+02  0.00000000000E+00 0.  1.
<scales pt_clust_5="13000.00000" pt_clust_6="13000.00000" pt_clust_7="13000.00000" pt_clust_8="13000.00000" pt_clust_9="59.68559"></scales>
<clustering>
<clus scale="   59.686">  1  9  2 -1</clus>
<clus scale="   90.177">  5  6 -1 -1</clus>
<clus scale="   90.178">  7  8 -1 -1</clus>
<clus scale="   99.740">  2  5  1 -1</clus>
<clus scale="   99.740">  2  5  1 -1</clus>
</clustering>
</event>
<event>
 9    1  0.2423659E-006  0.2477056E+03  0.7546771E-02  0.1140829E+00
          2   -1    0    0  502    0  0.00000000000E+00  0.00000000000E+00  0.97535804989E+03  0.97535804989E+03  0.00000000000E+00 0. -1.
         -2   -1    0    0    0  501 -0.00000000000E+00 -0.00000000000E+00 -0.20294199909E+03  0.20294199909E+03  0.00000000000E+00 0.  1.
         23    2    1    2    0    0 -0.13086773095E+03  0.15483621158E+03  0.59604980542E+03  0.63450114956E+03  0.78839855630E+02 0.  0.
         23    2    1    2    0    0 -0.83621513263E+02 -0.44311587187E+02  0.25804937396E+03  0.28905694768E+03  0.89489470680E+02 0.  0.
        -11    1    4    4    0    0 -0.16618956371E+02 -0.47366331294E+02  0.51612109915E+02  0.71997006472E+02  0.00000000000E+00 0.  1.
         11    1    4    4    0    0 -0.67002556891E+02  0.30547441065E+01  0.20643726404E+03  0.21705994121E+03  0.00000000000E+00 0. -1.
        -11    1    3    3    0    0 -0.27281580208E+02  0.49505918021E+02  0.81641548667E+02  0.99299864081E+02  0.00000000000E+00 0.  1.
         11    1    3    3    0    0 -0.10358615074E+03  0.10533029356E+03  0.51440825675E+03  0.53520128548E+03  0.00000000000E+00 0. -1.
         21    1    1    2  502  501  0.21448924421E+03 -0.11052462439E+03 -0.81683128579E+02  0.25474195174E+03  0.00000000000E+00 0.  1.
<scales pt_clust_5="13000.00000" pt_clust_6="13000.00000" pt_clust_7="13000.00000" pt_clust_8="13000.00000" pt_clust_9="234.82403"></scales>
<clustering>
<clus scale="   78.840">  7  8 -1 -1</clus>
<clus scale="   89.489">  5  6 -1 -1</clus>
<clus scale="  130.248">  1  5  2 -1</clus>
<clus scale="  234.824">  2  9  1 -1</clus>
<clus scale="  130.248">  1  5  2 -1</clus>
</clustering>
</event>
<event>
 9    1  0.2423659E-006  0.1430652E+03  0.7546771E-02  0.1228378E+00
         -1   -1    0    0    0  501 -0.00000000000E+00  0.00000000000E+00  0.63160323335E+02  0.63160323335E+02  0.00000000000E+00 0.  1.
          1   -1    0    0  502    0  0.00000000000E+00 -0.00000000000E+00 -0.56570516951E+03  0.56570516951E+03  0.00000000000E+00 0. -1.
         23    2    1    2    0    0 -0.92541434772E+02  0.61955706877E+02 -0.20584131811E+03  0.25088023009E+03  0.90375963871E+02 0.  0.
         23    2    1    2    0    0 -0.13875896922E+02 -0.27104588377E+02 -0.22633434223E+03  0.24573144897E+03  0.90716653996E+02 0.  0.
        -11    1    4    4    0    0  0.21791358847E+01 -0.56928342866E+02 -0.17657830615E+03  0.18554105491E+03  0.00000000000E+00 0.  1.
         11    1    4    4    0    0 -0.16055032807E+02  0.29823754489E+02 -0.49756036080E+02  0.60190394056E+02  0.00000000000E+00 0. -1.
        -11    1    3    3    0    0 -0.77732980534E+02  0.37332290599E+02 -0.67288580146E+02  0.10937947340E+03  0.00000000000E+00 0.  1.
         11    1    3    3    0    0 -0.14808454238E+02  0.24623416278E+02 -0.13855273796E+03  0.14150075669E+03  0.00000000000E+00 0. -1.
         21    1    1    2  502  501  0.10641733169E+03 -0.34851118500E+02 -0.70369185835E+02  0.13225381379E+03  0.00000000000E+00 0.  1.
<scales pt_clust_5="13000.00000" pt_clust_6="13000.00000" pt_clust_7="13000.00000" pt_clust_8="13000.00000" pt_clust_9="110.90459"></scales>
<clustering>
<clus scale="   90.376">  7  8 -1 -1</clus>
<clus scale="   90.717">  5  6 -1 -1</clus>
<clus scale="   95.691">  2  5  1 -1</clus>
<clus scale="  110.905">  1  9  2 -1</clus>
<clus scale="   95.691">  2  5  1 -1</clus>
</clustering>
</event>
<event>
 9    1  0.2423659E-006  0.1086025E+03  0.7546771E-02  0.1264590E+00
          2   -1    0    0  502    0  0.00000000000E+00  0.00000000000E+00  0.66567044179E+03  0.66567044179E+03  0.00000000000E+00 0. -1.
         -2   -1    0    0    0  501 -0.00000000000E+00 -0.00000000000E+00 -0.60231297727E+02  0.60231297727E+02  0.00000000000E+00 0.  1.
         23    2    1    2    0    0 -0.38418750622E+02 -0.41515260612E+02  0.66027879691E+01  0.10726418609E+03  0.90898248312E+02 0.  0.
         23    2    1    2    0    0  0.46715524700E+02 -0.31645330661E+01  0.47989107662E+03  0.49130688181E+03  0.94311463684E+02 0.  0.
        -13    1    3    3    0    0  0.13423058026E+02 -0.52394400919E+02  0.37525067303E+01  0.54216538447E+02  0.00000000000E+00 0. -1.
         13    1    3    3    0    0 -0.51841808647E+02  0.10879140307E+02  0.28502812388E+01  0.53047647646E+02  0.00000000000E+00 0.  1.
        -13    1    4    4    0    0  0.52091613450E+02 -0.39817546491E+02  0.35632605739E+03  0.36230820082E+03  0.00000000000E+00 0. -1.
         13    1    4    4    0    0 -0.53760887496E+01  0.36653013425E+02  0.12356501922E+03  0.12899868100E+03  0.00000000000E+00 0.  1.
         21    1    1    2  502  501 -0.82967740789E+01  0.44679793678E+02  0.11894527947E+03  0.12733067161E+03  0.00000000000E+00 0.  1.
<scales pt_clust_5="13000.00000" pt_clust_6="13000.00000" pt_clust_7="13000.00000" pt_clust_8="13000.00000" pt_clust_9="45.44360"></scales>
<clustering>
<clus scale="   45.444">  1  9  2 -1</clus>
<clus scale="   90.898">  5  6 -1 -1</clus>
<clus scale="   94.311">  7  8 -1 -1</clus>
<clus scale="  105.652">  2  5  1 -1</clus>
<clus scale="   45.444">  1  5  2 -1</clus>
</clustering>
</event>
<event>
 9    1  0.2423659E-006  0.1184630E+03  0.7546771E-02  0.1248173E+00
         -2   -1    0    0    0  501 -0.00000000000E+00  0.00000000000E+00  0.97752517288E+02  0.97752517288E+02  0.00000000000E+00 0.  1.
          2   -1    0    0  502    0  0.00000000000E+00 -0.00000000000E+00 -0.21021421711E+03  0.21021421711E+03  0.00000000000E+00 0. -1.
         23    2    1    2    0    0 -0.82170131504E+02 -0.36769921592E+01  0.84196080215E+01  0.11840186418E+03  0.84750580288E+02 0.  0.
         23    2    1    2    0    0  0.53580959175E+02  0.23763815288E+02 -0.10324699677E+03  0.15042677925E+03  0.92372265695E+02 0.  0.
        -11    1    4    4    0    0 -0.25317329280E+02 -0.98308103888E+00 -0.35023081081E+02  0.43226725745E+02  0.00000000000E+00 0.  1.
         11    1    4    4    0    0  0.78898288455E+02  0.24746896327E+02 -0.68223915689E+02  0.10720005350E+03  0.00000000000E+00 0. -1.
        -11    1    3    3    0    0 -0.23049770899E+02 -0.29797528856E+02  0.32173941895E+02  0.49541368587E+02  0.00000000000E+00 0.  1.
         11    1    3    3    0    0 -0.59120360605E+02  0.26120536697E+02 -0.23754333874E+02  0.68860495592E+02  0.00000000000E+00 0. -1.
         21    1    1    2  502  501  0.28589172329E+02 -0.20086823129E+02 -0.17634311072E+02  0.39138090971E+02  0.00000000000E+00 0.  1.
<scales pt_clust_5="13000.00000" pt_clust_6="13000.00000" pt_clust_7="13000.00000" pt_clust_8="13000.00000" pt_clust_9="34.94025"></scales>
<clustering>
<clus scale="   34.940">  2  9  1 -1</clus>
<clus scale="   84.751">  7  8 -1 -1</clus>
<clus scale="   92.372">  5  6 -1 -1</clus>
<clus scale="  112.621">  1  7  2 -1</clus>
<clus scale="   34.940">  2  5  1 -1</clus>
</clustering>
</event>
<event>
 9    1  0.2423659E-006  0.1850201E+03  0.7546771E-02  0.1192471E+00
          1   -1    0    0  502    0  0.00000000000E+00  0.00000000000E+00  0.21936299785E+04  0.21936299785E+04  0.00000000000E+00 0. -1.
         -1   -1    0    0    0  501 -0.00000000000E+00 -0.00000000000E+00 -0.26899637050E+02  0.26899637050E+02  0.00000000000E+00 0.  1.
         23    2    1    2    0    0 -0.10525192414E+02 -0.14168318725E+01  0.33946118719E+03  0.35255788802E+03  0.94606446442E+02 0.  0.
         23    2    1    2    0    0 -0.16143323685E+03 -0.20305848104E+02  0.52834040334E+03  0.55753001720E+03  0.72271161927E+02 0.  0.
        -11    1    3    3    0    0 -0.46115974494E+02  0.23423823627E+02  0.19149967744E+03  0.19836200512E+03  0.00000000000E+00 0. -1.
         11    1    3    3    0    0  0.35590782080E+02 -0.24840655500E+02  0.14796150975E+03  0.15419588290E+03  0.00000000000E+00 0.  1.
        -13    1    4    4    0    0 -0.14838061699E+03  0.51490698681E+01  0.41971717406E+03  0.44520312962E+03  0.00000000000E+00 0. -1.
         13    1    4    4    0    0 -0.13052619858E+02 -0.25454917972E+02  0.10862322928E+03  0.11232688758E+03  0.00000000000E+00 0.  1.
         21    1    1    2  502  501  0.17195842926E+03  0.21722679976E+02  0.12989287509E+04  0.13104417103E+04  0.00000000000E+00 0.  1.
<scales pt_clust_5="13000.00000" pt_clust_6="13000.00000" pt_clust_7="13000.00000" pt_clust_8="13000.00000" pt_clust_9="170.32120"></scales>
<clustering>
<clus scale="   72.271">  7  8 -1 -1</clus>
<clus scale="   94.606">  5  6 -1 -1</clus>
<clus scale="   95.201">  2  5  1 -1</clus>
<clus scale="  170.321">  1  9  2 -1</clus>
<clus scale="  170.321">  1  5  2 -1</clus>
</clustering>
</event>
<event>
 9    1  0.2423659E-006  0.1028721E+03  0.7546771E-02  0.1274728E+00
          2   -1    0    0  502    0  0.00000000000E+00  0.00000000000E+00  0.13012974195E+03  0.13012974195E+03  0.00000000000E+00 0. -1.
         -2   -1    0    0    0  501 -0.00000000000E+00 -0.00000000000E+00 -0.18794551096E+03  0.18794551096E+03  0.00000000000E+00 0.  1.
         23    2    1    2    0    0 -0.33794316242E+01 -0.91664593686E+01 -0.11449903627E+03  0.14725562434E+03  0.92080101306E+02 0.  0.
         23    2    1    2    0    0  0.34535441578E+02  0.41691882186E+02  0.65781680213E+02  0.12486986030E+03  0.91292621798E+02 0.  0.
        -11    1    3    3    0    0 -0.42325834998E+02  0.26046820133E+01 -0.90690586067E+02  0.10011514909E+03  0.00000000000E+00 0.  1.
         11    1    3    3    0    0  0.38946403374E+02 -0.11771141382E+02 -0.23808450206E+02  0.47140475246E+02  0.00000000000E+00 0. -1.
        -13    1    4    4    0    0  0.25966815125E+02  0.70727548481E+02  0.52381088424E+02  0.91762955632E+02  0.00000000000E+00 0. -1.
         13    1    4    4    0    0  0.85686264532E+01 -0.29035666295E+02  0.13400591789E+02  0.33106904669E+02  0.00000000000E+00 0.  1.
         21    1    1    2  502  501 -0.31156009954E+02 -0.32525422818E+02 -0.90984129597E+01  0.45949768270E+02  0.00000000000E+00 0.  1.
<scales pt_clust_5="13000.00000" pt_clust_6="13000.00000" pt_clust_7="13000.00000" pt_clust_8="13000.00000" pt_clust_9="45.03998"></scales>
<clustering>
<clus scale="   45.040">  2  9  1 -1</clus>
<clus scale="   91.293">  7  8 -1 -1</clus>
<clus scale="   92.080">  5  6 -1 -1</clus>
<clus scale="  102.168">  1  7  2 -1</clus>
<clus scale="  102.168">  1  5  2 -1</clus>
</clustering>
</event>
<event>
 9    1  0.2423659E-006  0.1283993E+03  0.7546771E-02  0.1239648E+00
          2   -1    0    0  502    0  0.00000000000E+00  0.00000000000E+00  0.13007409781E+04  0.13007409781E+04  0.00000000000E+00 0. -1.
         -2   -1    0    0    0  501 -0.00000000000E+00 -0.00000000000E+00 -0.41119676708E+02  0.41119676708E+02  0.00000000000E+00 0.  1.
         23    2    1    2    0    0  0.19127303892E+02 -0.84628384253E+02  0.10946251989E+03  0.16597402575E+03  0.89652199008E+02 0.  0.
         23    2    1    2    0    0  0.40460248680E+02 -0.26622178452E+02  0.33702051416E+03  0.35301288058E+03  0.93217459636E+02 0.  0.
        -11    1    3    3    0    0 -0.31325121540E+02 -0.62004680709E+02  0.60823589017E+02  0.92332836251E+02  0.00000000000E+00 0.  1.
         11    1    3    3    0    0  0.50452425432E+02 -0.22623703545E+02  0.48638930875E+02  0.73641189499E+02  0.00000000000E+00 0. -1.
        -13    1    4    4    0    0  0.23027531998E+01 -0.51818254189E+02  0.11247616161E+03  0.12386008667E+03  0.00000000000E+00 0.  1.
         13    1    4    4    0    0  0.38157495480E+02  0.25196075737E+02  0.22454435255E+03  0.22915279391E+03  0.00000000000E+00 0. -1.
         21    1    1    2  502  501 -0.59587552572E+02  0.11125056271E+03  0.81313826732E+03  0.82287374846E+03  0.00000000000E+00 0.  1.
<scales pt_clust_5="13000.00000" pt_clust_6="13000.00000" pt_clust_7="13000.00000" pt_clust_8="13000.00000" pt_clust_9="91.91770"></scales>
<clustering>
<clus scale="   89.652">  5  6 -1 -1</clus>
<clus scale="   93.217">  7  8 -1 -1</clus>
<clus scale="  105.049">  1  7  2 -1</clus>
<clus scale="   91.918">  1  9  2 -1</clus>
<clus scale="  105.049">  1  5  2 -1</clus>
</clustering>
</event>
<event>
 9    1  0.2423659E-006  0.1164136E+03  0.7546771E-02  0.1253575E+00
          2   -1    0    0  502    0  0.00000000000E+00  0.00000000000E+00  0.14284667346E+03  0.14284667346E+03  0.00000000000E+00 0. -1.
         -2   -1    0    0    0  501 -0.00000000000E+00 -0.00000000000E+00 -0.22458135248E+03  0.22458135248E+03  0.00000000000E+00 0.  1.
         23    2    1    2    0    0 -0.69185788599E+02  0.15742730133E+02 -0.41367664749E+02  0.12105752135E+03  0.88933305874E+02 0.  0.
         23    2    1    2    0    0  0.53881524498E+02  0.15725531770E+02  0.67154358318E+02  0.13329832600E+03  0.10053966800E+03 0.  0.
        -13    1    3    3    0    0 -0.64108751287E+01 -0.22287028922E+02  0.15768740144E+02  0.28043968046E+02  0.00000000000E+00 0. -1.
         13    1    3    3    0    0 -0.62774913470E+02  0.38029759054E+02 -0.57136404893E+02  0.93013553308E+02  0.00000000000E+00 0.  1.
        -13    1    4    4    0    0  0.21880513013E+02 -0.14178414945E+02 -0.21904135616E+02  0.34052539658E+02  0.00000000000E+00 0.  1.
         13    1    4    4    0    0  0.32001011485E+02  0.29903946715E+02  0.89058493935E+02  0.99245786344E+02  0.00000000000E+00 0. -1.
         21    1    1    2  502  501  0.15304264101E+02 -0.31468261903E+02 -0.10752137258E+03  0.11307217858E+03  0.00000000000E+00 0.  1.
<scales pt_clust_5="13000.00000" pt_clust_6="13000.00000" pt_clust_7="13000.00000" pt_clust_8="13000.00000" pt_clust_9="34.99246"></scales>
<clustering>
<clus scale="   34.992">  2  9  1 -1</clus>
<clus scale="   88.933">  5  6 -1 -1</clus>
<clus scale="  100.540">  7  8 -1 -1</clus>
<clus scale="  106.551">  2  5  1 -1</clus>
<clus scale="  116.414">  1  5  2 -1</clus>
</clustering>
</event>
<event>
 9    1  0.2423659E-006  0.3032453E+03  0.7546771E-02  0.1110259E+00
         -2   -1    0    0    0  501 -0.00000000000E+00  0.00000000000E+00  0.81663572361E+03  0.81663572361E+03  0.00000000000E+00 0.  1.
          2   -1    0    0  502    0  0.00000000000E+00 -0.00000000000E+00 -0.63873802804E+03  0.63873802804E+03  0.00000000000E+00 0. -1.
         23    2    1    2    0    0 -0.21622799247E+03 -0.95604005086E+02  0.23430239271E+03  0.34614887804E+03  0.95009283889E+02 0.  0.
         23    2    1    2    0    0 -0.11839274879E+03  0.19107289599E+02 -0.51478377992E+03  0.53656950474E+03  0.92317722356E+02 0.  0.
        -11    1    4    4    0    0 -0.12379242332E+03 -0.64923874157E+01 -0.44829566285E+03  0.46511903476E+03  0.00000000000E+00 0. -1.
         11    1    4    4    0    0  0.53996745268E+01  0.25599677015E+02 -0.66488117072E+02  0.71450469977E+02  0.00000000000E+00 0.  1.
        -13    1    3    3    0    0 -0.46391767455E+02  0.16668148500E+02  0.63574845633E+02  0.80447400575E+02  0.00000000000E+00 0.  1.
         13    1    3    3    0    0 -0.16983622501E+03 -0.11227215359E+03  0.17072754708E+03  0.26570147747E+03  0.00000000000E+00 0. -1.
         21    1    1    2  502  501  0.33462074126E+03  0.76496715487E+02  0.45837908277E+03  0.57265536886E+03  0.00000000000E+00 0.  1.
<scales pt_clust_5="13000.00000" pt_clust_6="13000.00000" pt_clust_7="13000.00000" pt_clust_8="13000.00000" pt_clust_9="287.97732"></scales>
<clustering>
<clus scale="   92.318">  5  6 -1 -1</clus>
<clus scale="   95.009">  7  8 -1 -1</clus>
<clus scale="  151.342">  2  5  1 -1</clus>
<clus scale="  287.977">  2  9  1 -1</clus>
<clus scale="  151.342">  2  5  1 -1</clus>
</clustering>
</event>
<event>
 9    1  0.2423659E-006  0.1597377E+03  0.7546771E-02  0.1189685E+00
         -2   -1    0    0    0  501 -0.00000000000E+00  0.00000000000E+00  0.12925913150E+03  0.12925913150E+03  0.00000000000E+00 0.  1.
          2   -1    0    0  502    0  0.00000000000E+00 -0.00000000000E+00 -0.61126836042E+03  0.61126836042E+03  0.00000000000E+00 0. -1.
         23    2    1    2    0    0  0.76043704144E+02 -0.18795317190E+03 -0.57037732693E+02  0.22787005473E+03  0.86962170664E+02 0.  0.
         23    2    1    2    0    0  0.16630663341E+02  0.12006443503E+03 -0.33142156438E+03  0.36450545869E+03  0.91279398327E+02 0.  0.
        -13    1    4    4    0    0 -0.37079433264E+02  0.46144285671E+02 -0.15289566978E+03  0.16395507101E+03  0.00000000000E+00 0. -1.
         13    1    4    4    0    0  0.53710096606E+02  0.73920149355E+02 -0.17852589460E+03  0.20055038768E+03  0.00000000000E+00 0.  1.
        -13    1    3    3    0    0  0.93855588474E+01 -0.50394962880E+02 -0.54740082479E+02  0.74994784008E+02  0.00000000000E+00 0. -1.
         13    1    3    3    0    0  0.66658145297E+02 -0.13755820902E+03 -0.22976502138E+01  0.15287527072E+03  0.00000000000E+00 0.  1.
         21    1    1    2  502  501 -0.92674367485E+02  0.67888736870E+02 -0.93549931847E+02  0.14815197849E+03  0.00000000000E+00 0.  1.
<scales pt_clust_5="13000.00000" pt_clust_6="13000.00000" pt_clust_7="13000.00000" pt_clust_8="13000.00000" pt_clust_9="114.88002"></scales>
<clustering>
<clus scale="   86.962">  7  8 -1 -1</clus>
<clus scale="   91.279">  5  6 -1 -1</clus>
<clus scale="  114.880">  1  9  2 -1</clus>
<clus scale="  157.311">  1  7  2 -1</clus>
<clus scale="  159.738">  2  5  1 -1</clus>
</clustering>
</event>
<event>
 9    1  0.2423659E-006  0.1047003E+03  0.7546771E-02  0.1273700E+00
         -2   -1    0    0    0  501 -0.00000000000E+00  0.00000000000E+00  0.11142973200E+03  0.11142973200E+03  0.00000000000E+00 0.  1.
          2   -1    0    0  502    0  0.00000000000E+00 -0.00000000000E+00 -0.23632557472E+03  0.23632557472E+03  0.00000000000E+00 0. -1.
         23    2    1    2    0    0  0.16221445458E+02 -0.20789848634E+02  0.38546104539E+02  0.95667839662E+02  0.83493594195E+02 0.  0.
         23    2    1    2    0    0  0.14063422052E+02  0.59766224262E+02 -0.17022678525E+03  0.20226412831E+03  0.90353958322E+02 0.  0.
        -11    1    4    4    0    0  0.34219736450E+02  0.46646314688E+02 -0.41220473796E+02  0.71035177881E+02  0.00000000000E+00 0.  1.
         11    1    4    4    0    0 -0.20156314398E+02  0.13119909574E+02 -0.12900631145E+03  0.13122895043E+03  0.00000000000E+00 0. -1.
        -11    1    3    3    0    0  0.48916365787E+02 -0.22507468273E+02  0.16966730605E+02  0.56455884700E+02  0.00000000000E+00 0.  1.
         11    1    3    3    0    0 -0.32694920329E+02  0.17176196385E+01  0.21579373934E+02  0.39211954962E+02  0.00000000000E+00 0. -1.
         21    1    1    2  502  501 -0.30284867510E+02 -0.38976375628E+02  0.67848379932E+01  0.49823338746E+02  0.00000000000E+00 0.  1.
<scales pt_clust_5="13000.00000" pt_clust_6="13000.00000" pt_clust_7="13000.00000" pt_clust_8="13000.00000" pt_clust_9="49.35920"></scales>
<clustering>
<clus scale="   49.359">  1  9  2 -1</clus>
<clus scale="   83.494">  7  8 -1 -1</clus>
<clus scale="   90.354">  5  6 -1 -1</clus>
<clus scale="   98.841">  1  7  2 -1</clus>
<clus scale="  104.700">  2  5  1 -1</clus>
</clustering>
</event>
<event>
 9    1  0.2423659E-006  0.1018088E+03  0.7546771E-02  0.1278394E+00
         -2   -1    0    0    0  501 -0.00000000000E+00  0.00000000000E+00  0.20700861053E+03  0.20700861053E+03  0.00000000000E+00 0.  1.
          2   -1    0    0  502    0  0.00000000000E+00 -0.00000000000E+00 -0.42679541580E+03  0.42679541580E+03  0.00000000000E+00 0. -1.
         23    2    1    2    0    0  0.17862298368E+02 -0.32006089694E+02  0.13374876688E+03  0.16525757809E+03  0.89877043752E+02 0.  0.
         23    2    1    2    0    0 -0.84102028300E+02  0.12420000075E+01 -0.20508831449E+02  0.12760519075E+03  0.93743153408E+02 0.  0.
        -13    1    3    3    0    0 -0.23941121476E+02 -0.17973469302E+02  0.11230028945E+03  0.11622210593E+03  0.00000000000E+00 0.  1.
         13    1    3    3    0    0  0.41803419843E+02 -0.14032620391E+02  0.21448477426E+02  0.49035472156E+02  0.00000000000E+00 0. -1.
        -13    1    4    4    0    0 -0.27342808460E+02  0.22746116749E+02 -0.49005644195E+02  0.60552193723E+02  0.00000000000E+00 0. -1.
         13    1    4    4    0    0 -0.56759219841E+02 -0.21504116742E+02  0.28496812746E+02  0.67052997028E+02  0.00000000000E+00 0.  1.
         21    1    1    2  502  501  0.66239729933E+02  0.30764089686E+02 -0.33302674070E+03  0.34094125749E+03  0.00000000000E+00 0. -1.
<scales pt_clust_5="13000.00000" pt_clust_6="13000.00000" pt_clust_7="13000.00000" pt_clust_8="13000.00000" pt_clust_9="73.03514"></scales>
<clustering>
<clus scale="   73.035">  2  9  1 -1</clus>
<clus scale="   89.877">  5  6 -1 -1</clus>
<clus scale="   93.743">  7  8 -1 -1</clus>
<clus scale="   98.261">  1  5  2 -1</clus>
<clus scale="   73.035">  2  5  1 -1</clus>
</clustering>
</event>
<event>
 9    1  0.2423659E-006  0.2153884E+03  0.7546771E-02  0.1138534E+00
         -2   -1    0    0    0  501 -0.00000000000E+00  0.00000000000E+00  0.71879386912E+02  0.71879386912E+02  0.00000000000E+00 0.  1.
          2   -1    0    0  502    0  0.00000000000E+00 -0.00000000000E+00 -0.14326312625E+04  0.14326312625E+04  0.00000000000E+00 0. -1.
         23    2    1    2    0    0  0.99203428052E+02 -0.11382850696E+03 -0.26371969490E+03  0.31710199305E+03  0.90594411452E+02 0.  0.
         23    2    1    2    0    0 -0.23075717569E+03  0.17635673497E+03 -0.72364390012E+03  0.78661572244E+03  0.10369777483E+03 0.  0.
        -11    1    4    4    0    0 -0.20676026789E+03  0.17970162903E+03 -0.70401523038E+03  0.75543360295E+03  0.00000000000E+00 0. -1.
         11    1    4    4    0    0 -0.23996907800E+02 -0.33448940582E+01 -0.19628669739E+02  0.31182119491E+02  0.00000000000E+00 0.  1.
        -13    1    3    3    0    0  0.27229583003E+02 -0.93995642300E+02 -0.18036036494E+03  0.20519866520E+03  0.00000000000E+00 0.  1.
         13    1    3    3    0    0  0.71973845049E+02 -0.19832864664E+02 -0.83359329963E+02  0.11190332785E+03  0.00000000000E+00 0. -1.
         21    1    1    2  502  501  0.13155374764E+03 -0.62528228008E+02 -0.37338828061E+03  0.40079293396E+03  0.00000000000E+00 0.  1.
<scales pt_clust_5="13000.00000" pt_clust_6="13000.00000" pt_clust_7="13000.00000" pt_clust_8="13000.00000" pt_clust_9="145.65771"></scales>
<clustering>
<clus scale="   90.594">  7  8 -1 -1</clus>
<clus scale="  103.698">  5  6 -1 -1</clus>
<clus scale="  145.658">  2  9  1 -1</clus>
<clus scale="  209.395">  1  7  2 -1</clus>
<clus scale="  145.658">  2  5  1 -1</clus>
</clustering>
</event>
<event>
 9    1  0.2423659E-006  0.1346629E+03  0.7546771E-02  0.1222858E+00
          1   -1    0    0  502    0  0.00000000000E+00  0.00000000000E+00  0.60835918248E+02  0.60835918248E+02  0.00000000000E+00 0. -1.
         -1   -1    0    0    0  501 -0.00000000000E+00 -0.00000000000E+00 -0.73593970547E+03  0.73593970547E+03  0.00000000000E+00 0.  1.
         23    2    1    2    0    0  0.60613548764E+02 -0.14383758490E+02 -0.39498984884E+03  0.41048102028E+03  0.92718889773E+02 0.  0.
         23    2    1    2    0    0 -0.10052128144E+03  0.31978796260E+02 -0.37597638985E+02  0.13988768804E+03  0.83832042659E+02 0.  0.
        -11    1    4    4    0    0 -0.25956672094E+02 -0.27953714817E+02 -0.34149774958E+01  0.38299100115E+02  0.00000000000E+00 0.  1.
         11    1    4    4    0    0 -0.74564609346E+02  0.59932511078E+02 -0.34182661490E+02  0.10158858793E+03  0.00000000000E+00 0. -1.
        -11    1    3    3    0    0  0.58264989217E+02 -0.45244520595E+02 -0.33444543231E+03  0.34248448549E+03  0.00000000000E+00 0.  1.
         11    1    3    3    0    0  0.23485595467E+01  0.30860762105E+02 -0.60544416536E+02  0.67996534789E+02  0.00000000000E+00 0. -1.
         21    1    1    2  502  501  0.39907732676E+02 -0.17595037770E+02 -0.24251629939E+03  0.24640691539E+03  0.00000000000E+00 0.  1.
<scales pt_clust_5="13000.00000" pt_clust_6="13000.00000" pt_clust_7="13000.00000" pt_clust_8="13000.00000" pt_clust_9="43.61436"></scales>
<clustering>
<clus scale="   43.614">  2  9  1 -1</clus>
<clus scale="   83.832">  5  6 -1 -1</clus>
<clus scale="   92.719">  7  8 -1 -1</clus>
<clus scale="  128.706">  1  5  2 -1</clus>
<clus scale="  128.706">  1  5  2 -1</clus>
</clustering>
</event>
<event>
 9    1  0.2423659E-006  0.1289036E+03  0.7546771E-02  0.1232199E+00
          2   -1    0    0  502    0  0.00000000000E+00  0.00000000000E+00  0.15872020959E+03  0.15872020959E+03  0.00000000000E+00 0. -1.
         -2   -1    0    0    0  501 -0.00000000000E+00 -0.00000000000E+00 -0.23087442582E+03  0.23087442582E+03  0.00000000000E+00 0.  1.
         23    2    1    2    0    0 -0.59406901131E+02 -0.23277894698E+02 -0.44691237656E+02  0.12227911767E+03  0.94254101298E+02 0.  0.
         23    2    1    2    0    0 -0.16875526012E+01  0.11357581294E+03  0.25126137184E+01  0.15424570545E+03  0.10432215155E+03 0.  0.
        -13    1    3    3    0    0 -0.72713749592E+02 -0.44706164559E+02 -0.46109258971E+02  0.97015433268E+02  0.00000000000E+00 0.  1.
         13    1    3    3    0    0  0.13306848461E+02  0.21428269861E+02  0.14180213148E+01  0.25263684403E+02  0.00000000000E+00 0. -1.
        -13    1    4    4    0    0  0.20663499405E+01  0.72588173892E+02 -0.49525232192E+02  0.87898017126E+02  0.00000000000E+00 0.  1.
         13    1    4    4    0    0 -0.37539025417E+01  0.40987639051E+02  0.52037845910E+02  0.66347688326E+02  0.00000000000E+00 0. -1.
         21    1    1    2  502  501  0.61094453732E+02 -0.90297918245E+02 -0.29975592292E+02  0.11306981228E+03  0.00000000000E+00 0.  1.
<scales pt_clust_5="13000.00000" pt_clust_6="13000.00000" pt_clust_7="13000.00000" pt_clust_8="13000.00000" pt_clust_9="109.02406"></scales>
<clustering>
<clus scale="   94.254">  5  6 -1 -1</clus>
<clus scale="  104.322">  7  8 -1 -1</clus>
<clus scale="  109.024">  2  9  1 -1</clus>
<clus scale="  120.900">  2  5  1 -1</clus>
<clus scale="  128.904">  1  5  2 -1</clus>
</clustering>
</event>
<event>
 9    1  0.2423659E-006  0.1024576E+03  0.7546771E-02  0.1276163E+00
          1   -1    0    0  502    0  0.00000000000E+00  0.00000000000E+00  0.11347404921E+03  0.11347404921E+03  0.00000000000E+00 0. -1.
         -1   -1    0    0    0  501 -0.00000000000E+00 -0.00000000000E+00 -0.36387257991E+03  0.36387257991E+03  0.00000000000E+00 0.  1.
         23    2    1    2    0    0 -0.38683993321E+02 -0.31920829411E+02 -0.32058062784E+03  0.33610785359E+03  0.87642225043E+02 0.  0.
         23    2    1    2    0    0  0.19441656421E+02  0.40986521171E+02  0.51818825970E+02  0.11313781425E+03  0.89761357869E+02 0.  0.
        -11    1    4    4    0    0  0.33389344377E+02  0.64462253767E+02  0.43320861681E+02  0.84539502810E+02  0.00000000000E+00 0. -1.
         11    1    4    4    0    0 -0.13947687957E+02 -0.23475732595E+02  0.84979642890E+01  0.28598311441E+02  0.00000000000E+00 0.  1.
        -11    1    3    3    0    0  0.61084941291E+01  0.23108216439E+02 -0.39143372735E+02  0.45864005457E+02  0.00000000000E+00 0. -1.
         11    1    3    3    0    0 -0.44792487450E+02 -0.55029045850E+02 -0.28143725510E+03  0.29024384813E+03  0.00000000000E+00 0.  1.
         21    1    1    2  502  501  0.19242336900E+02 -0.90656917606E+01  0.18363271173E+02  0.28100961276E+02  0.00000000000E+00 0.  1.
<scales pt_clust_5="13000.00000" pt_clust_6="13000.00000" pt_clust_7="13000.00000" pt_clust_8="13000.00000" pt_clust_9="21.27097"></scales>
<clustering>
<clus scale="   21.271">  1  9  2 -1</clus>
<clus scale="   87.642">  7  8 -1 -1</clus>
<clus scale="   89.761">  5  6 -1 -1</clus>
<clus scale="  100.606">  2  7  1 -1</clus>
<clus scale="   21.271">  1  5  2 -1</clus>
</clustering>
</event>
<event>
 9    1  0.2423659E-006  0.9932088E+02  0.7546771E-02  0.1284886E+00
         -1   -1    0    0    0  501 -0.00000000000E+00  0.00000000000E+00  0.36741406173E+03  0.36741406173E+03  0.00000000000E+00 0.  1.
          1   -1    0    0  502    0  0.00000000000E+00 -0.00000000000E+00 -0.74480408361E+02  0.74480408361E+02  0.00000000000E+00 0. -1.
         23    2    1    2    0    0 -0.38431235784E+02  0.39117395833E+01  0.22519206322E+03  0.24793474881E+03  0.96269999173E+02 0.  0.
         23    2    1    2    0    0 -0.33172233950E+02  0.98066960807E+01  0.34832447559E+01  0.96777483667E+02  0.90317107779E+02 0.  0.
        -11    1    4    4    0    0 -0.64217183138E+02  0.30867138132E+01  0.76361542070E+01  0.64743225618E+02  0.00000000000E+00 0.  1.
         11    1    4    4    0    0  0.31044949189E+02  0.67199822675E+01 -0.41529094511E+01  0.32034258049E+02  0.00000000000E+00 0. -1.
        -13    1    3    3    0    0  0.29305933442E+02  0.11902395631E+02  0.42899530932E+02  0.53299854698E+02  0.00000000000E+00 0. -1.
         13    1    3    3    0    0 -0.67737169226E+02 -0.79906560474E+01  0.18229253228E+03  0.19463489411E+03  0.00000000000E+00 0.  1.
         21    1    1    2  502  501  0.71603469734E+02 -0.13718435664E+02  0.64258345401E+02  0.97182237619E+02  0.00000000000E+00 0. -1.
<scales pt_clust_5="13000.00000" pt_clust_6="13000.00000" pt_clust_7="13000.00000" pt_clust_8="13000.00000" pt_clust_9="72.90578"></scales>
<clustering>
<clus scale="   72.906">  2  9  1 -1</clus>
<clus scale="   90.317">  5  6 -1 -1</clus>
<clus scale="   93.562">  2  5  1 -1</clus>
<clus scale="   96.270">  7  8 -1 -1</clus>
<clus scale="   72.906">  2  5  1 -1</clus>
</clustering>
</event>
<event>
 9    1  0.2423659E-006  0.1319234E+03  0.7546771E-02  0.1224853E+00
          1   -1    0    0  502    0  0.00000000000E+00  0.00000000000E+00  0.57636844178E+03  0.57636844178E+03  0.00000000000E+00 0. -1.
         -1   -1    0    0    0  501 -0.00000000000E+00 -0.00000000000E+00 -0.40298765739E+03  0.40298765739E+03  0.00000000000E+00 0.  1.
         23    2    1    2    0    0  0.96414134086E+02  0.10451199893E+02 -0.36734726967E+03  0.39061866317E+03  0.90741449501E+02 0.  0.
         23    2    1    2    0    0 -0.13075740096E+02  0.12103520351E+02  0.46380222905E+03  0.47310186244E+03  0.91626384788E+02 0.  0.
        -11    1    3    3    0    0  0.96031399242E+02  0.36089141248E+02 -0.32787191877E+03  0.34354686853E+03  0.00000000000E+00 0.  1.
         11    1    3    3    0    0  0.38273484366E+00 -0.25637941355E+02 -0.39475350894E+02  0.47071794645E+02  0.00000000000E+00 0. -1.
        -11    1    4    4    0    0 -0.20633723144E+02  0.50223088726E+02  0.25550584075E+03  0.26121130112E+03  0.00000000000E+00 0. -1.
         11    1    4    4    0    0  0.75579830488E+01 -0.38119568375E+02  0.20829638830E+03  0.21189056132E+03  0.00000000000E+00 0.  1.
         21    1    1    2  502  501 -0.83338393990E+02 -0.22554720243E+02  0.76925825005E+02  0.11563557355E+03  0.00000000000E+00 0. -1.
<scales pt_clust_5="13000.00000" pt_clust_6="13000.00000" pt_clust_7="13000.00000" pt_clust_8="13000.00000" pt_clust_9="86.33657"></scales>
<clustering>
<clus scale="   86.337">  1  9  2 -1</clus>
<clus scale="   90.741">  5  6 -1 -1</clus>
<clus scale="   91.626">  7  8 -1 -1</clus>
<clus scale="  131.310">  2  5  1 -1</clus>
<clus scale="   86.337">  1  5  2 -1</clus>
</clustering>
</event>
<event>
 9    1  0.2423659E-006  0.1571482E+03  0.7546771E-02  0.1216717E+00
         -2   -1    0    0    0  501 -0.00000000000E+00  0.00000000000E+00  0.27695029867E+03  0.27695029867E+03  0.00000000000E+00 0.  1.
          2   -1    0    0  502    0  0.00000000000E+00 -0.00000000000E+00 -0.13505595660E+03  0.13505595660E+03  0.00000000000E+00 0. -1.
         23    2    1    2    0    0 -0.10950419900E+02 -0.31298236600E+01  0.77152610288E+02  0.12017234815E+03  0.91428444661E+02 0.  0.
         23    2    1    2    0    0  0.13257310672E+03 -0.58267121778E+01  0.26165200126E+02  0.16392594694E+03  0.92614897201E+02 0.  0.
        -13    1    3    3    0    0 -0.16523211293E+02 -0.45415021008E+02  0.31449726335E+02  0.57659569293E+02  0.00000000000E+00 0.  1.
         13    1    3    3    0    0  0.55727913925E+01  0.42285197348E+02  0.45702883953E+02  0.62512778855E+02  0.00000000000E+00 0. -1.
        -13    1    4    4    0    0  0.42725109013E+02  0.24401173516E+02  0.45684019837E+02  0.67140761670E+02  0.00000000000E+00 0. -1.
         13    1    4    4    0    0  0.89847997708E+02 -0.30227885694E+02 -0.19518819711E+02  0.96785185274E+02  0.00000000000E+00 0.  1.
         21    1    1    2  502  501 -0.12162268682E+03  0.89565358378E+01  0.38576531653E+02  0.12790796018E+03  0.00000000000E+00 0. -1.
<scales pt_clust_5="13000.00000" pt_clust_6="13000.00000" pt_clust_7="13000.00000" pt_clust_8="13000.00000" pt_clust_9="126.95686"></scales>
<clustering>
<clus scale="   91.428">  5  6 -1 -1</clus>
<clus scale="   92.135">  1  5  2 -1</clus>
<clus scale="   92.615">  7  8 -1 -1</clus>
<clus scale="  126.957">  1  9  2 -1</clus>
<clus scale="  157.148">  2  5  1 -1</clus>
</clustering>
</event>
<event>
 9    1  0.2423659E-006  0.8606503E+02  0.7546771E-02  0.1313776E+00
         -1   -1    0    0    0  501 -0.00000000000E+00  0.00000000000E+00  0.19147401999E+03  0.19147401999E+03  0.00000000000E+00 0.  1.
          1   -1    0    0  502    0  0.00000000000E+00 -0.00000000000E+00 -0.56043151810E+02  0.56043151810E+02  0.00000000000E+00 0. -1.
         23    2    1    2    0    0  0.81892262860E+01  0.16586697100E+02  0.56768009744E+02  0.10330266008E+03  0.84300953143E+02 0.  0.
         23    2    1    2    0    0  0.12242579962E+01  0.13484408087E+02  0.44630830814E+02  0.97834947715E+02  0.86002545696E+02 0.  0.
        -11    1    3    3    0    0 -0.35262232216E+02  0.19874070112E+02  0.39110783627E+02  0.56285496175E+02  0.00000000000E+00 0. -1.
         11    1    3    3    0    0  0.43451458502E+02 -0.32873730122E+01  0.17657226116E+02  0.47017163902E+02  0.00000000000E+00 0.  1.
        -13    1    4    4    0    0  0.19737731445E+02  0.35884785219E+02  0.53568793683E+02  0.67430790515E+02  0.00000000000E+00 0.  1.
         13    1    4    4    0    0 -0.18513473449E+02 -0.22400377132E+02 -0.89379628685E+01  0.30404157200E+02  0.00000000000E+00 0. -1.
         21    1    1    2  502  501 -0.94134842822E+01 -0.30071105186E+02  0.34032027620E+02  0.46379564006E+02  0.00000000000E+00 0.  1.
<scales pt_clust_5="13000.00000" pt_clust_6="13000.00000" pt_clust_7="13000.00000" pt_clust_8="13000.00000" pt_clust_9="31.51008"></scales>
<clustering>
<clus scale="   31.510">  1  9  2 -1</clus>
<clus scale="   84.301">  5  6 -1 -1</clus>
<clus scale="   84.365">  1  5  2 -1</clus>
<clus scale="   86.003">  7  8 -1 -1</clus>
<clus scale="   86.065">  2  5  1 -1</clus>
</clustering>
</event>
<event>
 9    1  0.2423659E-006  0.9541473E+02  0.7546771E-02  0.1291287E+00
         -2   -1    0    0    0  501 -0.00000000000E+00  0.00000000000E+00  0.61395844885E+02  0.61395844885E+02  0.00000000000E+00 0.  1.
          2   -1    0    0  502    0  0.00000000000E+00 -0.00000000000E+00 -0.54584061547E+03  0.54584061547E+03  0.00000000000E+00 0. -1.
         23    2    1    2    0    0  0.95135208317E+01  0.17797330754E+02  0.66349709133E+01  0.94613923048E+02  0.92198262104E+02 0.  0.
         23    2    1    2    0    0 -0.32876413275E+02 -0.45292688919E+02 -0.30218798965E+03  0.32031571636E+03  0.90290037344E+02 0.  0.
        -11    1    3    3    0    0 -0.22124206604E+02  0.41814128603E+02 -0.14684510572E+02  0.49533188061E+02  0.00000000000E+00 0. -1.
         11    1    3    3    0    0  0.31637727436E+02 -0.24016797849E+02  0.21319481485E+02  0.45080734987E+02  0.00000000000E+00 0.  1.
        -13    1    4    4    0    0  0.21868716246E+02 -0.30792374794E+02 -0.54971738355E+02  0.66695600406E+02  0.00000000000E+00 0.  1.
         13    1    4    4    0    0 -0.54745129521E+02 -0.14500314125E+02 -0.24721625129E+03  0.25362011596E+03  0.00000000000E+00 0. -1.
         21    1    1    2  502  501  0.23362892444E+02  0.27495358165E+02 -0.18889175186E+03  0.19230682095E+03  0.00000000000E+00 0. -1.
<scales pt_clust_5="13000.00000" pt_clust_6="13000.00000" pt_clust_7="13000.00000" pt_clust_8="13000.00000" pt_clust_9="36.08074"></scales>
<clustering>
<clus scale="   36.081">  2  9  1 -1</clus>
<clus scale="   90.290">  7  8 -1 -1</clus>
<clus scale="   92.198">  5  6 -1 -1</clus>
<clus scale="   93.572">  2  7  1 -1</clus>
<clus scale="   36.081">  2  5  1 -1</clus>
</clustering>
</event>
<event>
 9    1  0.2423659E-006  0.9432410E+02  0.7546771E-02  0.1294737E+00
         -1   -1    0    0    0  501 -0.00000000000E+00  0.00000000000E+00  0.30296234952E+02  0.30296234952E+02  0.00000000000E+00 0.  1.
          1   -1    0    0  502    0  0.00000000000E+00 -0.00000000000E+00 -0.58457364962E+03  0.58457364962E+03  0.00000000000E+00 0. -1.
         23    2    1    2    0    0  0.10412094774E+02 -0.21061653903E+02 -0.75202172033E+02  0.12129059657E+03  0.92217336523E+02 0.  0.
         23    2    1    2    0    0  0.14379888017E+02  0.10669593441E+02 -0.39879592934E+03  0.40891875721E+03  0.88632586183E+02 0.  0.
        -11    1    3    3    0    0 -0.12166507665E+02 -0.47945304680E+02 -0.15156576588E+02  0.51734881497E+02  0.00000000000E+00 0.  1.
         11    1    3    3    0    0  0.22578602439E+02  0.26883650777E+02 -0.60045595445E+02  0.69555715074E+02  0.00000000000E+00 0. -1.
        -13    1    4    4    0    0  0.49820186666E+02 -0.70846591300E+01 -0.20231310634E+03  0.20847742417E+03  0.00000000000E+00 0.  1.
         13    1    4    4    0    0 -0.35440298649E+02  0.17754252572E+02 -0.19648282300E+03  0.20044133303E+03  0.00000000000E+00 0. -1.
         21    1    1    2  502  501 -0.24791982791E+02  0.10392060462E+02 -0.80279313297E+02  0.84660530796E+02  0.00000000000E+00 0. -1.
<scales pt_clust_5="13000.00000" pt_clust_6="13000.00000" pt_clust_7="13000.00000" pt_clust_8="13000.00000" pt_clust_9="26.88191"></scales>
<clustering>
<clus scale="   26.882">  2  9  1 -1</clus>
<clus scale="   88.633">  7  8 -1 -1</clus>
<clus scale="   90.823">  2  7  1 -1</clus>
<clus scale="   92.217">  5  6 -1 -1</clus>
<clus scale="   26.882">  2  5  1 -1</clus>
</clustering>
</event>
<event>
 9    1  0.2423659E-006  0.9739885E+02  0.7546771E-02  0.1287186E+00
         -1   -1    0    0    0  501 -0.00000000000E+00  0.00000000000E+00  0.10509572008E+03  0.10509572008E+03  0.00000000000E+00 0.  1.
          1   -1    0    0  502    0  0.00000000000E+00 -0.00000000000E+00 -0.17592275574E+03  0.17592275574E+03  0.00000000000E+00 0. -1.
         23    2    1    2    0    0  0.36184285240E+02 -0.93292247289E+00  0.35784230427E+02  0.10462507611E+03  0.91409641507E+02 0.  0.
         23    2    1    2    0    0  0.64811794873E+01  0.13554748712E+02 -0.81887077651E+02  0.12549214362E+03  0.93899135908E+02 0.  0.
        -11    1    3    3    0    0 -0.20443521994E+02 -0.62052882043E+01  0.42291212209E+02  0.47381323571E+02  0.00000000000E+00 0.  1.
         11    1    3    3    0    0  0.56627807234E+02  0.52723657314E+01 -0.65069817816E+01  0.57243752536E+02  0.00000000000E+00 0. -1.
        -13    1    4    4    0    0  0.22542924286E+02 -0.36278549996E+02 -0.35396285971E+02  0.55472639073E+02  0.00000000000E+00 0. -1.
         13    1    4    4    0    0 -0.16061744799E+02  0.49833298708E+02 -0.46490791680E+02  0.70019504548E+02  0.00000000000E+00 0.  1.
         21    1    1    2  502  501 -0.42665464728E+02 -0.12621826239E+02 -0.24724188439E+02  0.50901256094E+02  0.00000000000E+00 0.  1.
<scales pt_clust_5="13000.00000" pt_clust_6="13000.00000" pt_clust_7="13000.00000" pt_clust_8="13000.00000" pt_clust_9="44.49328"></scales>
<clustering>
<clus scale="   44.493">  2  9  1 -1</clus>
<clus scale="   91.410">  5  6 -1 -1</clus>
<clus scale="   93.899">  7  8 -1 -1</clus>
<clus scale="   95.001">  1  5  2 -1</clus>
<clus scale="   44.493">  2  5  1 -1</clus>
</clustering>
</event>
<event>
 9    1  0.2506274E-006  0.1331614E+03  0.7546771E-02  0.1239060E+00
         -1   -1    0    0    0  501 -0.00000000000E+00  0.00000000000E+00  0.23278393490E+03  0.23278393490E+03  0.00000000000E+00 0.  1.
          1   -1    0    0  502    0  0.00000000000E+00 -0.00000000000E+00 -0.29002428110E+03  0.29002428110E+03  0.00000000000E+00 0. -1.
         23    2    1    2    0    0 -0.84526201639E+02  0.41830434867E+01 -0.10207571175E+03  0.16112872840E+03  0.91546925509E+02 0.  0.
         23    2    1    2    0    0 -0.10207999109E+02  0.21079304489E+02 -0.13002078712E+03  0.16121146236E+03  0.92386093048E+02 0.  0.
        -11    1    3    3    0    0 -0.81670108228E+02 -0.16707515708E+02 -0.11050488818E+03  0.13842137830E+03  0.00000000000E+00 0. -1.
         11    1    3    3    0    0 -0.28560934112E+01  0.20890559194E+02  0.84291764341E+01  0.22707350096E+02  0.00000000000E+00 0.  1.
        -13    1    4    4    0    0 -0.31168590828E+01 -0.36135724609E+02 -0.63984173103E+02  0.73549165945E+02  0.00000000000E+00 0.  1.
         13    1    4    4    0    0 -0.70911400265E+01  0.57215029097E+02 -0.66036614018E+02  0.87662296413E+02  0.00000000000E+00 0. -1.
         21    1    1    2  502  501  0.94734200749E+02 -0.25262347976E+02  0.17485615268E+03  0.20046802524E+03  0.00000000000E+00 0.  1.
<scales pt_clust_5="13000.00000" pt_clust_6="13000.00000" pt_clust_7="13000.00000" pt_clust_8="13000.00000" pt_clust_9="96.70114"></scales>
<clustering>
<clus scale="   91.547">  5  6 -1 -1</clus>
<clus scale="   92.386">  7  8 -1 -1</clus>
<clus scale="   95.309">  2  7  1 -1</clus>
<clus scale="   96.701">  1  9  2 -1</clus>
<clus scale="   95.309">  2  5  1 -1</clus>
</clustering>
</event>
<event>
 9    1  0.2423659E-006  0.2075019E+03  0.7546771E-02  0.1160870E+00
         -3   -1    0    0    0  501 -0.00000000000E+00  0.00000000000E+00  0.58729802611E+03  0.58729802611E+03  0.00000000000E+00 0.  1.
          3   -1    0    0  502    0  0.00000000000E+00 -0.00000000000E+00 -0.13431170164E+03  0.13431170164E+03  0.00000000000E+00 0. -1.
         23    2    1    2    0    0  0.10686822757E+03 -0.80748273087E+02  0.96825519370E+02  0.18891255836E+03  0.91496840573E+02 0.  0.
         23    2    1    2    0    0  0.99895301034E+02 -0.21793476385E+02  0.44546229350E+02  0.14492196265E+03  0.92541784758E+02 0.  0.
        -11    1    3    3    0    0  0.78410211027E+02 -0.12717495889E+02  0.81080210624E+02  0.11350725285E+03  0.00000000000E+00 0.  1.
         11    1    3    3    0    0  0.28458016546E+02 -0.68030777198E+02  0.15745308746E+02  0.75405305512E+02  0.00000000000E+00 0. -1.
        -11    1    4    4    0    0 -0.12783078873E+02 -0.19047302071E+02  0.17916978422E+02  0.29107128636E+02  0.00000000000E+00 0.  1.
         11    1    4    4    0    0  0.11267837991E+03 -0.27461743140E+01  0.26629250928E+02  0.11581483401E+03  0.00000000000E+00 0. -1.
         21    1    1    2  502  501 -0.20676352861E+03  0.10254174947E+03  0.31161457575E+03  0.38777520675E+03  0.00000000000E+00 0.  1.
<scales pt_clust_5="13000.00000" pt_clust_6="13000.00000" pt_clust_7="13000.00000" pt_clust_8="13000.00000" pt_clust_9="186.24012"></scales>
<clustering>
<clus scale="   91.497">  5  6 -1 -1</clus>
<clus scale="   92.542">  7  8 -1 -1</clus>
<clus scale="  137.906">  2  7  1 -1</clus>
<clus scale="  186.240">  1  9  2 -1</clus>
<clus scale="  137.906">  2  5  1 -1</clus>
</clustering>
</event>
<event>
 9    1  0.2423659E-006  0.9982578E+02  0.7546771E-02  0.1281410E+00
         -1   -1    0    0    0  501 -0.00000000000E+00  0.00000000000E+00  0.14711470515E+03  0.14711470515E+03  0.00000000000E+00 0.  1.
          1   -1    0    0  502    0  0.00000000000E+00 -0.00000000000E+00 -0.20374010779E+03  0.20374010779E+03  0.00000000000E+00 0. -1.
         23    2    1    2    0    0  0.63849114577E+02 -0.60310545747E+02 -0.51427454290E+02  0.13834367332E+03  0.93702281367E+02 0.  0.
         23    2    1    2    0    0  0.14166963868E+02  0.11929347135E+02 -0.54104048063E+02  0.10849645092E+03  0.92202058856E+02 0.  0.
        -11    1    4    4    0    0  0.51350385753E+02  0.11442034003E+02 -0.47188967770E+02  0.70672349177E+02  0.00000000000E+00 0.  1.
         11    1    4    4    0    0 -0.37183421885E+02  0.48731313151E+00 -0.69150802929E+01  0.37824101743E+02  0.00000000000E+00 0. -1.
        -13    1    3    3    0    0  0.47563133330E+02 -0.81690331097E+02 -0.19337672467E+02  0.96485788712E+02  0.00000000000E+00 0.  1.
         13    1    3    3    0    0  0.16285981247E+02  0.21379785350E+02 -0.32089781823E+02  0.41857884612E+02  0.00000000000E+00 0. -1.
         21    1    1    2  502  501 -0.78016078445E+02  0.48381198612E+02  0.48906099710E+02  0.10401468869E+03  0.00000000000E+00 0. -1.
<scales pt_clust_5="13000.00000" pt_clust_6="13000.00000" pt_clust_7="13000.00000" pt_clust_8="13000.00000" pt_clust_9="91.80005"></scales>
<clustering>
<clus scale="   91.800">  1  9  2 -1</clus>
<clus scale="   92.202">  5  6 -1 -1</clus>
<clus scale="   93.702">  7  8 -1 -1</clus>
<clus scale="   98.419">  2  5  1 -1</clus>
<clus scale="   98.419">  2  5  1 -1</clus>
</clustering>
</event>
<event>
 9    1  0.2423659E-006  0.1391585E+03  0.7546771E-02  0.1231046E+00
          1   -1    0    0  502    0  0.00000000000E+00  0.00000000000E+00  0.14600049890E+04  0.14600049890E+04  0.00000000000E+00 0. -1.
         -1   -1    0    0    0  501 -0.00000000000E+00 -0.00000000000E+00 -0.25944433829E+02  0.25944433829E+02  0.00000000000E+00 0.  1.
         23    2    1    2    0    0  0.31775073581E+02 -0.39964596837E+01  0.21765453343E+03  0.23886534865E+03  0.93045858974E+02 0.  0.
         23    2    1    2    0    0  0.73981527434E+02  0.39309982048E+02  0.30955900606E+03  0.33340852270E+03  0.91191686498E+02 0.  0.
        -11    1    4    4    0    0  0.41587503371E+02  0.37393258877E+02  0.29037434930E+03  0.29571107348E+03  0.00000000000E+00 0.  1.
         11    1    4    4    0    0  0.32394024063E+02  0.19167231704E+01  0.19184656756E+02  0.37697449218E+02  0.00000000000E+00 0. -1.
        -13    1    3    3    0    0  0.47508720591E+02  0.18818984584E+02  0.60080684976E+02  0.78872818006E+02  0.00000000000E+00 0.  1.
         13    1    3    3    0    0 -0.15733647010E+02 -0.22815444268E+02  0.15757384846E+03  0.15999253065E+03  0.00000000000E+00 0. -1.
         21    1    1    2  502  501 -0.10575660102E+03 -0.35313522364E+02  0.90684701566E+03  0.91367555145E+03  0.00000000000E+00 0. -1.
<scales pt_clust_5="13000.00000" pt_clust_6="13000.00000" pt_clust_7="13000.00000" pt_clust_8="13000.00000" pt_clust_9="105.11504"></scales>
<clustering>
<clus scale="   91.192">  5  6 -1 -1</clus>
<clus scale="   93.046">  7  8 -1 -1</clus>
<clus scale="   98.403">  2  7  1 -1</clus>
<clus scale="  105.115">  1  9  2 -1</clus>
<clus scale="  105.115">  1  5  2 -1</clus>
</clustering>
</event>
<event>
 9    1  0.2423659E-006  0.1276319E+03  0.7546771E-02  0.1231524E+00
          1   -1    0    0  502    0  0.00000000000E+00  0.00000000000E+00  0.73612092451E+03  0.73612092451E+03  0.00000000000E+00 0. -1.
         -1   -1    0    0    0  501 -0.00000000000E+00 -0.00000000000E+00 -0.52808126077E+02  0.52808126077E+02  0.00000000000E+00 0.  1.
         23    2    1    2    0    0 -0.52337100850E+02 -0.48854294037E+02  0.91133848119E+02  0.14651585064E+03  0.89641519641E+02 0.  0.
         23    2    1    2    0    0  0.10005911801E+03  0.83062743797E+02  0.25765418770E+03  0.30277453055E+03  0.91517699936E+02 0.  0.
        -11    1    4    4    0    0  0.20781633108E+02  0.74420943635E+02  0.10289523839E+03  0.12867705005E+03  0.00000000000E+00 0.  1.
         11    1    4    4    0    0  0.79277484900E+02  0.86418001621E+01  0.15475894931E+03  0.17409748049E+03  0.00000000000E+00 0. -1.
        -13    1    3    3    0    0 -0.35533567956E+02  0.22054276539E+02  0.31626572682E+02  0.52433440331E+02  0.00000000000E+00 0.  1.
         13    1    3    3    0    0 -0.16803532894E+02 -0.70908570576E+02  0.59507275437E+02  0.94082410305E+02  0.00000000000E+00 0. -1.
         21    1    1    2  502  501 -0.47722017158E+02 -0.34208449760E+02  0.33452476261E+03  0.33963866941E+03  0.00000000000E+00 0. -1.
<scales pt_clust_5="13000.00000" pt_clust_6="13000.00000" pt_clust_7="13000.00000" pt_clust_8="13000.00000" pt_clust_9="58.71634"></scales>
<clustering>
<clus scale="   58.716">  1  9  2 -1</clus>
<clus scale="   89.642">  7  8 -1 -1</clus>
<clus scale="   91.518">  5  6 -1 -1</clus>
<clus scale="  126.293">  2  7  1 -1</clus>
<clus scale="   58.716">  1  5  2 -1</clus>
</clustering>
</event>
<event>
 9    1  0.2423659E-006  0.1473090E+03  0.7546771E-02  0.1215742E+00
         -2   -1    0    0    0  501 -0.00000000000E+00  0.00000000000E+00  0.45466595746E+02  0.45466595746E+02  0.00000000000E+00 0.  1.
          2   -1    0    0  502    0  0.00000000000E+00 -0.00000000000E+00 -0.10768943788E+04  0.10768943788E+04  0.00000000000E+00 0. -1.
         23    2    1    2    0    0  0.35916777162E+02 -0.59182805534E+02 -0.24348922588E+03  0.26893426650E+03  0.90807583549E+02 0.  0.
         23    2    1    2    0    0  0.35913832081E+01 -0.99864397419E+02 -0.53659745796E+03  0.55337795258E+03  0.91129197307E+02 0.  0.
        -11    1    3    3    0    0  0.41733442483E+02 -0.15574752767E+02 -0.20711271047E+03  0.21184883286E+03  0.00000000000E+00 0. -1.
         11    1    3    3    0    0 -0.58166653203E+01 -0.43608052767E+02 -0.36376515409E+02  0.57085433649E+02  0.00000000000E+00 0.  1.
        -13    1    4    4    0    0  0.38028420856E+02 -0.32364214029E+02 -0.12050721605E+03  0.13044382800E+03  0.00000000000E+00 0. -1.
         13    1    4    4    0    0 -0.34437037648E+02 -0.67500183390E+02 -0.41609024191E+03  0.42293412458E+03  0.00000000000E+00 0.  1.
         21    1    1    2  502  501 -0.39508160370E+02  0.15904720295E+03 -0.25134109924E+03  0.30004875549E+03  0.00000000000E+00 0. -1.
<scales pt_clust_5="13000.00000" pt_clust_6="13000.00000" pt_clust_7="13000.00000" pt_clust_8="13000.00000" pt_clust_9="115.73861"></scales>
<clustering>
<clus scale="   90.808">  5  6 -1 -1</clus>
<clus scale="   91.129">  7  8 -1 -1</clus>
<clus scale="  114.187">  1  5  2 -1</clus>
<clus scale="  115.739">  1  9  2 -1</clus>
<clus scale="  147.309">  2  5  1 -1</clus>
</clustering>
</event>
<event>
 9    1  0.2423659E-006  0.1258410E+03  0.7546771E-02  0.1235311E+00
         -1   -1    0    0    0  501 -0.00000000000E+00  0.00000000000E+00  0.99290648147E+03  0.99290648147E+03  0.00000000000E+00 0.  1.
          1   -1    0    0  502    0  0.00000000000E+00 -0.00000000000E+00 -0.51486515789E+02  0.51486515789E+02  0.00000000000E+00 0. -1.
         23    2    1    2    0    0 -0.25004603648E+01 -0.60608615131E+02  0.46495332666E+03  0.47751716765E+03  0.90340427802E+02 0.  0.
         23    2    1    2    0    0  0.83720737292E+02  0.52226855809E+02  0.61394963024E+02  0.14384925422E+03  0.84772991775E+02 0.  0.
        -11    1    3    3    0    0 -0.49560096632E+01  0.22260290546E+02  0.60528016437E+02  0.64681707930E+02  0.00000000000E+00 0.  1.
         11    1    3    3    0    0  0.24555492984E+01 -0.82868905677E+02  0.40442531023E+03  0.41283545972E+03  0.00000000000E+00 0. -1.
        -11    1    4    4    0    0  0.41269499022E+02  0.57894282597E+02  0.70432452140E+02  0.10007821852E+03  0.00000000000E+00 0.  1.
         11    1    4    4    0    0  0.42451238270E+02 -0.56674267873E+01 -0.90374891164E+01  0.43771035704E+02  0.00000000000E+00 0. -1.
         21    1    1    2  502  501 -0.81220276927E+02  0.83817593216E+01  0.41507167600E+03  0.42302657539E+03  0.00000000000E+00 0.  1.
<scales pt_clust_5="13000.00000" pt_clust_6="13000.00000" pt_clust_7="13000.00000" pt_clust_8="13000.00000" pt_clust_9="81.65162"></scales>
<clustering>
<clus scale="   81.652">  1  9  2 -1</clus>
<clus scale="   84.773">  7  8 -1 -1</clus>
<clus scale="   90.340">  5  6 -1 -1</clus>
<clus scale="  121.906">  2  7  1 -1</clus>
<clus scale="  121.906">  2  5  1 -1</clus>
</clustering>
</event>
<event>
 9    1  0.2423659E-006  0.9368743E+02  0.7546771E-02  0.1295251E+00
          2   -1    0    0  502    0  0.00000000000E+00  0.00000000000E+00  0.37207146223E+02  0.37207146223E+02  0.00000000000E+00 0. -1.
         -2   -1    0    0    0  501 -0.00000000000E+00 -0.00000000000E+00 -0.31982510527E+03  0.31982510527E+03  0.00000000000E+00 0.  1.
         23    2    1    2    0    0 -0.79802621903E+01 -0.17716728879E+02 -0.12564419380E+03  0.15634915428E+03  0.91000151329E+02 0.  0.
         23    2    1    2    0    0  0.31098352510E+02  0.13472081880E+01 -0.10267149556E+03  0.13943651526E+03  0.89062805303E+02 0.  0.
        -11    1    4    4    0    0  0.12203766601E+02  0.40279019083E+02 -0.21061510498E+02  0.47062920882E+02  0.00000000000E+00 0.  1.
         11    1    4    4    0    0  0.18894585909E+02 -0.38931810895E+02 -0.81609985066E+02  0.92373594380E+02  0.00000000000E+00 0. -1.
        -13    1    3    3    0    0  0.19796368962E+02  0.13899545227E+02 -0.10806728892E+03  0.11074128641E+03  0.00000000000E+00 0.  1.
         13    1    3    3    0    0 -0.27776631152E+02 -0.31616274106E+02 -0.17576904882E+02  0.45607867871E+02  0.00000000000E+00 0. -1.
         21    1    1    2  502  501 -0.23118090320E+02  0.16369520691E+02 -0.54302269681E+02  0.61246581947E+02  0.00000000000E+00 0. -1.
<scales pt_clust_5="13000.00000" pt_clust_6="13000.00000" pt_clust_7="13000.00000" pt_clust_8="13000.00000" pt_clust_9="28.32679"></scales>
<clustering>
<clus scale="   28.327">  2  9  1 -1</clus>
<clus scale="   89.063">  5  6 -1 -1</clus>
<clus scale="   91.000">  7  8 -1 -1</clus>
<clus scale="   91.807">  1  5  2 -1</clus>
<clus scale="   91.807">  1  5  2 -1</clus>
</clustering>
</event>
<event>
 9    1  0.2423659E-006  0.1134276E+03  0.7546771E-02  0.1254600E+00
         -1   -1    0    0    0  501 -0.00000000000E+00  0.00000000000E+00  0.31665478595E+03  0.31665478595E+03  0.00000000000E+00 0.  1.
          1   -1    0    0  502    0  0.00000000000E+00 -0.00000000000E+00 -0.85402248087E+02  0.85402248087E+02  0.00000000000E+00 0. -1.
         23    2    1    2    0    0  0.30405482904E+02 -0.32473857659E+02  0.12458709241E+03  0.16133492328E+03  0.92347003493E+02 0.  0.
         23    2    1    2    0    0 -0.50536070585E+02  0.51964759375E+02 -0.12231226241E+02  0.11856829644E+03  0.93030142315E+02 0.  0.
        -11    1    3    3    0    0  0.63090751627E+02 -0.17365757103E+02  0.91069827672E+02  0.11214154437E+03  0.00000000000E+00 0. -1.
         11    1    3    3    0    0 -0.32685268723E+02 -0.15108100556E+02  0.33517264735E+02  0.49193378917E+02  0.00000000000E+00 0.  1.
        -13    1    4    4    0    0 -0.37491653251E+02  0.71161380413E+02 -0.33459108322E+02  0.87115314701E+02  0.00000000000E+00 0. -1.
         13    1    4    4    0    0 -0.13044417333E+02 -0.19196621038E+02  0.21227882081E+02  0.31452981742E+02  0.00000000000E+00 0.  1.
         21    1    1    2  502  501  0.20130587681E+02 -0.19490901716E+02  0.11889667170E+03  0.12215381431E+03  0.00000000000E+00 0.  1.
<scales pt_clust_5="13000.00000" pt_clust_6="13000.00000" pt_clust_7="13000.00000" pt_clust_8="13000.00000" pt_clust_9="28.02027"></scales>
<clustering>
<clus scale="   28.020">  1  9  2 -1</clus>
<clus scale="   92.347">  5  6 -1 -1</clus>
<clus scale="   93.030">  7  8 -1 -1</clus>
<clus scale="  112.868">  1  5  2 -1</clus>
<clus scale="  113.428">  2  5  1 -1</clus>
</clustering>
</event>
<event>
 9    1  0.2423659E-006  0.2746003E+03  0.7546771E-02  0.1118277E+00
         -1   -1    0    0    0  501 -0.00000000000E+00  0.00000000000E+00  0.88028871379E+02  0.88028871379E+02  0.00000000000E+00 0.  1.
          1   -1    0    0  502    0  0.00000000000E+00 -0.00000000000E+00 -0.23622746619E+04  0.23622746619E+04  0.00000000000E+00 0. -1.
         23    2    1    2    0    0 -0.13647176373E+03 -0.22842867528E+02 -0.94207940849E+02  0.19124352986E+03  0.92480336848E+02 0.  0.
         23    2    1    2    0    0  0.28974256785E+02 -0.25006607915E+03 -0.14025843795E+04  0.14281154172E+04  0.94330014077E+02 0.  0.
        -13    1    3    3    0    0 -0.36466673355E+02 -0.16167157798E+02 -0.80816878861E+02  0.90125263749E+02  0.00000000000E+00 0.  1.
         13    1    3    3    0    0 -0.10000509037E+03 -0.66757097304E+01 -0.13391061988E+02  0.10111826612E+03  0.00000000000E+00 0. -1.
        -13    1    4    4    0    0 -0.20526551765E+02 -0.84507377813E+01 -0.11614358377E+03  0.11824587243E+03  0.00000000000E+00 0.  1.
         13    1    4    4    0    0  0.49500808550E+02 -0.24161534137E+03 -0.12864407957E+04  0.13098695447E+04  0.00000000000E+00 0. -1.
         21    1    1    2  502  501  0.10749750694E+03  0.27290894668E+03 -0.77745347016E+03  0.83094458627E+03  0.00000000000E+00 0.  1.
<scales pt_clust_5="13000.00000" pt_clust_6="13000.00000" pt_clust_7="13000.00000" pt_clust_8="13000.00000" pt_clust_9="257.88982"></scales>
<clustering>
<clus scale="   92.480">  5  6 -1 -1</clus>
<clus scale="   94.330">  7  8 -1 -1</clus>
<clus scale="  166.430">  1  5  2 -1</clus>
<clus scale="  257.890">  1  9  2 -1</clus>
<clus scale="  274.600">  2  5  1 -1</clus>
</clustering>
</event>
<event>
 9    1  0.2423659E-006  0.9480385E+02  0.7546771E-02  0.1291901E+00
         -3   -1    0    0    0  501 -0.00000000000E+00  0.00000000000E+00  0.49099376826E+02  0.49099376826E+02  0.00000000000E+00 0.  1.
          3   -1    0    0  502    0  0.00000000000E+00 -0.00000000000E+00 -0.33703848710E+03  0.33703848710E+03  0.00000000000E+00 0. -1.
         23    2    1    2    0    0 -0.33283022025E+02  0.20937500170E+02 -0.83434929534E+02  0.12988687994E+03  0.91449853181E+02 0.  0.
         23    2    1    2    0    0 -0.19502413862E+02 -0.27368623192E+02 -0.15919568442E+03  0.18639025522E+03  0.90932258411E+02 0.  0.
        -13    1    4    4    0    0  0.62053713575E+01 -0.43607894348E+02 -0.29108159361E+02  0.52796212217E+02  0.00000000000E+00 0.  1.
         13    1    4    4    0    0 -0.25707785219E+02  0.16239271156E+02 -0.13008752506E+03  0.13359404300E+03  0.00000000000E+00 0. -1.
        -13    1    3    3    0    0 -0.11824123324E+02 -0.34676784154E+02 -0.16280091911E+02  0.40091528336E+02  0.00000000000E+00 0. -1.
         13    1    3    3    0    0 -0.21458898701E+02  0.55614284324E+02 -0.67154837622E+02  0.89795351608E+02  0.00000000000E+00 0.  1.
         21    1    1    2  502  501  0.52785435887E+02  0.64311230225E+01 -0.45308496320E+02  0.69860728768E+02  0.00000000000E+00 0. -1.
<scales pt_clust_5="13000.00000" pt_clust_6="13000.00000" pt_clust_7="13000.00000" pt_clust_8="13000.00000" pt_clust_9="53.17576"></scales>
<clustering>
<clus scale="   53.176">  1  9  2 -1</clus>
<clus scale="   90.932">  5  6 -1 -1</clus>
<clus scale="   91.450">  7  8 -1 -1</clus>
<clus scale="   94.305">  2  5  1 -1</clus>
<clus scale="   94.305">  2  5  1 -1</clus>
</clustering>
</event>
<event>
 9    1  0.2423659E-006  0.1177094E+03  0.7546771E-02  0.1248265E+00
         -3   -1    0    0    0  501 -0.00000000000E+00  0.00000000000E+00  0.19512822295E+03  0.19512822295E+03  0.00000000000E+00 0.  1.
          3   -1    0    0  502    0  0.00000000000E+00 -0.00000000000E+00 -0.10388333869E+03  0.10388333869E+03  0.00000000000E+00 0. -1.
         23    2    1    2    0    0  0.53360221934E+02  0.36031474825E+02  0.80773870873E+02  0.14053457170E+03  0.95288861697E+02 0.  0.
         23    2    1    2    0    0 -0.73940052512E+02 -0.67445740812E+01 -0.83154598585E+01  0.11805195366E+03  0.91402933460E+02 0.  0.
        -11    1    4    4    0    0 -0.43295000102E+02  0.30174228046E+02 -0.34832437077E+02  0.63231635633E+02  0.00000000000E+00 0.  1.
         11    1    4    4    0    0 -0.30645052410E+02 -0.36918802128E+02  0.26516977219E+02  0.54820318027E+02  0.00000000000E+00 0. -1.
        -13    1    3    3    0    0  0.32751002068E+02  0.14049713409E+02 -0.16083375894E+02  0.39098562166E+02  0.00000000000E+00 0. -1.
         13    1    3    3    0    0  0.20609219866E+02  0.21981761416E+02  0.96857246767E+02  0.10143600953E+03  0.00000000000E+00 0.  1.
         21    1    1    2  502  501  0.20579830578E+02 -0.29286900743E+02  0.18786473243E+02  0.40425036286E+02  0.00000000000E+00 0. -1.
<scales pt_clust_5="13000.00000" pt_clust_6="13000.00000" pt_clust_7="13000.00000" pt_clust_8="13000.00000" pt_clust_9="35.79458"></scales>
<clustering>
<clus scale="   35.795">  1  9  2 -1</clus>
<clus scale="   91.403">  5  6 -1 -1</clus>
<clus scale="   95.289">  7  8 -1 -1</clus>
<clus scale="  114.586">  2  5  1 -1</clus>
<clus scale="  114.586">  2  5  1 -1</clus>
</clustering>
</event>
<event>
 9    1  0.2423659E-006  0.9971851E+02  0.7546771E-02  0.1281450E+00
          1   -1    0    0  502    0  0.00000000000E+00  0.00000000000E+00  0.55957703295E+03  0.55957703295E+03  0.00000000000E+00 0. -1.
         -1   -1    0    0    0  501 -0.00000000000E+00 -0.00000000000E+00 -0.70078640593E+02  0.70078640593E+02  0.00000000000E+00 0.  1.
         23    2    1    2    0    0 -0.50248108806E+02 -0.52173374538E+02  0.37545288006E+02  0.12116843214E+03  0.89583518839E+02 0.  0.
         23    2    1    2    0    0  0.35111924238E+02 -0.28963296233E+02  0.39591689481E+03  0.40872592522E+03  0.90746760784E+02 0.  0.
        -13    1    4    4    0    0  0.48043915587E+02  0.12756240667E+02  0.28879226254E+03  0.29303909365E+03  0.00000000000E+00 0. -1.
         13    1    4    4    0    0 -0.12931991349E+02 -0.41719536900E+02  0.10712463227E+03  0.11568683157E+03  0.00000000000E+00 0.  1.
        -13    1    3    3    0    0 -0.61549713569E+02 -0.28948422496E+02 -0.83261144851E+01  0.68525196737E+02  0.00000000000E+00 0.  1.
         13    1    3    3    0    0  0.11301604764E+02 -0.23224952043E+02  0.45871402491E+02  0.52643235407E+02  0.00000000000E+00 0. -1.
         21    1    1    2  502  501  0.15136184568E+02  0.81136670771E+02  0.56036209538E+02  0.99761316183E+02  0.00000000000E+00 0.  1.
<scales pt_clust_5="13000.00000" pt_clust_6="13000.00000" pt_clust_7="13000.00000" pt_clust_8="13000.00000" pt_clust_9="82.53644"></scales>
<clustering>
<clus scale="   82.536">  2  9  1 -1</clus>
<clus scale="   89.584">  7  8 -1 -1</clus>
<clus scale="   90.747">  5  6 -1 -1</clus>
<clus scale="   98.661">  2  7  1 -1</clus>
<clus scale="   99.719">  1  5  2 -1</clus>
</clustering>
</event>
<event>
 9    1  0.2423659E-006  0.1766424E+03  0.7546771E-02  0.1201780E+00
         -1   -1    0    0    0  501 -0.00000000000E+00  0.00000000000E+00  0.72207437804E+03  0.72207437804E+03  0.00000000000E+00 0.  1.
          1   -1    0    0  502    0  0.00000000000E+00 -0.00000000000E+00 -0.16417408435E+03  0.16417408435E+03  0.00000000000E+00 0. -1.
         23    2    1    2    0    0  0.37023716471E+02 -0.13619843122E+03  0.27338653564E+02  0.17181722504E+03  0.94090321467E+02 0.  0.
         23    2    1    2    0    0 -0.74634515005E+01 -0.11504987282E+02 -0.58283615970E+02  0.10662465238E+03  0.88225669528E+02 0.  0.
        -11    1    3    3    0    0  0.46832578739E+02 -0.44842267086E+02  0.44106133296E+02  0.78418558665E+02  0.00000000000E+00 0.  1.
         11    1    3    3    0    0 -0.98088622684E+01 -0.91356164130E+02 -0.16767479732E+02  0.93398666372E+02  0.00000000000E+00 0. -1.
        -13    1    4    4    0    0 -0.35289168956E+02 -0.18678841975E+02 -0.65759934522E+02  0.76932396112E+02  0.00000000000E+00 0. -1.
         13    1    4    4    0    0  0.27825717456E+02  0.71738546935E+01  0.74763185524E+01  0.29692256266E+02  0.00000000000E+00 0.  1.
         21    1    1    2  502  501 -0.29560264971E+02  0.14770341850E+03  0.58884525610E+03  0.60780658497E+03  0.00000000000E+00 0.  1.
<scales pt_clust_5="13000.00000" pt_clust_6="13000.00000" pt_clust_7="13000.00000" pt_clust_8="13000.00000" pt_clust_9="149.49762"></scales>
<clustering>
<clus scale="   88.226">  7  8 -1 -1</clus>
<clus scale="   89.285">  2  7  1 -1</clus>
<clus scale="   94.090">  5  6 -1 -1</clus>
<clus scale="  149.498">  1  9  2 -1</clus>
<clus scale="   89.285">  2  5  1 -1</clus>
</clustering>
</event>
<event>
 9    1  0.2423659E-006  0.1562457E+03  0.7546771E-02  0.1196507E+00
         -1   -1    0    0    0  501 -0.00000000000E+00  0.00000000000E+00  0.25086756495E+03  0.25086756495E+03  0.00000000000E+00 0.  1.
          1   -1    0    0  502    0  0.00000000000E+00 -0.00000000000E+00 -0.13690781821E+03  0.13690781821E+03  0.00000000000E+00 0. -1.
         23    2    1    2    0    0  0.12583093053E+03  0.45106813730E+02  0.13184502746E+03  0.20950214547E+03  0.92951546335E+02 0.  0.
         23    2    1    2    0    0 -0.10282793485E+03 -0.48435679608E+02  0.17841793061E+02  0.13565114296E+03  0.71856132398E+02 0.  0.
        -13    1    3    3    0    0  0.74784312270E+02 -0.99952504213E+01  0.10591189449E+03  0.13003817819E+03  0.00000000000E+00 0.  1.
         13    1    3    3    0    0  0.51046618257E+02  0.55102064151E+02  0.25933132971E+02  0.79463967274E+02  0.00000000000E+00 0. -1.
        -13    1    4    4    0    0 -0.80253938793E+02 -0.67348078768E+02  0.10451204346E+02  0.10528858475E+03  0.00000000000E+00 0.  1.
         13    1    4    4    0    0 -0.22573996056E+02  0.18912399160E+02  0.73905887153E+01  0.30362558217E+02  0.00000000000E+00 0. -1.
         21    1    1    2  502  501 -0.23002995679E+02  0.33288658786E+01 -0.35727073786E+02  0.42622094735E+02  0.00000000000E+00 0. -1.
<scales pt_clust_5="13000.00000" pt_clust_6="13000.00000" pt_clust_7="13000.00000" pt_clust_8="13000.00000" pt_clust_9="23.24262"></scales>
<clustering>
<clus scale="   23.243">  2  9  1 -1</clus>
<clus scale="   71.856">  7  8 -1 -1</clus>
<clus scale="   92.952">  5  6 -1 -1</clus>
<clus scale="  144.693">  2  7  1 -1</clus>
<clus scale="   23.243">  2  5  1 -1</clus>
</clustering>
</event>
<event>
 9    1  0.2423659E-006  0.1029437E+03  0.7546771E-02  0.1275195E+00
         -2   -1    0    0    0  501 -0.00000000000E+00  0.00000000000E+00  0.14852410182E+03  0.14852410182E+03  0.00000000000E+00 0.  1.
          2   -1    0    0  502    0  0.00000000000E+00 -0.00000000000E+00 -0.61000553209E+03  0.61000553209E+03  0.00000000000E+00 0. -1.
         23    2    1    2    0    0 -0.10292311210E+01 -0.42560327265E+02  0.11720077552E+03  0.15544598096E+03  0.92816972801E+02 0.  0.
         23    2    1    2    0    0 -0.13889371016E+01  0.77257233879E+02 -0.30917883276E+03  0.33134519239E+03  0.90705438424E+02 0.  0.
        -11    1    3    3    0    0  0.36599005462E+02 -0.46196296022E+02  0.45746731631E+02  0.74607964868E+02  0.00000000000E+00 0.  1.
         11    1    3    3    0    0 -0.37628236583E+02  0.36359687569E+01  0.71454043893E+02  0.80838016092E+02  0.00000000000E+00 0. -1.
        -13    1    4    4    0    0 -0.16505837891E+00 -0.20719093114E+02 -0.65704186709E+02  0.68893745832E+02  0.00000000000E+00 0.  1.
         13    1    4    4    0    0 -0.12238787227E+01  0.97976326993E+02 -0.24347464605E+03  0.26245144656E+03  0.00000000000E+00 0. -1.
         21    1    1    2  502  501  0.24181682225E+01 -0.34696906614E+02 -0.26950337304E+03  0.27173846056E+03  0.00000000000E+00 0. -1.
<scales pt_clust_5="13000.00000" pt_clust_6="13000.00000" pt_clust_7="13000.00000" pt_clust_8="13000.00000" pt_clust_9="34.78107"></scales>
<clustering>
<clus scale="   34.781">  2  9  1 -1</clus>
<clus scale="   90.705">  7  8 -1 -1</clus>
<clus scale="   92.817">  5  6 -1 -1</clus>
<clus scale="  101.044">  2  7  1 -1</clus>
<clus scale="   34.781">  2  5  1 -1</clus>
</clustering>
</event>
<event>
 9    1  0.2423659E-006  0.1095307E+03  0.7546771E-02  0.1263365E+00
          2   -1    0    0  502    0  0.00000000000E+00  0.00000000000E+00  0.36048239178E+03  0.36048239178E+03  0.00000000000E+00 0. -1.
         -2   -1    0    0    0  501 -0.00000000000E+00 -0.00000000000E+00 -0.16206965074E+03  0.16206965074E+03  0.00000000000E+00 0.  1.
         23    2    1    2    0    0  0.24631010978E+02 -0.69025407546E+01  0.65325584601E+02  0.11513969079E+03  0.91298327594E+02 0.  0.
         23    2    1    2    0    0 -0.79056631165E+02 -0.12256765646E+02  0.25038521815E+03  0.27669103580E+03  0.86400188603E+02 0.  0.
        -11    1    4    4    0    0 -0.25872911559E+01  0.29983746151E+02  0.55909233410E+02  0.63494578424E+02  0.00000000000E+00 0.  1.
         11    1    4    4    0    0 -0.76469340009E+02 -0.42240511798E+02  0.19447598474E+03  0.21319645738E+03  0.00000000000E+00 0. -1.
        -13    1    3    3    0    0  0.27850952246E+02 -0.36725825316E+02  0.70962930638E+02  0.84617960924E+02  0.00000000000E+00 0. -1.
         13    1    3    3    0    0 -0.32199412681E+01  0.29823284561E+02 -0.56373460373E+01  0.30521729868E+02  0.00000000000E+00 0.  1.
         21    1    1    2  502  501  0.54425620187E+02  0.19159306401E+02 -0.11729806171E+03  0.13072131592E+03  0.00000000000E+00 0.  1.
<scales pt_clust_5="13000.00000" pt_clust_6="13000.00000" pt_clust_7="13000.00000" pt_clust_8="13000.00000" pt_clust_9="57.69946"></scales>
<clustering>
<clus scale="   57.699">  2  9  1 -1</clus>
<clus scale="   86.400">  5  6 -1 -1</clus>
<clus scale="   91.298">  7  8 -1 -1</clus>
<clus scale="  105.483">  1  5  2 -1</clus>
<clus scale="  105.483">  1  5  2 -1</clus>
</clustering>
</event>
<event>
 9    1  0.2423659E-006  0.9970937E+02  0.7546771E-02  0.1281348E+00
          2   -1    0    0  502    0  0.00000000000E+00  0.00000000000E+00  0.14345048690E+03  0.14345048690E+03  0.00000000000E+00 0. -1.
         -2   -1    0    0    0  501 -0.00000000000E+00 -0.00000000000E+00 -0.11471590427E+03  0.11471590427E+03  0.00000000000E+00 0.  1.
         23    2    1    2    0    0 -0.19676770710E+02 -0.38253344291E+02 -0.47031226653E+01  0.10038070033E+03  0.90574124238E+02 0.  0.
         23    2    1    2    0    0  0.45276055366E+02  0.11293538196E+02  0.54730814143E+02  0.11494235991E+03  0.89659460691E+02 0.  0.
        -11    1    4    4    0    0  0.51269479516E+01  0.23244899763E+02  0.67154744859E+02  0.71248654144E+02  0.00000000000E+00 0.  1.
         11    1    4    4    0    0  0.40149107415E+02 -0.11951361566E+02 -0.12423930716E+02  0.43693705770E+02  0.00000000000E+00 0. -1.
        -13    1    3    3    0    0  0.20396518949E+02 -0.21775202105E+01  0.29938781467E+02  0.36291737562E+02  0.00000000000E+00 0. -1.
         13    1    3    3    0    0 -0.40073289659E+02 -0.36075824080E+02 -0.34641904133E+02  0.64088962771E+02  0.00000000000E+00 0.  1.
         21    1    1    2  502  501 -0.25599284657E+02  0.26959806094E+02 -0.21293108850E+02  0.42843330917E+02  0.00000000000E+00 0.  1.
<scales pt_clust_5="13000.00000" pt_clust_6="13000.00000" pt_clust_7="13000.00000" pt_clust_8="13000.00000" pt_clust_9="37.17734"></scales>
<clustering>
<clus scale="   37.177">  2  9  1 -1</clus>
<clus scale="   89.659">  5  6 -1 -1</clus>
<clus scale="   90.574">  7  8 -1 -1</clus>
<clus scale="   98.879">  1  5  2 -1</clus>
<clus scale="   98.879">  1  5  2 -1</clus>
</clustering>
</event>
<event>
 9    1  0.2423659E-006  0.1891386E+03  0.7546771E-02  0.1159342E+00
         -1   -1    0    0    0  501 -0.00000000000E+00  0.00000000000E+00  0.10449904521E+03  0.10449904521E+03  0.00000000000E+00 0.  1.
          1   -1    0    0  502    0  0.00000000000E+00 -0.00000000000E+00 -0.52195300914E+03  0.52195300914E+03  0.00000000000E+00 0. -1.
         23    2    1    2    0    0 -0.20565089201E+02 -0.18082346303E+03 -0.12750717755E+03  0.24000079558E+03  0.90676644604E+02 0.  0.
         23    2    1    2    0    0 -0.48312783711E+02  0.14652003579E+03 -0.19871429441E+03  0.26710196431E+03  0.89743203517E+02 0.  0.
        -11    1    3    3    0    0 -0.42524356380E+02 -0.13867961052E+03 -0.12650605119E+03  0.19246853313E+03  0.00000000000E+00 0. -1.
         11    1    3    3    0    0  0.21959267180E+02 -0.42143852510E+02 -0.10011263645E+01  0.47532262448E+02  0.00000000000E+00 0.  1.
        -13    1    4    4    0    0  0.26694748804E+02  0.37876870353E+02 -0.56049037336E+02  0.72723871650E+02  0.00000000000E+00 0.  1.
         13    1    4    4    0    0 -0.75007532515E+02  0.10864316544E+03 -0.14266525707E+03  0.19437809266E+03  0.00000000000E+00 0. -1.
         21    1    1    2  502  501  0.68877872911E+02  0.34303427238E+02 -0.91232491971E+02  0.11934929446E+03  0.00000000000E+00 0. -1.
<scales pt_clust_5="13000.00000" pt_clust_6="13000.00000" pt_clust_7="13000.00000" pt_clust_8="13000.00000" pt_clust_9="76.94730"></scales>
<clustering>
<clus scale="   76.947">  2  9  1 -1</clus>
<clus scale="   89.743">  7  8 -1 -1</clus>
<clus scale="   90.677">  5  6 -1 -1</clus>
<clus scale="  188.693">  2  7  1 -1</clus>
<clus scale="   76.947">  2  5  1 -1</clus>
</clustering>
</event>
<event>
 9    1  0.2423659E-006  0.2358696E+03  0.7546771E-02  0.1134294E+00
         -1   -1    0    0    0  501 -0.00000000000E+00  0.00000000000E+00  0.59705462433E+02  0.59705462433E+02  0.00000000000E+00 0.  1.
          1   -1    0    0  502    0  0.00000000000E+00 -0.00000000000E+00 -0.18354285529E+04  0.18354285529E+04  0.00000000000E+00 0. -1.
         23    2    1    2    0    0 -0.57340853861E+02  0.14232332198E+03 -0.38577845546E+03  0.42433570015E+03  0.87703296552E+02 0.  0.
         23    2    1    2    0    0  0.21691168105E+03  0.39377185130E+02 -0.72891675863E+03  0.76692632645E+03  0.90857630980E+02 0.  0.
        -11    1    3    3    0    0 -0.62025272428E+02  0.49086116181E+02 -0.13143226963E+03  0.15339824875E+03  0.00000000000E+00 0. -1.
         11    1    3    3    0    0  0.46844185678E+01  0.93237205798E+02 -0.25434618583E+03  0.27093745140E+03  0.00000000000E+00 0.  1.
        -11    1    4    4    0    0  0.11911352639E+03  0.64105607673E+02 -0.46910916979E+03  0.48822225911E+03  0.00000000000E+00 0.  1.
         11    1    4    4    0    0  0.97798154662E+02 -0.24728422543E+02 -0.25980758884E+03  0.27870406735E+03  0.00000000000E+00 0. -1.
         21    1    1    2  502  501 -0.15957082719E+03 -0.18170050711E+03 -0.66102787639E+03  0.70387198875E+03  0.00000000000E+00 0.  1.
<scales pt_clust_5="13000.00000" pt_clust_6="13000.00000" pt_clust_7="13000.00000" pt_clust_8="13000.00000" pt_clust_9="217.66802"></scales>
<clustering>
<clus scale="   87.703">  5  6 -1 -1</clus>
<clus scale="   90.858">  7  8 -1 -1</clus>
<clus scale="  176.736">  1  5  2 -1</clus>
<clus scale="  217.668">  1  9  2 -1</clus>
<clus scale="  235.870">  2  5  1 -1</clus>
</clustering>
</event>
<event>
 9    1  0.2423659E-006  0.1362781E+03  0.7546771E-02  0.1224778E+00
         -2   -1    0    0    0  501 -0.00000000000E+00  0.00000000000E+00  0.63549647747E+02  0.63549647747E+02  0.00000000000E+00 0.  1.
          2   -1    0    0  502    0  0.00000000000E+00 -0.00000000000E+00 -0.66138775524E+03  0.66138775524E+03  0.00000000000E+00 0. -1.
         23    2    1    2    0    0  0.33847474827E+02  0.70260392889E+02 -0.92900022352E+02  0.15121045814E+03  0.90288505011E+02 0.  0.
         23    2    1    2    0    0  0.14178565547E+02  0.67002995886E+02 -0.29466655165E+03  0.31806729560E+03  0.98224206259E+02 0.  0.
        -11    1    3    3    0    0 -0.13706051210E+02  0.67040803561E+02 -0.37143530876E+02  0.77858635153E+02  0.00000000000E+00 0. -1.
         11    1    3    3    0    0  0.47553526037E+02  0.32195893273E+01 -0.55756491476E+02  0.73351822988E+02  0.00000000000E+00 0.  1.
        -13    1    4    4    0    0 -0.34652272910E+02  0.26006370740E+02 -0.19497388607E+03  0.19972963623E+03  0.00000000000E+00 0.  1.
         13    1    4    4    0    0  0.48830838457E+02  0.40996625146E+02 -0.99692665572E+02  0.11833765938E+03  0.00000000000E+00 0. -1.
         21    1    1    2  502  501 -0.48026040374E+02 -0.13726338878E+03 -0.21027153350E+03  0.25565964924E+03  0.00000000000E+00 0.  1.
<scales pt_clust_5="13000.00000" pt_clust_6="13000.00000" pt_clust_7="13000.00000" pt_clust_8="13000.00000" pt_clust_9="94.46545"></scales>
<clustering>
<clus scale="   90.289">  5  6 -1 -1</clus>
<clus scale="   98.224">  7  8 -1 -1</clus>
<clus scale="  119.307">  1  5  2 -1</clus>
<clus scale="   94.465">  1  9  2 -1</clus>
<clus scale="  136.278">  2  5  1 -1</clus>
</clustering>
</event>
<event>
 9    1  0.2423659E-006  0.1657709E+03  0.7546771E-02  0.1203019E+00
          1   -1    0    0  502    0  0.00000000000E+00  0.00000000000E+00  0.11929796745E+03  0.11929796745E+03  0.00000000000E+00 0. -1.
         -1   -1    0    0    0  501 -0.00000000000E+00 -0.00000000000E+00 -0.49905406829E+03  0.49905406829E+03  0.00000000000E+00 0.  1.
         23    2    1    2    0    0  0.29632080390E+02  0.41103063203E+02 -0.23544158934E+03  0.25786353755E+03  0.92159318649E+02 0.  0.
         23    2    1    2    0    0  0.10120537171E+03  0.64136583172E+02 -0.24422052798E+02  0.15416830117E+03  0.93890360833E+02 0.  0.
        -13    1    4    4    0    0  0.50538274341E+02  0.91878837798E+01 -0.53316153792E+02  0.74034766406E+02  0.00000000000E+00 0. -1.
         13    1    4    4    0    0  0.50667097374E+02  0.54948699393E+02  0.28894100994E+02  0.80133534762E+02  0.00000000000E+00 0.  1.
        -13    1    3    3    0    0 -0.20994607237E+02  0.38735369380E+02 -0.55175835131E+02  0.70608605399E+02  0.00000000000E+00 0. -1.
         13    1    3    3    0    0  0.50626687627E+02  0.23676938231E+01 -0.18026575421E+03  0.18725493215E+03  0.00000000000E+00 0.  1.
         21    1    1    2  502  501 -0.13083745210E+03 -0.10523964638E+03 -0.11989245870E+03  0.20632019701E+03  0.00000000000E+00 0. -1.
<scales pt_clust_5="13000.00000" pt_clust_6="13000.00000" pt_clust_7="13000.00000" pt_clust_8="13000.00000" pt_clust_9="136.61847"></scales>
<clustering>
<clus scale="   92.159">  7  8 -1 -1</clus>
<clus scale="   93.890">  5  6 -1 -1</clus>
<clus scale="  105.171">  2  7  1 -1</clus>
<clus scale="  136.618">  2  9  1 -1</clus>
<clus scale="  165.771">  1  5  2 -1</clus>
</clustering>
</event>
<event>
 9    1  0.2423659E-006  0.1010411E+03  0.7546771E-02  0.1278635E+00
         -3   -1    0    0    0  501 -0.00000000000E+00  0.00000000000E+00  0.32240590278E+03  0.32240590278E+03  0.00000000000E+00 0.  1.
          3   -1    0    0  502    0  0.00000000000E+00 -0.00000000000E+00 -0.44518454767E+02  0.44518454767E+02  0.00000000000E+00 0. -1.
         23    2    1    2    0    0  0.20855451154E+02  0.44102317683E+02  0.19258969929E+03  0.21807635177E+03  0.89925183682E+02 0.  0.
         23    2    1    2    0    0 -0.29664786781E+02 -0.22151980583E+02  0.66716384036E+02  0.11876996052E+03  0.91019326543E+02 0.  0.
        -11    1    3    3    0    0 -0.31667839356E+02  0.35930236207E+02  0.74387957487E+02  0.88472606734E+02  0.00000000000E+00 0. -1.
         11    1    3    3    0    0  0.52523290510E+02  0.81720814768E+01  0.11820174180E+03  0.12960374503E+03  0.00000000000E+00 0.  1.
        -11    1    4    4    0    0  0.29711692043E+02 -0.23393346757E+02  0.17642800118E+02  0.41728907397E+02  0.00000000000E+00 0.  1.
         11    1    4    4    0    0 -0.59376478825E+02  0.12413661738E+01  0.49073583918E+02  0.77041053122E+02  0.00000000000E+00 0. -1.
         21    1    1    2  502  501  0.88093356270E+01 -0.21950337100E+02  0.18581364687E+02  0.30078045260E+02  0.00000000000E+00 0.  1.
<scales pt_clust_5="13000.00000" pt_clust_6="13000.00000" pt_clust_7="13000.00000" pt_clust_8="13000.00000" pt_clust_9="23.65210"></scales>
<clustering>
<clus scale="   23.652">  2  9  1 -1</clus>
<clus scale="   89.925">  5  6 -1 -1</clus>
<clus scale="   91.019">  7  8 -1 -1</clus>
<clus scale="  100.057">  1  5  2 -1</clus>
<clus scale="   23.652">  2  5  1 -1</clus>
</clustering>
</event>
<event>
 9    1  0.4625902E-006  0.1022942E+03  0.7546771E-02  0.1275869E+00
          2   -1    0    0  502    0  0.00000000000E+00  0.00000000000E+00  0.10433011215E+04  0.10433011215E+04  0.00000000000E+00 0. -1.
         -2   -1    0    0    0  501 -0.00000000000E+00 -0.00000000000E+00 -0.83450498643E+02  0.83450498643E+02  0.00000000000E+00 0.  1.
         23    2    1    2    0    0 -0.31631561835E+02  0.23221136483E+02 -0.30033561566E+02  0.10456698142E+03  0.92154554409E+02 0.  0.
         23    2    1    2    0    0  0.50994870134E+02 -0.11119640526E+03  0.45988297986E+03  0.48458268331E+03  0.91448917339E+02 0.  0.
        -11    1    3    3    0    0 -0.13035727452E+02  0.49094378382E+02  0.11636181527E+02  0.52111312587E+02  0.00000000000E+00 0. -1.
         11    1    3    3    0    0 -0.18595834382E+02 -0.25873241900E+02 -0.41669743094E+02  0.52455668829E+02  0.00000000000E+00 0.  1.
        -13    1    4    4    0    0  0.25537730062E+02 -0.11657696701E+03  0.30477512701E+03  0.32730756627E+03  0.00000000000E+00 0. -1.
         13    1    4    4    0    0  0.25457140072E+02  0.53805617561E+01  0.15510785285E+03  0.15727511704E+03  0.00000000000E+00 0.  1.
         21    1    1    2  502  501 -0.19363308299E+02  0.87975268776E+02  0.53000120460E+03  0.53760195545E+03  0.00000000000E+00 0.  1.
<scales pt_clust_5="13000.00000" pt_clust_6="13000.00000" pt_clust_7="13000.00000" pt_clust_8="13000.00000" pt_clust_9="90.08099"></scales>
<clustering>
<clus scale="   90.081">  1  9  2 -1</clus>
<clus scale="   91.449">  7  8 -1 -1</clus>
<clus scale="   92.155">  5  6 -1 -1</clus>
<clus scale="  101.659">  1  7  2 -1</clus>
<clus scale="   90.081">  1  5  2 -1</clus>
</clustering>
</event>
<event>
 9    1  0.2423659E-006  0.1183336E+03  0.7546771E-02  0.1245968E+00
          1   -1    0    0  502    0  0.00000000000E+00  0.00000000000E+00  0.43318081715E+02  0.43318081715E+02  0.00000000000E+00 0. -1.
         -1   -1    0    0    0  501 -0.00000000000E+00 -0.00000000000E+00 -0.62663566140E+03  0.62663566140E+03  0.00000000000E+00 0.  1.
         23    2    1    2    0    0  0.12415393582E+02  0.84510678723E+02 -0.45033022589E+03  0.46743365748E+03  0.91655414305E+02 0.  0.
         23    2    1    2    0    0 -0.59807033158E+01 -0.38422698185E+02 -0.61612082387E+02  0.11731482432E+03  0.91949153128E+02 0.  0.
        -11    1    4    4    0    0  0.41076565862E+02 -0.30975242448E+02 -0.39113320154E+02  0.64626633219E+02  0.00000000000E+00 0.  1.
         11    1    4    4    0    0 -0.47057269177E+02 -0.74474557369E+01 -0.22498762232E+02  0.52688191100E+02  0.00000000000E+00 0. -1.
        -13    1    3    3    0    0  0.39421664080E+02  0.54612135792E+02 -0.38372030455E+03  0.38958673629E+03  0.00000000000E+00 0.  1.
         13    1    3    3    0    0 -0.27006270499E+02  0.29898542931E+02 -0.66609921348E+02  0.77846921183E+02  0.00000000000E+00 0. -1.
         21    1    1    2  502  501 -0.64346902660E+01 -0.46087980538E+02 -0.71375271407E+02  0.85205261324E+02  0.00000000000E+00 0.  1.
<scales pt_clust_5="13000.00000" pt_clust_6="13000.00000" pt_clust_7="13000.00000" pt_clust_8="13000.00000" pt_clust_9="46.53501"></scales>
<clustering>
<clus scale="   46.535">  1  9  2 -1</clus>
<clus scale="   91.655">  7  8 -1 -1</clus>
<clus scale="   91.949">  5  6 -1 -1</clus>
<clus scale="  118.106">  2  7  1 -1</clus>
<clus scale="   46.535">  1  5  2 -1</clus>
</clustering>
</event>
<event>
 9    1  0.2423659E-006  0.9978500E+02  0.7546771E-02  0.1280984E+00
         -1   -1    0    0    0  501 -0.00000000000E+00  0.00000000000E+00  0.25991891109E+03  0.25991891109E+03  0.00000000000E+00 0.  1.
          1   -1    0    0  502    0  0.00000000000E+00 -0.00000000000E+00 -0.14963278817E+03  0.14963278817E+03  0.00000000000E+00 0. -1.
         23    2    1    2    0    0  0.12101810509E+02  0.24701497752E+02  0.46554601030E+02  0.10489969626E+03  0.89888806808E+02 0.  0.
         23    2    1    2    0    0  0.40061163495E+02 -0.34233697464E+02 -0.92510867351E+02  0.13965647917E+03  0.90381572980E+02 0.  0.
        -11    1    4    4    0    0 -0.16533479230E+02  0.18681852232E+02 -0.35822768506E+02  0.43653617052E+02  0.00000000000E+00 0. -1.
         11    1    4    4    0    0  0.56594642725E+02 -0.52915549696E+02 -0.56688098845E+02  0.96002862121E+02  0.00000000000E+00 0.  1.
        -13    1    3    3    0    0 -0.38330144027E+02  0.11922466109E+02  0.30624468224E+02  0.50489634513E+02  0.00000000000E+00 0.  1.
         13    1    3    3    0    0  0.50431954536E+02  0.12779031643E+02  0.15930132806E+02  0.54410061747E+02  0.00000000000E+00 0. -1.
         21    1    1    2  502  501 -0.52162974004E+02  0.95321997123E+01  0.15624238924E+03  0.16499552383E+03  0.00000000000E+00 0.  1.
<scales pt_clust_5="13000.00000" pt_clust_6="13000.00000" pt_clust_7="13000.00000" pt_clust_8="13000.00000" pt_clust_9="53.02677"></scales>
<clustering>
<clus scale="   53.027">  1  9  2 -1</clus>
<clus scale="   89.889">  7  8 -1 -1</clus>
<clus scale="   90.382">  5  6 -1 -1</clus>
<clus scale="   99.339">  1  7  2 -1</clus>
<clus scale="   99.785">  2  5  1 -1</clus>
</clustering>
</event>
<event>
 9    1  0.2423659E-006  0.9704728E+02  0.7546771E-02  0.1289880E+00
          1   -1    0    0  502    0  0.00000000000E+00  0.00000000000E+00  0.29937252014E+03  0.29937252014E+03  0.00000000000E+00 0. -1.
         -1   -1    0    0    0  501 -0.00000000000E+00 -0.00000000000E+00 -0.10784505704E+03  0.10784505704E+03  0.00000000000E+00 0.  1.
         23    2    1    2    0    0  0.34941968331E+02  0.26542758897E+02  0.26437524882E+02  0.10629217706E+03  0.93132298276E+02 0.  0.
         23    2    1    2    0    0  0.39273867400E+02 -0.11211215416E+02  0.19657402585E+03  0.21886265417E+03  0.87128558671E+02 0.  0.
        -11    1    4    4    0    0  0.41188188116E+02  0.31693294631E+02  0.89471009798E+02  0.10346977027E+03  0.00000000000E+00 0. -1.
         11    1    4    4    0    0 -0.19143207153E+01 -0.42904510046E+02  0.10710301606E+03  0.11539288390E+03  0.00000000000E+00 0.  1.
        -13    1    3    3    0    0  0.29070463760E+02 -0.31777386957E+02  0.19468664562E+02  0.47264395531E+02  0.00000000000E+00 0.  1.
         13    1    3    3    0    0  0.58715045711E+01  0.58320145854E+02  0.69688603194E+01  0.59027781532E+02  0.00000000000E+00 0. -1.
         21    1    1    2  502  501 -0.74215835732E+02 -0.15331543482E+02 -0.31484087634E+02  0.82062745951E+02  0.00000000000E+00 0.  1.
<scales pt_clust_5="13000.00000" pt_clust_6="13000.00000" pt_clust_7="13000.00000" pt_clust_8="13000.00000" pt_clust_9="75.78289"></scales>
<clustering>
<clus scale="   75.783">  2  9  1 -1</clus>
<clus scale="   87.129">  5  6 -1 -1</clus>
<clus scale="   91.301">  1  5  2 -1</clus>
<clus scale="   93.132">  7  8 -1 -1</clus>
<clus scale="   91.301">  1  5  2 -1</clus>
</clustering>
</event>
<event>
 9    1  0.2423659E-006  0.1018581E+03  0.7546771E-02  0.1277086E+00
          1   -1    0    0  502    0  0.00000000000E+00  0.00000000000E+00  0.91696041402E+02  0.91696041402E+02  0.00000000000E+00 0. -1.
         -1   -1    0    0    0  501 -0.00000000000E+00 -0.00000000000E+00 -0.33385511454E+03  0.33385511454E+03  0.00000000000E+00 0.  1.
         23    2    1    2    0    0  0.35913850129E+02  0.10700234851E+02 -0.19039256096E+03  0.21444090043E+03  0.91275806511E+02 0.  0.
         23    2    1    2    0    0 -0.42616556768E+02 -0.54650104759E+02 -0.95814925845E+02  0.14852607150E+03  0.89870401346E+02 0.  0.
        -11    1    4    4    0    0 -0.70215693713E+02 -0.45417236579E+02 -0.63236916483E+02  0.10484215101E+03  0.00000000000E+00 0. -1.
         11    1    4    4    0    0  0.27599136945E+02 -0.92328681803E+01 -0.32578009362E+02  0.43683920485E+02  0.00000000000E+00 0.  1.
        -11    1    3    3    0    0 -0.28772919464E+02  0.87408196531E+01 -0.35204618095E+02  0.46299545979E+02  0.00000000000E+00 0. -1.
         11    1    3    3    0    0  0.64686769592E+02  0.19594151984E+01 -0.15518794286E+03  0.16814135446E+03  0.00000000000E+00 0.  1.
         21    1    1    2  502  501  0.67027066394E+01  0.43949869908E+02  0.44048413669E+02  0.62584184008E+02  0.00000000000E+00 0. -1.
<scales pt_clust_5="13000.00000" pt_clust_6="13000.00000" pt_clust_7="13000.00000" pt_clust_8="13000.00000" pt_clust_9="44.45804"></scales>
<clustering>
<clus scale="   44.458">  1  9  2 -1</clus>
<clus scale="   89.870">  5  6 -1 -1</clus>
<clus scale="   91.276">  7  8 -1 -1</clus>
<clus scale="  100.601">  1  5  2 -1</clus>
<clus scale="   44.458">  1  5  2 -1</clus>
</clustering>
</event>
<event>
 9    1  0.2423659E-006  0.1511489E+03  0.7546771E-02  0.1214686E+00
         -1   -1    0    0    0  501 -0.00000000000E+00  0.00000000000E+00  0.28997344017E+03  0.28997344017E+03  0.00000000000E+00 0.  1.
          1   -1    0    0  502    0  0.00000000000E+00 -0.00000000000E+00 -0.24515337025E+03  0.24515337025E+03  0.00000000000E+00 0. -1.
         23    2    1    2    0    0  0.60022207702E+02  0.17060213183E+02  0.19131634656E+03  0.21974053104E+03  0.88262337552E+02 0.  0.
         23    2    1    2    0    0 -0.10170677013E+03  0.90544167672E+02 -0.94304450852E+02  0.18873600420E+03  0.90473401841E+02 0.  0.
        -11    1    4    4    0    0 -0.58706880046E+02  0.40426062657E+02 -0.99610398508E+02  0.12248671682E+03  0.00000000000E+00 0.  1.
         11    1    4    4    0    0 -0.42999890083E+02  0.50118105015E+02  0.53059476561E+01  0.66249287377E+02  0.00000000000E+00 0. -1.
        -13    1    3    3    0    0  0.30769739418E+02  0.25021927755E+02  0.18443754274E+03  0.18865333526E+03  0.00000000000E+00 0.  1.
         13    1    3    3    0    0  0.29252468284E+02 -0.79617145722E+01  0.68788038205E+01  0.31087195783E+02  0.00000000000E+00 0. -1.
         21    1    1    2  502  501  0.41684562427E+02 -0.10760438085E+03 -0.52191825796E+02  0.12665027518E+03  0.00000000000E+00 0.  1.
<scales pt_clust_5="13000.00000" pt_clust_6="13000.00000" pt_clust_7="13000.00000" pt_clust_8="13000.00000" pt_clust_9="121.08082"></scales>
<clustering>
<clus scale="   88.262">  7  8 -1 -1</clus>
<clus scale="   90.473">  5  6 -1 -1</clus>
<clus scale="  108.092">  1  7  2 -1</clus>
<clus scale="  121.081">  2  9  1 -1</clus>
<clus scale="  121.081">  2  5  1 -1</clus>
</clustering>
</event>
<event>
 9    1  0.2423659E-006  0.1039495E+03  0.7546771E-02  0.1272360E+00
          1   -1    0    0  502    0  0.00000000000E+00  0.00000000000E+00  0.37148054377E+03  0.37148054377E+03  0.00000000000E+00 0. -1.
         -1   -1    0    0    0  501 -0.00000000000E+00 -0.00000000000E+00 -0.44085256434E+02  0.44085256434E+02  0.00000000000E+00 0.  1.
         23    2    1    2    0    0  0.24027793800E+02  0.42205524000E+02  0.98256229229E+02  0.14274564831E+03  0.91451585000E+02 0.  0.
         23    2    1    2    0    0  0.78315703459E+01 -0.54699002933E+02  0.13313967644E+03  0.17090358121E+03  0.91807114160E+02 0.  0.
        -13    1    3    3    0    0  0.37784013207E+02  0.89735153617E+01  0.77693805399E+00  0.38842750478E+02  0.00000000000E+00 0.  1.
         13    1    3    3    0    0 -0.13756219407E+02  0.33232008638E+02  0.97479291175E+02  0.10390289783E+03  0.00000000000E+00 0. -1.
        -13    1    4    4    0    0 -0.31144744221E+02 -0.35915935531E+02  0.23488467418E+02  0.53025065953E+02  0.00000000000E+00 0. -1.
         13    1    4    4    0    0  0.38976314567E+02 -0.18783067402E+02  0.10965120902E+03  0.11787851525E+03  0.00000000000E+00 0.  1.
         21    1    1    2  502  501 -0.31859364145E+02  0.12493478934E+02  0.95999381665E+02  0.10191657068E+03  0.00000000000E+00 0. -1.
<scales pt_clust_5="13000.00000" pt_clust_6="13000.00000" pt_clust_7="13000.00000" pt_clust_8="13000.00000" pt_clust_9="34.22143"></scales>
<clustering>
<clus scale="   34.221">  1  9  2 -1</clus>
<clus scale="   91.452">  5  6 -1 -1</clus>
<clus scale="   91.807">  7  8 -1 -1</clus>
<clus scale="  103.636">  2  5  1 -1</clus>
<clus scale="   34.221">  1  5  2 -1</clus>
</clustering>
</event>
<event>
 9    1  0.2423659E-006  0.1017477E+03  0.7546771E-02  0.1276751E+00
         -2   -1    0    0    0  501 -0.00000000000E+00  0.00000000000E+00  0.61611335083E+02  0.61611335083E+02  0.00000000000E+00 0.  1.
          2   -1    0    0  502    0  0.00000000000E+00 -0.00000000000E+00 -0.25769208032E+03  0.25769208032E+03  0.00000000000E+00 0. -1.
         23    2    1    2    0    0 -0.19384360047E+02  0.54978638108E+01 -0.32526263502E+02  0.99703747261E+02  0.92070079176E+02 0.  0.
         23    2    1    2    0    0  0.54079735946E+02 -0.10375772074E+02 -0.14338180147E+03  0.17917071655E+03  0.92257954616E+02 0.  0.
        -11    1    4    4    0    0  0.37290828298E+02  0.39671119534E+02 -0.67225746037E+02  0.86508407282E+02  0.00000000000E+00 0.  1.
         11    1    4    4    0    0  0.16788907648E+02 -0.50046891608E+02 -0.76156055431E+02  0.92662309266E+02  0.00000000000E+00 0. -1.
        -13    1    3    3    0    0 -0.52216506062E+02  0.22944466486E+02 -0.20998788590E+02  0.60777966155E+02  0.00000000000E+00 0.  1.
         13    1    3    3    0    0  0.32832146015E+02 -0.17446602675E+02 -0.11527474913E+02  0.38925781106E+02  0.00000000000E+00 0. -1.
         21    1    1    2  502  501 -0.34695375899E+02  0.48779082629E+01 -0.20172680266E+02  0.40428951593E+02  0.00000000000E+00 0.  1.
<scales pt_clust_5="13000.00000" pt_clust_6="13000.00000" pt_clust_7="13000.00000" pt_clust_8="13000.00000" pt_clust_9="35.03660"></scales>
<clustering>
<clus scale="   35.037">  1  9  2 -1</clus>
<clus scale="   92.070">  7  8 -1 -1</clus>
<clus scale="   92.258">  5  6 -1 -1</clus>
<clus scale="  101.577">  1  7  2 -1</clus>
<clus scale="  101.748">  2  5  1 -1</clus>
</clustering>
</event>
<event>
 9    1  0.2423659E-006  0.1069954E+03  0.7546771E-02  0.1267355E+00
          1   -1    0    0  502    0  0.00000000000E+00  0.00000000000E+00  0.41984234559E+03  0.41984234559E+03  0.00000000000E+00 0. -1.
         -1   -1    0    0    0  501 -0.00000000000E+00 -0.00000000000E+00 -0.23704930005E+03  0.23704930005E+03  0.00000000000E+00 0.  1.
         23    2    1    2    0    0  0.45827982783E+02 -0.18329726817E+02 -0.20174806696E+03  0.22807749389E+03  0.94238409396E+02 0.  0.
         23    2    1    2    0    0 -0.65509309945E+02  0.63866107524E+02  0.33296144508E+03  0.35725034318E+03  0.91619508915E+02 0.  0.
        -11    1    4    4    0    0 -0.87342021973E+02  0.45873861983E+02  0.28468645502E+03  0.30129622913E+03  0.00000000000E+00 0. -1.
         11    1    4    4    0    0  0.21832712028E+02  0.17992245541E+02  0.48274990058E+02  0.55954114050E+02  0.00000000000E+00 0.  1.
        -13    1    3    3    0    0  0.71423123529E+02 -0.11585146106E+02 -0.17937826415E+03  0.19342192181E+03  0.00000000000E+00 0.  1.
         13    1    3    3    0    0 -0.25595140746E+02 -0.67445807105E+01 -0.22369802808E+02  0.34655572083E+02  0.00000000000E+00 0. -1.
         21    1    1    2  502  501  0.19681327162E+02 -0.45536380707E+02  0.51579667419E+02  0.71563808575E+02  0.00000000000E+00 0.  1.
<scales pt_clust_5="13000.00000" pt_clust_6="13000.00000" pt_clust_7="13000.00000" pt_clust_8="13000.00000" pt_clust_9="49.60763"></scales>
<clustering>
<clus scale="   49.608">  1  9  2 -1</clus>
<clus scale="   91.620">  5  6 -1 -1</clus>
<clus scale="   94.238">  7  8 -1 -1</clus>
<clus scale="  104.696">  1  5  2 -1</clus>
<clus scale="   49.608">  1  5  2 -1</clus>
</clustering>
</event>
<event>
 9    1  0.2423659E-006  0.1395500E+03  0.7546771E-02  0.1215335E+00
          3   -1    0    0  502    0  0.00000000000E+00  0.00000000000E+00  0.16399148890E+03  0.16399148890E+03  0.00000000000E+00 0. -1.
         -3   -1    0    0    0  501 -0.00000000000E+00 -0.00000000000E+00 -0.27425222658E+03  0.27425222658E+03  0.00000000000E+00 0.  1.
         23    2    1    2    0    0  0.95688344262E+02  0.14980971764E+02 -0.72079959875E+02  0.14848813144E+03  0.86443714758E+02 0.  0.
         23    2    1    2    0    0 -0.91988152500E+02  0.77109543916E+02  0.52469868452E+02  0.16048109249E+03  0.92700550093E+02 0.  0.
        -11    1    3    3    0    0  0.98978389902E+01 -0.30803351685E+02 -0.14295039981E+02  0.35371766421E+02  0.00000000000E+00 0. -1.
         11    1    3    3    0    0  0.85790505272E+02  0.45784323449E+02 -0.57784919894E+02  0.11311636502E+03  0.00000000000E+00 0.  1.
        -13    1    4    4    0    0 -0.86019443171E+02  0.97728833793E+02  0.44747416709E+02  0.13766844540E+03  0.00000000000E+00 0.  1.
         13    1    4    4    0    0 -0.59687093291E+01 -0.20619289876E+02  0.77224517427E+01  0.22812647084E+02  0.00000000000E+00 0. -1.
         21    1    1    2  502  501 -0.37001917624E+01 -0.92090515681E+02 -0.90650646262E+02  0.12927449155E+03  0.00000000000E+00 0. -1.
<scales pt_clust_5="13000.00000" pt_clust_6="13000.00000" pt_clust_7="13000.00000" pt_clust_8="13000.00000" pt_clust_9="92.16482"></scales>
<clustering>
<clus scale="   86.444">  5  6 -1 -1</clus>
<clus scale="   92.165">  2  9  1 -1</clus>
<clus scale="   92.701">  7  8 -1 -1</clus>
<clus scale="  135.474">  2  5  1 -1</clus>
<clus scale="  139.550">  1  5  2 -1</clus>
</clustering>
</event>
<event>
 9    1  0.2423659E-006  0.2899735E+03  0.7546771E-02  0.1123732E+00
         -2   -1    0    0    0  501 -0.00000000000E+00  0.00000000000E+00  0.46366926227E+03  0.46366926227E+03  0.00000000000E+00 0.  1.
          2   -1    0    0  502    0  0.00000000000E+00 -0.00000000000E+00 -0.38183125665E+03  0.38183125665E+03  0.00000000000E+00 0. -1.
         23    2    1    2    0    0  0.45179204584E+02 -0.70823946890E+02  0.16441952833E+03  0.20554286071E+03  0.90315526405E+02 0.  0.
         23    2    1    2    0    0  0.16387480240E+03 -0.13611935335E+03  0.13786883115E+03  0.27236077864E+03  0.98940133025E+02 0.  0.
        -11    1    4    4    0    0  0.71040678468E+02 -0.11214369585E+02  0.13572185825E+02  0.73189782829E+02  0.00000000000E+00 0. -1.
         11    1    4    4    0    0  0.92834123934E+02 -0.12490498376E+03  0.12429664532E+03  0.19917099582E+03  0.00000000000E+00 0.  1.
        -11    1    3    3    0    0  0.41116246646E+00 -0.75398601020E+02  0.80353690369E+02  0.11018998887E+03  0.00000000000E+00 0.  1.
         11    1    3    3    0    0  0.44768042117E+02  0.45746541303E+01  0.84065837964E+02  0.95352871839E+02  0.00000000000E+00 0. -1.
         21    1    1    2  502  501 -0.20905400699E+03  0.20694330024E+03 -0.22045035386E+03  0.36759687957E+03  0.00000000000E+00 0. -1.
<scales pt_clust_5="13000.00000" pt_clust_6="13000.00000" pt_clust_7="13000.00000" pt_clust_8="13000.00000" pt_clust_9="272.57195"></scales>
<clustering>
<clus scale="   90.316">  7  8 -1 -1</clus>
<clus scale="   98.940">  5  6 -1 -1</clus>
<clus scale="  123.345">  1  7  2 -1</clus>
<clus scale="  272.572">  2  9  1 -1</clus>
<clus scale="  272.572">  2  5  1 -1</clus>
</clustering>
</event>
<event>
 9    1  0.2423659E-006  0.1176565E+03  0.7546771E-02  0.1248339E+00
          1   -1    0    0  502    0  0.00000000000E+00  0.00000000000E+00  0.29690101443E+03  0.29690101443E+03  0.00000000000E+00 0. -1.
         -1   -1    0    0    0  501 -0.00000000000E+00 -0.00000000000E+00 -0.11218618829E+03  0.11218618829E+03  0.00000000000E+00 0.  1.
         23    2    1    2    0    0  0.21014879449E+02  0.10091896765E+03  0.11706381642E+03  0.18090685244E+03  0.91635631461E+02 0.  0.
         23    2    1    2    0    0  0.35492814461E+02 -0.41372603756E+02  0.91134990339E+02  0.14279659146E+03  0.95466475003E+02 0.  0.
        -11    1    3    3    0    0  0.46794140296E+02  0.72664287578E+02  0.40767482487E+02  0.95560336351E+02  0.00000000000E+00 0. -1.
         11    1    3    3    0    0 -0.25779260846E+02  0.28254680071E+02  0.76296333937E+02  0.85346516085E+02  0.00000000000E+00 0.  1.
        -11    1    4    4    0    0  0.30232921765E+02 -0.68270462108E+02  0.87693670341E+02  0.11517406554E+03  0.00000000000E+00 0.  1.
         11    1    4    4    0    0  0.52598926961E+01  0.26897858352E+02  0.34413199978E+01  0.27622525924E+02  0.00000000000E+00 0. -1.
         21    1    1    2  502  501 -0.56507693910E+02 -0.59546363894E+02 -0.23483980629E+02  0.85383758820E+02  0.00000000000E+00 0.  1.
<scales pt_clust_5="13000.00000" pt_clust_6="13000.00000" pt_clust_7="13000.00000" pt_clust_8="13000.00000" pt_clust_9="82.09074"></scales>
<clustering>
<clus scale="   82.091">  2  9  1 -1</clus>
<clus scale="   91.636">  5  6 -1 -1</clus>
<clus scale="   95.466">  7  8 -1 -1</clus>
<clus scale="  114.570">  2  5  1 -1</clus>
<clus scale="  117.657">  1  5  2 -1</clus>
</clustering>
</event>
<event>
 9    1  0.2423659E-006  0.1017270E+03  0.7546771E-02  0.1277436E+00
          2   -1    0    0  502    0  0.00000000000E+00  0.00000000000E+00  0.39934168314E+03  0.39934168314E+03  0.00000000000E+00 0. -1.
         -2   -1    0    0    0  501 -0.00000000000E+00 -0.00000000000E+00 -0.13911555169E+03  0.13911555169E+03  0.00000000000E+00 0.  1.
         23    2    1    2    0    0  0.55973299003E+02  0.35202972916E+02  0.18036617672E+03  0.21168124024E+03  0.88908550006E+02 0.  0.
         23    2    1    2    0    0 -0.17528974566E+02 -0.29099776761E+02  0.18824489424E+03  0.21161302225E+03  0.90497895138E+02 0.  0.
        -11    1    3    3    0    0 -0.11808634325E+02  0.36021820804E+02  0.36400021026E+02  0.52554514072E+02  0.00000000000E+00 0.  1.
         11    1    3    3    0    0  0.67781933328E+02 -0.81884788829E+00  0.14396615569E+03  0.15912672617E+03  0.00000000000E+00 0. -1.
        -13    1    4    4    0    0 -0.42990982871E+02 -0.42763322302E+02  0.16041991015E+03  0.17149773735E+03  0.00000000000E+00 0. -1.
         13    1    4    4    0    0  0.25462008306E+02  0.13663545542E+02  0.27824984085E+02  0.40115284906E+02  0.00000000000E+00 0.  1.
         21    1    1    2  502  501 -0.38444324438E+02 -0.61031961555E+01 -0.10838493951E+03  0.11516297233E+03  0.00000000000E+00 0.  1.
<scales pt_clust_5="13000.00000" pt_clust_6="13000.00000" pt_clust_7="13000.00000" pt_clust_8="13000.00000" pt_clust_9="38.92576"></scales>
<clustering>
<clus scale="   38.926">  2  9  1 -1</clus>
<clus scale="   88.909">  5  6 -1 -1</clus>
<clus scale="   90.498">  7  8 -1 -1</clus>
<clus scale="  100.316">  2  5  1 -1</clus>
<clus scale="  101.727">  1  5  2 -1</clus>
</clustering>
</event>
<event>
 9    1  0.2423659E-006  0.9952090E+02  0.7546771E-02  0.1282717E+00
          4   -1    0    0  502    0  0.00000000000E+00  0.00000000000E+00  0.57047944570E+02  0.57047944570E+02  0.00000000000E+00 0. -1.
         -4   -1    0    0    0  501 -0.00000000000E+00 -0.00000000000E+00 -0.51097206865E+03  0.51097206865E+03  0.00000000000E+00 0.  1.
         23    2    1    2    0    0  0.10692589176E+02 -0.61189885011E+02 -0.24693562518E+03  0.27046787042E+03  0.91198313886E+02 0.  0.
         23    2    1    2    0    0 -0.19059568708E+02  0.30619438875E+02 -0.76504254576E+01  0.95710060847E+02  0.88323663541E+02 0.  0.
        -11    1    4    4    0    0  0.24913159874E+02  0.30958111242E+02  0.19256201020E+02  0.44157348927E+02  0.00000000000E+00 0.  1.
         11    1    4    4    0    0 -0.43972728582E+02 -0.33867236663E+00 -0.26906626478E+02  0.51552711920E+02  0.00000000000E+00 0. -1.
        -13    1    3    3    0    0 -0.27911826281E+02 -0.65044562234E+02 -0.17423756036E+03  0.18806539438E+03  0.00000000000E+00 0.  1.
         13    1    3    3    0    0  0.38604415456E+02  0.38546772229E+01 -0.72698064821E+02  0.82402476042E+02  0.00000000000E+00 0. -1.
         21    1    1    2  502  501  0.83669795323E+01  0.30570446135E+02 -0.19933807344E+03  0.20184208195E+03  0.00000000000E+00 0. -1.
<scales pt_clust_5="13000.00000" pt_clust_6="13000.00000" pt_clust_7="13000.00000" pt_clust_8="13000.00000" pt_clust_9="31.69477"></scales>
<clustering>
<clus scale="   31.695">  2  9  1 -1</clus>
<clus scale="   88.324">  5  6 -1 -1</clus>
<clus scale="   91.198">  7  8 -1 -1</clus>
<clus scale="   96.893">  1  5  2 -1</clus>
<clus scale="   96.893">  1  5  2 -1</clus>
</clustering>
</event>
<event>
 9    1  0.2423659E-006  0.1288604E+03  0.7546771E-02  0.1244014E+00
          3   -1    0    0  502    0  0.00000000000E+00  0.00000000000E+00  0.70849455124E+03  0.70849455124E+03  0.00000000000E+00 0. -1.
         -3   -1    0    0    0  501 -0.00000000000E+00 -0.00000000000E+00 -0.49801486272E+02  0.49801486272E+02  0.00000000000E+00 0.  1.
         23    2    1    2    0    0 -0.54711023294E+02  0.62023623281E+02  0.11195625928E+03  0.16704296708E+03  0.92352168050E+02 0.  0.
         23    2    1    2    0    0  0.79238732267E+01  0.24501500581E+02  0.42098497301E+03  0.43159982777E+03  0.91580306477E+02 0.  0.
        -13    1    3    3    0    0 -0.34939856046E+02 -0.91958635218E+01  0.77469734763E+02  0.85480508016E+02  0.00000000000E+00 0.  1.
         13    1    3    3    0    0 -0.19771167248E+02  0.71219486803E+02  0.34486524513E+02  0.81562459059E+02  0.00000000000E+00 0. -1.
        -13    1    4    4    0    0 -0.40783283484E+02  0.21370428182E+02  0.22096048179E+03  0.22570668117E+03  0.00000000000E+00 0.  1.
         13    1    4    4    0    0  0.48707156710E+02  0.31310723992E+01  0.20002449123E+03  0.20589314661E+03  0.00000000000E+00 0. -1.
         21    1    1    2  502  501  0.46787150067E+02 -0.86525123862E+02  0.12575183268E+03  0.15965324267E+03  0.00000000000E+00 0. -1.
<scales pt_clust_5="13000.00000" pt_clust_6="13000.00000" pt_clust_7="13000.00000" pt_clust_8="13000.00000" pt_clust_9="89.86703"></scales>
<clustering>
<clus scale="   91.580">  7  8 -1 -1</clus>
<clus scale="   92.352">  5  6 -1 -1</clus>
<clus scale="   95.132">  1  7  2 -1</clus>
<clus scale="   89.867">  1  9  2 -1</clus>
<clus scale="   95.132">  1  5  2 -1</clus>
</clustering>
</event>
<event>
 9    1  0.2423659E-006  0.1022129E+03  0.7546771E-02  0.1275909E+00
          1   -1    0    0  502    0  0.00000000000E+00  0.00000000000E+00  0.53679491367E+03  0.53679491367E+03  0.00000000000E+00 0. -1.
         -1   -1    0    0    0  501 -0.00000000000E+00 -0.00000000000E+00 -0.25825509367E+02  0.25825509367E+02  0.00000000000E+00 0.  1.
         23    2    1    2    0    0 -0.13053629885E+02 -0.56634600547E+02  0.20940447275E+03  0.23571056695E+03  0.91276299964E+02 0.  0.
         23    2    1    2    0    0 -0.12489501202E+01  0.32583423865E+02  0.21683552924E+03  0.23767928671E+03  0.91709090067E+02 0.  0.
        -11    1    3    3    0    0  0.17899980602E+02  0.17351364240E+02  0.76745904535E+02  0.80693326921E+02  0.00000000000E+00 0. -1.
         11    1    3    3    0    0 -0.30953610487E+02 -0.73985964787E+02  0.13265856821E+03  0.15501724003E+03  0.00000000000E+00 0.  1.
        -13    1    4    4    0    0  0.27637316502E+02  0.54316748748E+02  0.14404483826E+03  0.15640666830E+03  0.00000000000E+00 0. -1.
         13    1    4    4    0    0 -0.28886266622E+02 -0.21733324883E+02  0.72790690980E+02  0.81272618410E+02  0.00000000000E+00 0.  1.
         21    1    1    2  502  501  0.14302580005E+02  0.24051176682E+02  0.84729402313E+02  0.89230569375E+02  0.00000000000E+00 0. -1.
<scales pt_clust_5="13000.00000" pt_clust_6="13000.00000" pt_clust_7="13000.00000" pt_clust_8="13000.00000" pt_clust_9="27.98255"></scales>
<clustering>
<clus scale="   27.983">  1  9  2 -1</clus>
<clus scale="   91.276">  5  6 -1 -1</clus>
<clus scale="   91.709">  7  8 -1 -1</clus>
<clus scale="  101.825">  2  5  1 -1</clus>
<clus scale="   27.983">  1  5  2 -1</clus>
</clustering>
</event>
<event>
 9    1  0.2423659E-006  0.1740774E+03  0.7546771E-02  0.1192815E+00
         -1   -1    0    0    0  501 -0.00000000000E+00  0.00000000000E+00  0.90494200270E+03  0.90494200270E+03  0.00000000000E+00 0.  1.
          1   -1    0    0  502    0  0.00000000000E+00 -0.00000000000E+00 -0.61808728958E+02  0.61808728958E+02  0.00000000000E+00 0. -1.
         23    2    1    2    0    0 -0.14664394630E+02 -0.66689038626E+02  0.36606053711E+03  0.38323644968E+03  0.90594631121E+02 0.  0.
         23    2    1    2    0    0 -0.52137801700E+02  0.17733664777E+03  0.30802581974E+03  0.37071793109E+03  0.91570965908E+02 0.  0.
        -13    1    4    4    0    0 -0.49494206123E+02  0.77119364736E+02  0.21599422894E+03  0.23462859969E+03  0.00000000000E+00 0.  1.
         13    1    4    4    0    0 -0.26435955771E+01  0.10021728303E+03  0.92031590799E+02  0.13608933140E+03  0.00000000000E+00 0. -1.
        -13    1    3    3    0    0 -0.43829046991E+02 -0.16244431820E+02  0.93689321428E+02  0.10470222479E+03  0.00000000000E+00 0. -1.
         13    1    3    3    0    0  0.29164652361E+02 -0.50444606806E+02  0.27237121568E+03  0.27853422489E+03  0.00000000000E+00 0.  1.
         21    1    1    2  502  501  0.66802196330E+02 -0.11064760914E+03  0.16904691689E+03  0.21279635089E+03  0.00000000000E+00 0.  1.
<scales pt_clust_5="13000.00000" pt_clust_6="13000.00000" pt_clust_7="13000.00000" pt_clust_8="13000.00000" pt_clust_9="148.04633"></scales>
<clustering>
<clus scale="   90.595">  7  8 -1 -1</clus>
<clus scale="   91.571">  5  6 -1 -1</clus>
<clus scale="  113.445">  1  7  2 -1</clus>
<clus scale="  148.046">  2  9  1 -1</clus>
<clus scale="  148.046">  2  5  1 -1</clus>
</clustering>
</event>
<event>
 9    1  0.2423659E-006  0.1530779E+03  0.7546771E-02  0.1197325E+00
          2   -1    0    0  502    0  0.00000000000E+00  0.00000000000E+00  0.35641626864E+03  0.35641626864E+03  0.00000000000E+00 0. -1.
         -2   -1    0    0    0  501 -0.00000000000E+00 -0.00000000000E+00 -0.37179622582E+03  0.37179622582E+03  0.00000000000E+00 0.  1.
         23    2    1    2    0    0 -0.29829479433E+02  0.55166218327E+02 -0.26333144989E+03  0.28482028676E+03  0.88577840146E+02 0.  0.
         23    2    1    2    0    0  0.47066229013E+02 -0.12006469554E+03  0.31351725796E+03  0.34954239441E+03  0.85182471341E+02 0.  0.
        -11    1    3    3    0    0 -0.37750917961E+02  0.18385495204E+02 -0.23225884180E+03  0.23602399843E+03  0.00000000000E+00 0.  1.
         11    1    3    3    0    0  0.79214385283E+01  0.36780723123E+02 -0.31072608086E+02  0.48796288333E+02  0.00000000000E+00 0. -1.
        -13    1    4    4    0    0  0.58829632632E+02 -0.77620233126E+02  0.27240143727E+03  0.28928942132E+03  0.00000000000E+00 0. -1.
         13    1    4    4    0    0 -0.11763403619E+02 -0.42444462414E+02  0.41115820692E+02  0.60252973084E+02  0.00000000000E+00 0.  1.
         21    1    1    2  502  501 -0.17236749580E+02  0.64898477214E+02 -0.65565765248E+02  0.93849813283E+02  0.00000000000E+00 0.  1.
<scales pt_clust_5="13000.00000" pt_clust_6="13000.00000" pt_clust_7="13000.00000" pt_clust_8="13000.00000" pt_clust_9="67.14848"></scales>
<clustering>
<clus scale="   67.148">  2  9  1 -1</clus>
<clus scale="   85.182">  7  8 -1 -1</clus>
<clus scale="   88.578">  5  6 -1 -1</clus>
<clus scale="  151.139">  1  7  2 -1</clus>
<clus scale="  151.139">  1  5  2 -1</clus>
</clustering>
</event>
<event>
 9    1  0.2423659E-006  0.9852393E+02  0.7546771E-02  0.1284780E+00
          1   -1    0    0  502    0  0.00000000000E+00  0.00000000000E+00  0.67170182940E+03  0.67170182940E+03  0.00000000000E+00 0. -1.
         -1   -1    0    0    0  501 -0.00000000000E+00 -0.00000000000E+00 -0.27720901019E+02  0.27720901019E+02  0.00000000000E+00 0.  1.
         23    2    1    2    0    0 -0.48396569384E+01  0.99722371907E+01  0.13593442083E+03  0.16544705137E+03  0.93657312823E+02 0.  0.
         23    2    1    2    0    0  0.15489591556E+02  0.45402621996E+02  0.38683611347E+03  0.40029039276E+03  0.91043365068E+02 0.  0.
        -11    1    3    3    0    0 -0.40292757514E+02 -0.17157656332E+02  0.38654834042E+02  0.58413077933E+02  0.00000000000E+00 0.  1.
         11    1    3    3    0    0  0.35453100575E+02  0.27129893522E+02  0.97279586791E+02  0.10703397343E+03  0.00000000000E+00 0. -1.
        -13    1    4    4    0    0  0.52901633337E+02  0.36915433483E+02  0.23729823014E+03  0.24591010973E+03  0.00000000000E+00 0. -1.
         13    1    4    4    0    0 -0.37412041781E+02  0.84871885135E+01  0.14953788333E+03  0.15438028303E+03  0.00000000000E+00 0.  1.
         21    1    1    2  502  501 -0.10649934617E+02 -0.55374859187E+02  0.12121039408E+03  0.13368528629E+03  0.00000000000E+00 0.  1.
<scales pt_clust_5="13000.00000" pt_clust_6="13000.00000" pt_clust_7="13000.00000" pt_clust_8="13000.00000" pt_clust_9="56.38968"></scales>
<clustering>
<clus scale="   56.390">  2  9  1 -1</clus>
<clus scale="   91.043">  7  8 -1 -1</clus>
<clus scale="   93.657">  5  6 -1 -1</clus>
<clus scale="   96.043">  1  7  2 -1</clus>
<clus scale="   96.043">  1  5  2 -1</clus>
</clustering>
</event>
<event>
 9    1  0.2423659E-006  0.9191832E+02  0.7546771E-02  0.1298930E+00
         -2   -1    0    0    0  501 -0.00000000000E+00  0.00000000000E+00  0.77024423146E+02  0.77024423146E+02  0.00000000000E+00 0.  1.
          2   -1    0    0  502    0  0.00000000000E+00 -0.00000000000E+00 -0.22771717915E+03  0.22771717915E+03  0.00000000000E+00 0. -1.
         23    2    1    2    0    0 -0.19998728952E+02 -0.13731485321E+02 -0.26984354037E+02  0.98803820799E+02  0.91899601702E+02 0.  0.
         23    2    1    2    0    0 -0.25048619460E+02 -0.14207865618E+02 -0.32857862227E+02  0.10075369762E+03  0.90787508455E+02 0.  0.
        -13    1    4    4    0    0  0.13946073761E+02  0.26227707973E+02 -0.33238035790E+02  0.44577490530E+02  0.00000000000E+00 0. -1.
         13    1    4    4    0    0 -0.38994693220E+02 -0.40435573590E+02  0.38017356284E+00  0.56176207088E+02  0.00000000000E+00 0.  1.
        -13    1    3    3    0    0  0.92706641437E+01 -0.41855616759E+02  0.98545285328E+01  0.43988062023E+02  0.00000000000E+00 0.  1.
         13    1    3    3    0    0 -0.29269393095E+02  0.28124131438E+02 -0.36838882569E+02  0.54815758777E+02  0.00000000000E+00 0. -1.
         21    1    1    2  502  501  0.45047348411E+02  0.27939350939E+02 -0.90850539739E+02  0.10518408388E+03  0.00000000000E+00 0. -1.
<scales pt_clust_5="13000.00000" pt_clust_6="13000.00000" pt_clust_7="13000.00000" pt_clust_8="13000.00000" pt_clust_9="53.00822"></scales>
<clustering>
<clus scale="   53.008">  2  9  1 -1</clus>
<clus scale="   90.788">  5  6 -1 -1</clus>
<clus scale="   90.806">  2  5  1 -1</clus>
<clus scale="   91.900">  7  8 -1 -1</clus>
<clus scale="   53.008">  2  5  1 -1</clus>
</clustering>
</event>
<event>
 9    1  0.2423659E-006  0.9642589E+02  0.7546771E-02  0.1288664E+00
          3   -1    0    0  502    0  0.00000000000E+00  0.00000000000E+00  0.49996835320E+03  0.49996835320E+03  0.00000000000E+00 0. -1.
         -3   -1    0    0    0  501 -0.00000000000E+00 -0.00000000000E+00 -0.53783822192E+02  0.53783822192E+02  0.00000000000E+00 0.  1.
         23    2    1    2    0    0  0.39903957776E+02  0.78641006218E+01  0.58769196492E+02  0.11692740419E+03  0.92542041638E+02 0.  0.
         23    2    1    2    0    0  0.12516924476E+02 -0.24607533435E+02  0.85305360623E+02  0.12974379203E+03  0.93777624839E+02 0.  0.
        -11    1    4    4    0    0 -0.34769847365E+02 -0.22740441335E+02  0.67339919136E+02  0.79124804374E+02  0.00000000000E+00 0.  1.
         11    1    4    4    0    0  0.47286771841E+02 -0.18670920999E+01  0.17965441487E+02  0.50618987661E+02  0.00000000000E+00 0. -1.
        -13    1    3    3    0    0  0.31315443168E+02 -0.32826003723E+02  0.53752702310E+00  0.45370612036E+02  0.00000000000E+00 0.  1.
         13    1    3    3    0    0  0.85885146081E+01  0.40690104345E+02  0.58231669469E+02  0.71556792158E+02  0.00000000000E+00 0. -1.
         21    1    1    2  502  501 -0.52420882252E+02  0.16743432813E+02  0.30210997389E+03  0.30708097916E+03  0.00000000000E+00 0. -1.
<scales pt_clust_5="13000.00000" pt_clust_6="13000.00000" pt_clust_7="13000.00000" pt_clust_8="13000.00000" pt_clust_9="55.02991"></scales>
<clustering>
<clus scale="   55.030">  1  9  2 -1</clus>
<clus scale="   92.542">  7  8 -1 -1</clus>
<clus scale="   93.778">  5  6 -1 -1</clus>
<clus scale="   95.225">  2  7  1 -1</clus>
<clus scale="   55.030">  1  5  2 -1</clus>
</clustering>
</event>
<event>
 9    1  0.2423659E-006  0.1945955E+03  0.7546771E-02  0.1173358E+00
         -2   -1    0    0    0  501 -0.00000000000E+00  0.00000000000E+00  0.13965648581E+03  0.13965648581E+03  0.00000000000E+00 0.  1.
          2   -1    0    0  502    0  0.00000000000E+00 -0.00000000000E+00 -0.63270529962E+03  0.63270529962E+03  0.00000000000E+00 0. -1.
         23    2    1    2    0    0 -0.75027561908E+02  0.19059283247E+03 -0.21864459081E+03  0.31305660774E+03  0.90797685674E+02 0.  0.
         23    2    1    2    0    0 -0.46961031216E+02 -0.77839455424E+02 -0.26466676543E+03  0.29290397887E+03  0.86486558730E+02 0.  0.
        -11    1    3    3    0    0 -0.43981598587E+02  0.12676138086E+03 -0.77194760584E+02  0.15479618778E+03  0.00000000000E+00 0.  1.
         11    1    3    3    0    0 -0.31045963321E+02  0.63831451616E+02 -0.14144983022E+03  0.15826041995E+03  0.00000000000E+00 0. -1.
        -11    1    4    4    0    0 -0.17179760841E+01 -0.69935312188E+02 -0.21085575481E+03  0.22215771125E+03  0.00000000000E+00 0.  1.
         11    1    4    4    0    0 -0.45243055132E+02 -0.79041432358E+01 -0.53811010628E+02  0.70746267624E+02  0.00000000000E+00 0. -1.
         21    1    1    2  502  501  0.12198859312E+03 -0.11275337705E+03 -0.97374575674E+01  0.16640119882E+03  0.00000000000E+00 0.  1.
<scales pt_clust_5="13000.00000" pt_clust_6="13000.00000" pt_clust_7="13000.00000" pt_clust_8="13000.00000" pt_clust_9="172.11386"></scales>
<clustering>
<clus scale="   86.487">  7  8 -1 -1</clus>
<clus scale="   90.798">  5  6 -1 -1</clus>
<clus scale="  125.476">  2  7  1 -1</clus>
<clus scale="  172.114">  1  9  2 -1</clus>
<clus scale="  125.476">  2  5  1 -1</clus>
</clustering>
</event>
<event>
 9    1  0.2423659E-006  0.1708286E+03  0.7546771E-02  0.1188220E+00
          2   -1    0    0  502    0  0.00000000000E+00  0.00000000000E+00  0.15147162718E+04  0.15147162718E+04  0.00000000000E+00 0. -1.
         -2   -1    0    0    0  501 -0.00000000000E+00 -0.00000000000E+00 -0.47643112677E+02  0.47643112677E+02  0.00000000000E+00 0.  1.
         23    2    1    2    0    0 -0.46753765782E+02 -0.84036316956E+02  0.19428540617E+03  0.23536776087E+03  0.91668678530E+02 0.  0.
         23    2    1    2    0    0  0.10381899617E+03 -0.62341313057E+02  0.25120884053E+03  0.29340257307E+03  0.91183140127E+02 0.  0.
        -11    1    3    3    0    0 -0.41570571535E+02 -0.10383632771E+03  0.17139430272E+03  0.20466094492E+03  0.00000000000E+00 0.  1.
         11    1    3    3    0    0 -0.51831942471E+01  0.19800010756E+02  0.22891103445E+02  0.30706815945E+02  0.00000000000E+00 0. -1.
        -13    1    4    4    0    0  0.33908768446E+02 -0.28982807502E+02  0.18768396379E+02  0.48394838680E+02  0.00000000000E+00 0.  1.
         13    1    4    4    0    0  0.69910227727E+02 -0.33358505555E+02  0.23244044415E+03  0.24500773439E+03  0.00000000000E+00 0. -1.
         21    1    1    2  502  501 -0.57065230391E+02  0.14637763001E+03  0.10215789124E+04  0.10335890505E+04  0.00000000000E+00 0. -1.
<scales pt_clust_5="13000.00000" pt_clust_6="13000.00000" pt_clust_7="13000.00000" pt_clust_8="13000.00000" pt_clust_9="144.45773"></scales>
<clustering>
<clus scale="   91.183">  7  8 -1 -1</clus>
<clus scale="   91.669">  5  6 -1 -1</clus>
<clus scale="  132.858">  2  5  1 -1</clus>
<clus scale="  144.458">  1  9  2 -1</clus>
<clus scale="  144.458">  1  5  2 -1</clus>
</clustering>
</event>
<event>
 9    1  0.2423659E-006  0.1110826E+03  0.7546771E-02  0.1258612E+00
          1   -1    0    0  502    0  0.00000000000E+00  0.00000000000E+00  0.43710304699E+03  0.43710304699E+03  0.00000000000E+00 0. -1.
         -1   -1    0    0    0  501 -0.00000000000E+00 -0.00000000000E+00 -0.14499307821E+03  0.14499307821E+03  0.00000000000E+00 0.  1.
         23    2    1    2    0    0  0.11936584245E+02 -0.24434936376E+02 -0.66621637615E+02  0.11680654280E+03  0.92009660820E+02 0.  0.
         23    2    1    2    0    0 -0.50460470705E+02  0.41706516612E+02  0.39427143098E+03  0.41010374686E+03  0.91920777113E+02 0.  0.
        -11    1    3    3    0    0 -0.74090711917E+00  0.27698461511E+02  0.41277798556E+01  0.28014144284E+02  0.00000000000E+00 0. -1.
         11    1    3    3    0    0  0.12677491364E+02 -0.52133397887E+02 -0.70749417471E+02  0.88792398520E+02  0.00000000000E+00 0.  1.
        -13    1    4    4    0    0 -0.22237861542E+02  0.68503401761E+02  0.28989888289E+03  0.29871156797E+03  0.00000000000E+00 0. -1.
         13    1    4    4    0    0 -0.28222609163E+02 -0.26796885148E+02  0.10437254809E+03  0.11139217889E+03  0.00000000000E+00 0.  1.
         21    1    1    2  502  501  0.38523886461E+02 -0.17271580236E+02 -0.35539824587E+02  0.55185835534E+02  0.00000000000E+00 0.  1.
<scales pt_clust_5="13000.00000" pt_clust_6="13000.00000" pt_clust_7="13000.00000" pt_clust_8="13000.00000" pt_clust_9="42.21845"></scales>
<clustering>
<clus scale="   42.218">  2  9  1 -1</clus>
<clus scale="   91.921">  7  8 -1 -1</clus>
<clus scale="   92.010">  5  6 -1 -1</clus>
<clus scale="  111.009">  1  7  2 -1</clus>
<clus scale="  111.009">  1  5  2 -1</clus>
</clustering>
</event>
<event>
 9    1  0.2423659E-006  0.1051533E+03  0.7546771E-02  0.1269854E+00
          1   -1    0    0  502    0  0.00000000000E+00  0.00000000000E+00  0.31759784017E+03  0.31759784017E+03  0.00000000000E+00 0. -1.
         -1   -1    0    0    0  501 -0.00000000000E+00 -0.00000000000E+00 -0.84295253160E+02  0.84295253160E+02  0.00000000000E+00 0.  1.
         23    2    1    2    0    0 -0.22323032291E+02  0.77669457716E+02  0.29664057161E+02  0.12553117432E+03  0.91363324183E+02 0.  0.
         23    2    1    2    0    0 -0.27648906178E+02 -0.40941999273E+01  0.12753317683E+03  0.15930407882E+03  0.91278989092E+02 0.  0.
        -11    1    4    4    0    0 -0.52828593742E+02  0.21687190174E+02  0.94515136714E+02  0.11042782984E+03  0.00000000000E+00 0. -1.
         11    1    4    4    0    0  0.25179687563E+02 -0.25781390101E+02  0.33018040115E+02  0.48876248980E+02  0.00000000000E+00 0.  1.
        -13    1    3    3    0    0 -0.42917173461E+02  0.37072509986E+02  0.50063222103E+02  0.75647742742E+02  0.00000000000E+00 0. -1.
         13    1    3    3    0    0  0.20594141170E+02  0.40596947730E+02 -0.20399164942E+02  0.49883431576E+02  0.00000000000E+00 0.  1.
         21    1    1    2  502  501  0.49971938470E+02 -0.73575257789E+02  0.76105353022E+02  0.11705784020E+03  0.00000000000E+00 0. -1.
<scales pt_clust_5="13000.00000" pt_clust_6="13000.00000" pt_clust_7="13000.00000" pt_clust_8="13000.00000" pt_clust_9="88.94107"></scales>
<clustering>
<clus scale="   88.941">  1  9  2 -1</clus>
<clus scale="   91.279">  5  6 -1 -1</clus>
<clus scale="   91.363">  7  8 -1 -1</clus>
<clus scale="  105.080">  1  5  2 -1</clus>
<clus scale="   88.941">  1  5  2 -1</clus>
</clustering>
</event>
<event>
 9    1  0.2423659E-006  0.2096648E+03  0.7546771E-02  0.1163286E+00
          1   -1    0    0  502    0  0.00000000000E+00  0.00000000000E+00  0.95994401526E+03  0.95994401526E+03  0.00000000000E+00 0. -1.
         -1   -1    0    0    0  501 -0.00000000000E+00 -0.00000000000E+00 -0.15219940036E+03  0.15219940036E+03  0.00000000000E+00 0.  1.
         23    2    1    2    0    0 -0.84187597981E+02 -0.22031539235E+02  0.59173901128E+02  0.13956392504E+03  0.91671141711E+02 0.  0.
         23    2    1    2    0    0 -0.14599036958E+02  0.18833883081E+03  0.74997838373E+03  0.77913984622E+03  0.94375191893E+02 0.  0.
        -11    1    3    3    0    0 -0.74256781397E+02 -0.53065998264E+02  0.55385861278E+02  0.10675983976E+03  0.00000000000E+00 0.  1.
         11    1    3    3    0    0 -0.99308165844E+01  0.31034459030E+02  0.37880398500E+01  0.32804085282E+02  0.00000000000E+00 0. -1.
        -13    1    4    4    0    0 -0.27000151566E+02  0.53879240137E+01  0.85471543356E+02  0.89796562481E+02  0.00000000000E+00 0.  1.
         13    1    4    4    0    0  0.12401114608E+02  0.18295090680E+03  0.66450684037E+03  0.68934328374E+03  0.00000000000E+00 0. -1.
         21    1    1    2  502  501  0.98786634939E+02 -0.16630729158E+03 -0.14076699536E+01  0.19343964436E+03  0.00000000000E+00 0.  1.
<scales pt_clust_5="13000.00000" pt_clust_6="13000.00000" pt_clust_7="13000.00000" pt_clust_8="13000.00000" pt_clust_9="187.22352"></scales>
<clustering>
<clus scale="   91.671">  5  6 -1 -1</clus>
<clus scale="   94.375">  7  8 -1 -1</clus>
<clus scale="  126.398">  2  5  1 -1</clus>
<clus scale="  187.224">  2  9  1 -1</clus>
<clus scale="  209.665">  1  5  2 -1</clus>
</clustering>
</event>
<event>
 9    1  0.2423659E-006  0.2898254E+03  0.7546771E-02  0.1118042E+00
         -2   -1    0    0    0  501 -0.00000000000E+00  0.00000000000E+00  0.16582516811E+03  0.16582516811E+03  0.00000000000E+00 0.  1.
          2   -1    0    0  502    0  0.00000000000E+00 -0.00000000000E+00 -0.94006712222E+03  0.94006712222E+03  0.00000000000E+00 0. -1.
         23    2    1    2    0    0 -0.83416716765E+02 -0.71058019813E+02 -0.81742023000E+02  0.16418722536E+03  0.90929070333E+02 0.  0.
         23    2    1    2    0    0  0.77821066464E+02 -0.22264637143E+03 -0.84883047584E+02  0.26680369597E+03  0.91386844350E+02 0.  0.
        -11    1    3    3    0    0 -0.96637181186E+02 -0.54955372927E+02 -0.41115361431E+02  0.11852978844E+03  0.00000000000E+00 0.  1.
         11    1    3    3    0    0  0.13220464421E+02 -0.16102646886E+02 -0.40626661569E+02  0.45657436924E+02  0.00000000000E+00 0. -1.
        -13    1    4    4    0    0  0.35066165876E+02 -0.16465001146E+02  0.25102313436E+01  0.38820529535E+02  0.00000000000E+00 0. -1.
         13    1    4    4    0    0  0.42754900588E+02 -0.20618137029E+03 -0.87393278927E+02  0.22798316644E+03  0.00000000000E+00 0.  1.
         21    1    1    2  502  501  0.55956503013E+01  0.29370439124E+03 -0.60761688352E+03  0.67490136900E+03  0.00000000000E+00 0. -1.
<scales pt_clust_5="13000.00000" pt_clust_6="13000.00000" pt_clust_7="13000.00000" pt_clust_8="13000.00000" pt_clust_9="275.04032"></scales>
<clustering>
<clus scale="   90.929">  5  6 -1 -1</clus>
<clus scale="   91.387">  7  8 -1 -1</clus>
<clus scale="  142.393">  1  5  2 -1</clus>
<clus scale="  275.040">  2  9  1 -1</clus>
<clus scale="  275.040">  2  5  1 -1</clus>
</clustering>
</event>
<event>
 9    1  0.2423659E-006  0.1001512E+03  0.7546771E-02  0.1280285E+00
         -1   -1    0    0    0  501 -0.00000000000E+00  0.00000000000E+00  0.48299348772E+02  0.48299348772E+02  0.00000000000E+00 0.  1.
          1   -1    0    0  502    0  0.00000000000E+00 -0.00000000000E+00 -0.41607067764E+03  0.41607067764E+03  0.00000000000E+00 0. -1.
         23    2    1    2    0    0 -0.44284263556E+02 -0.13490542262E+01 -0.10473187071E+03  0.14710594294E+03  0.93319225035E+02 0.  0.
         23    2    1    2    0    0  0.26963246017E+02  0.23725456610E+02 -0.27034256486E+03  0.28803984011E+03  0.92692681412E+02 0.  0.
        -13    1    3    3    0    0 -0.35977072930E+02 -0.41791156143E+02 -0.32782681023E+02  0.64152589063E+02  0.00000000000E+00 0.  1.
         13    1    3    3    0    0 -0.83071906259E+01  0.40442101917E+02 -0.71949189687E+02  0.82953353881E+02  0.00000000000E+00 0. -1.
        -13    1    4    4    0    0  0.55461346931E+02 -0.82372002402E+01 -0.16760755469E+03  0.17673738954E+03  0.00000000000E+00 0.  1.
         13    1    4    4    0    0 -0.28498100913E+02  0.31962656850E+02 -0.10273501017E+03  0.11130245057E+03  0.00000000000E+00 0. -1.
         21    1    1    2  502  501  0.17321017539E+02 -0.22376402383E+02  0.73031067048E+01  0.29224243356E+02  0.00000000000E+00 0.  1.
<scales pt_clust_5="13000.00000" pt_clust_6="13000.00000" pt_clust_7="13000.00000" pt_clust_8="13000.00000" pt_clust_9="28.29701"></scales>
<clustering>
<clus scale="   28.297">  1  9  2 -1</clus>
<clus scale="   92.693">  7  8 -1 -1</clus>
<clus scale="   93.319">  5  6 -1 -1</clus>
<clus scale="   99.568">  2  7  1 -1</clus>
<clus scale="   99.568">  2  5  1 -1</clus>
</clustering>
</event>
<event>
 9    1  0.2423659E-006  0.1438853E+03  0.7546771E-02  0.1226051E+00
         -1   -1    0    0    0  501 -0.00000000000E+00  0.00000000000E+00  0.27269886539E+03  0.27269886539E+03  0.00000000000E+00 0.  1.
          1   -1    0    0  502    0  0.00000000000E+00 -0.00000000000E+00 -0.12324485058E+03  0.12324485058E+03  0.00000000000E+00 0. -1.
         23    2    1    2    0    0  0.58439559694E+02 -0.93048872840E+02  0.17510699254E+02  0.14581851088E+03  0.94250403995E+02 0.  0.
         23    2    1    2    0    0  0.27914724870E+02  0.24789887428E+02  0.39295335396E+02  0.10625026016E+03  0.91385031685E+02 0.  0.
        -11    1    4    4    0    0  0.48501034707E+02  0.17428402022E+02  0.57920191501E+02  0.77529659797E+02  0.00000000000E+00 0.  1.
         11    1    4    4    0    0 -0.20586309837E+02  0.73614854061E+01 -0.18624856105E+02  0.28720600360E+02  0.00000000000E+00 0. -1.
        -11    1    3    3    0    0  0.21365197921E+02  0.15174106590E+02  0.17336801073E+02  0.31421169050E+02  0.00000000000E+00 0.  1.
         11    1    3    3    0    0  0.37074361773E+02 -0.10822297943E+03  0.17389818135E+00  0.11439734183E+03  0.00000000000E+00 0. -1.
         21    1    1    2  502  501 -0.86354284564E+02  0.68258985412E+02  0.92647980154E+02  0.14387494493E+03  0.00000000000E+00 0. -1.
<scales pt_clust_5="13000.00000" pt_clust_6="13000.00000" pt_clust_7="13000.00000" pt_clust_8="13000.00000" pt_clust_9="108.71912"></scales>
<clustering>
<clus scale="   91.385">  5  6 -1 -1</clus>
<clus scale="   94.250">  7  8 -1 -1</clus>
<clus scale="   98.717">  2  5  1 -1</clus>
<clus scale="  108.719">  1  9  2 -1</clus>
<clus scale="   98.717">  2  5  1 -1</clus>
</clustering>
</event>
<event>
 9    1  0.2423659E-006  0.1019549E+03  0.7546771E-02  0.1276819E+00
         -1   -1    0    0    0  501 -0.00000000000E+00  0.00000000000E+00  0.45254933823E+02  0.45254933823E+02  0.00000000000E+00 0.  1.
          1   -1    0    0  502    0  0.00000000000E+00 -0.00000000000E+00 -0.69924855387E+03  0.69924855387E+03  0.00000000000E+00 0. -1.
         23    2    1    2    0    0 -0.25258366649E+02 -0.41487399242E+02 -0.32456444732E+02  0.10834213886E+03  0.91243678501E+02 0.  0.
         23    2    1    2    0    0  0.16026716304E+02  0.52717917186E+01 -0.36486511388E+03  0.37678258964E+03  0.92487410552E+02 0.  0.
        -11    1    4    4    0    0  0.21643957595E+02 -0.41547021468E+02 -0.17878161835E+03  0.18481743141E+03  0.00000000000E+00 0.  1.
         11    1    4    4    0    0 -0.56172412907E+01  0.46818813187E+02 -0.18608349553E+03  0.19196515824E+03  0.00000000000E+00 0. -1.
        -13    1    3    3    0    0 -0.52147458115E+02 -0.35989064022E+02 -0.45450142277E+02  0.77976185788E+02  0.00000000000E+00 0. -1.
         13    1    3    3    0    0  0.26889091466E+02 -0.54983352199E+01  0.12993697544E+02  0.30365953072E+02  0.00000000000E+00 0.  1.
         21    1    1    2  502  501  0.92316503442E+01  0.36215607523E+02 -0.25667206144E+03  0.25937875919E+03  0.00000000000E+00 0. -1.
<scales pt_clust_5="13000.00000" pt_clust_6="13000.00000" pt_clust_7="13000.00000" pt_clust_8="13000.00000" pt_clust_9="37.37370"></scales>
<clustering>
<clus scale="   37.374">  2  9  1 -1</clus>
<clus scale="   91.244">  7  8 -1 -1</clus>
<clus scale="   92.487">  5  6 -1 -1</clus>
<clus scale="  100.828">  1  7  2 -1</clus>
<clus scale="   37.374">  2  5  1 -1</clus>
</clustering>
</event>
<event>
 9    1  0.2423659E-006  0.9571401E+02  0.7546771E-02  0.1295703E+00
         -1   -1    0    0    0  501 -0.00000000000E+00  0.00000000000E+00  0.56390608438E+02  0.56390608438E+02  0.00000000000E+00 0.  1.
          1   -1    0    0  502    0  0.00000000000E+00 -0.00000000000E+00 -0.34138723487E+03  0.34138723487E+03  0.00000000000E+00 0. -1.
         23    2    1    2    0    0 -0.39060733448E+02 -0.15143896328E+01 -0.17231354286E+02  0.10100290056E+03  0.91523942649E+02 0.  0.
         23    2    1    2    0    0 -0.63205867759E+01  0.10854787913E+02 -0.16860369719E+03  0.18732301168E+03  0.80653132377E+02 0.  0.
        -13    1    4    4    0    0 -0.15749838757E+02 -0.32476892443E+02 -0.60081976673E+02  0.70090298078E+02  0.00000000000E+00 0. -1.
         13    1    4    4    0    0  0.94292519813E+01  0.43331680356E+02 -0.10852172052E+03  0.11723271361E+03  0.00000000000E+00 0.  1.
        -13    1    3    3    0    0  0.17255787979E+02 -0.29106599286E+02 -0.17913686680E+02  0.38286505603E+02  0.00000000000E+00 0. -1.
         13    1    3    3    0    0 -0.56316521427E+02  0.27592209654E+02  0.68233239435E+00  0.62716394959E+02  0.00000000000E+00 0.  1.
         21    1    1    2  502  501  0.45381320224E+02 -0.93403982802E+01 -0.99161574953E+02  0.10945193106E+03  0.00000000000E+00 0. -1.
<scales pt_clust_5="13000.00000" pt_clust_6="13000.00000" pt_clust_7="13000.00000" pt_clust_8="13000.00000" pt_clust_9="46.33257"></scales>
<clustering>
<clus scale="   46.333">  2  9  1 -1</clus>
<clus scale="   80.653">  5  6 -1 -1</clus>
<clus scale="   85.378">  2  5  1 -1</clus>
<clus scale="   91.524">  7  8 -1 -1</clus>
<clus scale="   46.333">  2  5  1 -1</clus>
</clustering>
</event>
<event>
 9    1  0.2423659E-006  0.1047123E+03  0.7546771E-02  0.1270875E+00
         -2   -1    0    0    0  501 -0.00000000000E+00  0.00000000000E+00  0.66032773568E+02  0.66032773568E+02  0.00000000000E+00 0.  1.
          2   -1    0    0  502    0  0.00000000000E+00 -0.00000000000E+00 -0.51157623558E+03  0.51157623558E+03  0.00000000000E+00 0. -1.
         23    2    1    2    0    0 -0.16951425557E+02 -0.44436587293E+02 -0.36953028925E+01  0.10171989459E+03  0.89840528562E+02 0.  0.
         23    2    1    2    0    0  0.40945211980E+01  0.91114893171E+02 -0.31975149494E+03  0.34454316056E+03  0.90278912880E+02 0.  0.
        -11    1    4    4    0    0 -0.34801866850E+02  0.66595744650E+02 -0.24960835556E+03  0.26067315609E+03  0.00000000000E+00 0. -1.
         11    1    4    4    0    0  0.38896388048E+02  0.24519148522E+02 -0.70143139384E+02  0.83870004471E+02  0.00000000000E+00 0.  1.
        -13    1    3    3    0    0 -0.45361860158E+02 -0.45083552501E+01 -0.20406701181E+02  0.49944540014E+02  0.00000000000E+00 0. -1.
         13    1    3    3    0    0  0.28410434601E+02 -0.39928232042E+02  0.16711398289E+02  0.51775354572E+02  0.00000000000E+00 0.  1.
         21    1    1    2  502  501  0.12856904359E+02 -0.46678305879E+02 -0.12209666418E+03  0.13134595400E+03  0.00000000000E+00 0. -1.
<scales pt_clust_5="13000.00000" pt_clust_6="13000.00000" pt_clust_7="13000.00000" pt_clust_8="13000.00000" pt_clust_9="48.41657"></scales>
<clustering>
<clus scale="   48.417">  2  9  1 -1</clus>
<clus scale="   89.841">  7  8 -1 -1</clus>
<clus scale="   90.279">  5  6 -1 -1</clus>
<clus scale="  104.335">  1  7  2 -1</clus>
<clus scale="   48.417">  2  5  1 -1</clus>
</clustering>
</event>
<event>
 9    1  0.2423659E-006  0.1638896E+03  0.7546771E-02  0.1208621E+00
          2   -1    0    0  502    0  0.00000000000E+00  0.00000000000E+00  0.70800986442E+03  0.70800986442E+03  0.00000000000E+00 0. -1.
         -2   -1    0    0    0  501 -0.00000000000E+00 -0.00000000000E+00 -0.69207115126E+02  0.69207115126E+02  0.00000000000E+00 0.  1.
         23    2    1    2    0    0 -0.11800383888E+03 -0.30294532192E+02  0.39016330319E+03  0.41894106745E+03  0.91877909045E+02 0.  0.
         23    2    1    2    0    0 -0.20970349279E+02  0.14025423935E+02  0.17578515131E+03  0.20052212569E+03  0.93124837742E+02 0.  0.
        -11    1    3    3    0    0 -0.20920575769E+02 -0.40476203579E+02  0.64552274180E+02  0.79012591709E+02  0.00000000000E+00 0.  1.
         11    1    3    3    0    0 -0.97083263108E+02  0.10181671387E+02  0.32561102901E+03  0.33992847574E+03  0.00000000000E+00 0. -1.
        -13    1    4    4    0    0  0.28772551797E+02  0.38897145080E+01  0.12642443855E+03  0.12971556683E+03  0.00000000000E+00 0.  1.
         13    1    4    4    0    0 -0.49742901076E+02  0.10135709427E+02  0.49360712759E+02  0.70806558857E+02  0.00000000000E+00 0. -1.
         21    1    1    2  502  501  0.13897418816E+03  0.16269108257E+02  0.72854294805E+02  0.15775378642E+03  0.00000000000E+00 0.  1.
<scales pt_clust_5="13000.00000" pt_clust_6="13000.00000" pt_clust_7="13000.00000" pt_clust_8="13000.00000" pt_clust_9="135.71382"></scales>
<clustering>
<clus scale="   91.878">  5  6 -1 -1</clus>
<clus scale="   93.125">  7  8 -1 -1</clus>
<clus scale="   96.482">  1  7  2 -1</clus>
<clus scale="  135.714">  2  9  1 -1</clus>
<clus scale="   96.482">  1  5  2 -1</clus>
</clustering>
</event>
<event>
 9    1  0.2423659E-006  0.1001516E+03  0.7546771E-02  0.1280525E+00
          1   -1    0    0  502    0  0.00000000000E+00  0.00000000000E+00  0.32978737590E+03  0.32978737590E+03  0.00000000000E+00 0. -1.
         -1   -1    0    0    0  501 -0.00000000000E+00 -0.00000000000E+00 -0.15042374149E+03  0.15042374149E+03  0.00000000000E+00 0.  1.
         23    2    1    2    0    0 -0.31748890549E+02  0.14860097660E+02 -0.64641585918E+02  0.11690524342E+03  0.90881718495E+02 0.  0.
         23    2    1    2    0    0  0.71106158739E+02  0.51470045189E+02  0.20917029778E+02  0.12726133754E+03  0.89736695596E+02 0.  0.
        -11    1    4    4    0    0  0.27697021981E+02  0.67983388294E+02 -0.58750623001E+01  0.73643617969E+02  0.00000000000E+00 0.  1.
         11    1    4    4    0    0  0.43409136758E+02 -0.16513343105E+02  0.26792092078E+02  0.53617719575E+02  0.00000000000E+00 0. -1.
        -11    1    3    3    0    0 -0.26711743620E+02  0.47396661188E+02 -0.63966378858E+02  0.83974152948E+02  0.00000000000E+00 0. -1.
         11    1    3    3    0    0 -0.50371469286E+01 -0.32536563529E+02 -0.67520705955E+00  0.32931090477E+02  0.00000000000E+00 0.  1.
         21    1    1    2  502  501 -0.39357268190E+02 -0.66330142849E+02  0.22308819055E+03  0.23604453642E+03  0.00000000000E+00 0. -1.
<scales pt_clust_5="13000.00000" pt_clust_6="13000.00000" pt_clust_7="13000.00000" pt_clust_8="13000.00000" pt_clust_9="77.12770"></scales>
<clustering>
<clus scale="   77.128">  1  9  2 -1</clus>
<clus scale="   89.737">  5  6 -1 -1</clus>
<clus scale="   90.882">  7  8 -1 -1</clus>
<clus scale="   99.114">  1  5  2 -1</clus>
<clus scale="   77.128">  1  5  2 -1</clus>
</clustering>
</event>
<event>
 9    1  0.2423659E-006  0.1450510E+03  0.7546771E-02  0.1228669E+00
          3   -1    0    0  502    0  0.00000000000E+00  0.00000000000E+00  0.11839698541E+03  0.11839698541E+03  0.00000000000E+00 0. -1.
         -3   -1    0    0    0  501 -0.00000000000E+00 -0.00000000000E+00 -0.51236489479E+03  0.51236489479E+03  0.00000000000E+00 0.  1.
         23    2    1    2    0    0 -0.13118077573E+01  0.79526140082E+01 -0.13087365199E+03  0.15955255021E+03  0.90907307662E+02 0.  0.
         23    2    1    2    0    0 -0.10273917117E+03  0.37551804556E+02 -0.31556854667E+03  0.34610613514E+03  0.90777055542E+02 0.  0.
        -11    1    3    3    0    0 -0.13622929857E+02  0.47683289267E+02 -0.67871569913E+02  0.84058493298E+02  0.00000000000E+00 0.  1.
         11    1    3    3    0    0  0.12311122100E+02 -0.39730675259E+02 -0.63002082075E+02  0.75494056916E+02  0.00000000000E+00 0. -1.
        -13    1    4    4    0    0 -0.43392264453E+02 -0.16951642032E+02 -0.48937729525E+02  0.67565880095E+02  0.00000000000E+00 0. -1.
         13    1    4    4    0    0 -0.59346906720E+02  0.54503446588E+02 -0.26663081714E+03  0.27854025504E+03  0.00000000000E+00 0.  1.
         21    1    1    2  502  501  0.10405097893E+03 -0.45504418565E+02  0.52474289278E+02  0.12510319485E+03  0.00000000000E+00 0. -1.
<scales pt_clust_5="13000.00000" pt_clust_6="13000.00000" pt_clust_7="13000.00000" pt_clust_8="13000.00000" pt_clust_9="113.13402"></scales>
<clustering>
<clus scale="   90.777">  7  8 -1 -1</clus>
<clus scale="   90.907">  5  6 -1 -1</clus>
<clus scale="   91.264">  2  5  1 -1</clus>
<clus scale="  113.134">  1  9  2 -1</clus>
<clus scale="  113.134">  1  5  2 -1</clus>
</clustering>
</event>
<event>
 9    1  0.2423659E-006  0.1967998E+03  0.7546771E-02  0.1171421E+00
         -2   -1    0    0    0  501 -0.00000000000E+00  0.00000000000E+00  0.61831019105E+02  0.61831019105E+02  0.00000000000E+00 0.  1.
          2   -1    0    0  502    0  0.00000000000E+00 -0.00000000000E+00 -0.14775767623E+04  0.14775767623E+04  0.00000000000E+00 0. -1.
         23    2    1    2    0    0  0.16146787507E+03  0.93482397050E+02 -0.17804677288E+03  0.27299870576E+03  0.89536622530E+02 0.  0.
         23    2    1    2    0    0 -0.43334613025E+02 -0.16178085583E+02 -0.56307899707E+03  0.57717505699E+03  0.11804012169E+03 0.  0.
        -11    1    4    4    0    0  0.33907387966E+02 -0.32552750976E+02 -0.17938307207E+03  0.18543915202E+03  0.00000000000E+00 0.  1.
         11    1    4    4    0    0 -0.77242000990E+02  0.16374665392E+02 -0.38369592500E+03  0.39173590497E+03  0.00000000000E+00 0. -1.
        -13    1    3    3    0    0  0.96618517976E+02  0.10100926909E+03 -0.13792699468E+03  0.19637175540E+03  0.00000000000E+00 0. -1.
         13    1    3    3    0    0  0.64849357095E+02 -0.75268720371E+01 -0.40119778199E+02  0.76626950357E+02  0.00000000000E+00 0.  1.
         21    1    1    2  502  501 -0.11813326205E+03 -0.77304311467E+02 -0.67461997320E+03  0.68923401861E+03  0.00000000000E+00 0. -1.
<scales pt_clust_5="13000.00000" pt_clust_6="13000.00000" pt_clust_7="13000.00000" pt_clust_8="13000.00000" pt_clust_9="175.25226"></scales>
<clustering>
<clus scale="   89.537">  7  8 -1 -1</clus>
<clus scale="  118.040">  5  6 -1 -1</clus>
<clus scale="  126.780">  2  5  1 -1</clus>
<clus scale="  175.252">  2  9  1 -1</clus>
<clus scale="  126.780">  2  5  1 -1</clus>
</clustering>
</event>
<event>
 9    1  0.2423659E-006  0.1139500E+03  0.7546771E-02  0.1255787E+00
         -2   -1    0    0    0  501 -0.00000000000E+00  0.00000000000E+00  0.70863063640E+02  0.70863063640E+02  0.00000000000E+00 0.  1.
          2   -1    0    0  502    0  0.00000000000E+00 -0.00000000000E+00 -0.52865859755E+03  0.52865859755E+03  0.00000000000E+00 0. -1.
         23    2    1    2    0    0 -0.14348295842E+02  0.59658440674E+02 -0.45981404137E+02  0.11832327915E+03  0.90117177743E+02 0.  0.
         23    2    1    2    0    0  0.77022328588E+02 -0.26993980863E+02 -0.98861711316E+02  0.16036475299E+03  0.96343665762E+02 0.  0.
        -11    1    3    3    0    0  0.18887035324E+02  0.70604689311E+02 -0.23673237059E+02  0.76825545289E+02  0.00000000000E+00 0.  1.
         11    1    3    3    0    0 -0.33235331166E+02 -0.10946248637E+02 -0.22308167078E+02  0.41497733858E+02  0.00000000000E+00 0. -1.
        -13    1    4    4    0    0  0.79777223822E+02  0.17504036162E+02 -0.64828806844E+02  0.10427641593E+03  0.00000000000E+00 0.  1.
         13    1    4    4    0    0 -0.27548952342E+01 -0.44498017025E+02 -0.34032904472E+02  0.56088337056E+02  0.00000000000E+00 0. -1.
         21    1    1    2  502  501 -0.62674032746E+02 -0.32664459812E+02 -0.31295241846E+03  0.32083362906E+03  0.00000000000E+00 0. -1.
<scales pt_clust_5="13000.00000" pt_clust_6="13000.00000" pt_clust_7="13000.00000" pt_clust_8="13000.00000" pt_clust_9="70.67532"></scales>
<clustering>
<clus scale="   70.675">  2  9  1 -1</clus>
<clus scale="   90.117">  5  6 -1 -1</clus>
<clus scale="   96.344">  7  8 -1 -1</clus>
<clus scale="  108.736">  1  5  2 -1</clus>
<clus scale="   70.675">  2  5  1 -1</clus>
</clustering>
</event>
<event>
 9    1  0.2423659E-006  0.1050203E+03  0.7546771E-02  0.1270423E+00
         -1   -1    0    0    0  501 -0.00000000000E+00  0.00000000000E+00  0.24756744933E+03  0.24756744933E+03  0.00000000000E+00 0.  1.
          1   -1    0    0  502    0  0.00000000000E+00 -0.00000000000E+00 -0.13460087085E+03  0.13460087085E+03  0.00000000000E+00 0. -1.
         23    2    1    2    0    0 -0.19532129729E+02  0.23433184158E+01  0.21964184930E+02  0.95239260457E+02  0.90559903267E+02 0.  0.
         23    2    1    2    0    0  0.48259420054E+02 -0.58981437436E+02 -0.52470346604E+02  0.13002921618E+03  0.91360156533E+02 0.  0.
        -11    1    3    3    0    0 -0.31594356447E+01  0.45366255606E+02  0.33971382307E+01  0.45602847822E+02  0.00000000000E+00 0.  1.
         11    1    3    3    0    0 -0.16372694084E+02 -0.43022937191E+02  0.18567046699E+02  0.49636412634E+02  0.00000000000E+00 0. -1.
        -13    1    4    4    0    0  0.11224812336E+01 -0.65297924993E+02 -0.96166486460E+01  0.66011808820E+02  0.00000000000E+00 0.  1.
         13    1    4    4    0    0  0.47136938820E+02  0.63164875576E+01 -0.42853697958E+02  0.64017407360E+02  0.00000000000E+00 0. -1.
         21    1    1    2  502  501 -0.28727290325E+02  0.56638119020E+02  0.14347274016E+03  0.15689984354E+03  0.00000000000E+00 0.  1.
<scales pt_clust_5="13000.00000" pt_clust_6="13000.00000" pt_clust_7="13000.00000" pt_clust_8="13000.00000" pt_clust_9="63.50696"></scales>
<clustering>
<clus scale="   63.507">  1  9  2 -1</clus>
<clus scale="   90.560">  5  6 -1 -1</clus>
<clus scale="   91.360">  7  8 -1 -1</clus>
<clus scale="  104.325">  1  5  2 -1</clus>
<clus scale="  105.020">  2  5  1 -1</clus>
</clustering>
</event>
<event>
 9    1  0.2423659E-006  0.1172500E+03  0.7546771E-02  0.1248455E+00
          1   -1    0    0  502    0  0.00000000000E+00  0.00000000000E+00  0.13949182328E+03  0.13949182328E+03  0.00000000000E+00 0. -1.
         -1   -1    0    0    0  501 -0.00000000000E+00 -0.00000000000E+00 -0.13967740389E+03  0.13967740389E+03  0.00000000000E+00 0.  1.
         23    2    1    2    0    0 -0.19806755194E+02  0.82133352487E+02 -0.19307890811E+02  0.12724204537E+03  0.93164093516E+02 0.  0.
         23    2    1    2    0    0  0.40754691967E+02 -0.51451627230E+02  0.23258803583E+02  0.11454677386E+03  0.90949307835E+02 0.  0.
        -11    1    3    3    0    0 -0.27859279279E+02  0.10087015862E+03 -0.11008658018E+02  0.10522413646E+03  0.00000000000E+00 0. -1.
         11    1    3    3    0    0  0.80525240842E+01 -0.18736806130E+02 -0.82992327930E+01  0.22017908916E+02  0.00000000000E+00 0.  1.
        -13    1    4    4    0    0 -0.16317970778E+02 -0.51383661351E+02  0.30386801852E+01  0.53998059238E+02  0.00000000000E+00 0. -1.
         13    1    4    4    0    0  0.57072662745E+02 -0.67965879050E-01  0.20220123398E+02  0.60548714622E+02  0.00000000000E+00 0.  1.
         21    1    1    2  502  501 -0.20947936772E+02 -0.30681725257E+02 -0.41364933865E+01  0.37380407934E+02  0.00000000000E+00 0.  1.
<scales pt_clust_5="13000.00000" pt_clust_6="13000.00000" pt_clust_7="13000.00000" pt_clust_8="13000.00000" pt_clust_9="37.15083"></scales>
<clustering>
<clus scale="   37.151">  2  9  1 -1</clus>
<clus scale="   90.949">  7  8 -1 -1</clus>
<clus scale="   93.164">  5  6 -1 -1</clus>
<clus scale="  115.498">  1  7  2 -1</clus>
<clus scale="  115.498">  1  5  2 -1</clus>
</clustering>
</event>
<event>
 9    1  0.2423659E-006  0.9382730E+02  0.7546771E-02  0.1294673E+00
         -4   -1    0    0    0  501 -0.00000000000E+00  0.00000000000E+00  0.42132017645E+03  0.42132017645E+03  0.00000000000E+00 0.  1.
          4   -1    0    0  502    0  0.00000000000E+00 -0.00000000000E+00 -0.82325177866E+02  0.82325177866E+02  0.00000000000E+00 0. -1.
         23    2    1    2    0    0  0.51802578661E+01  0.18032727065E+02  0.28726623503E+03  0.30171277400E+03  0.90314416845E+02 0.  0.
         23    2    1    2    0    0  0.64009695117E+02 -0.29053380470E+02  0.13239716269E+01  0.11562297804E+03  0.91790959054E+02 0.  0.
        -11    1    4    4    0    0  0.46161238290E+02 -0.59399786739E+02  0.16936145639E+02  0.77110489650E+02  0.00000000000E+00 0. -1.
         11    1    4    4    0    0  0.17848456828E+02  0.30346406269E+02 -0.15612174012E+02  0.38512488389E+02  0.00000000000E+00 0.  1.
        -13    1    3    3    0    0  0.32818022457E+02 -0.21770703840E+02  0.17600052688E+03  0.18035290850E+03  0.00000000000E+00 0. -1.
         13    1    3    3    0    0 -0.27637764591E+02  0.39803430905E+02  0.11126570815E+03  0.12135986550E+03  0.00000000000E+00 0.  1.
         21    1    1    2  502  501 -0.69189952984E+02  0.11020653405E+02  0.50404791922E+02  0.86309602270E+02  0.00000000000E+00 0.  1.
<scales pt_clust_5="13000.00000" pt_clust_6="13000.00000" pt_clust_7="13000.00000" pt_clust_8="13000.00000" pt_clust_9="70.06215"></scales>
<clustering>
<clus scale="   70.062">  2  9  1 -1</clus>
<clus scale="   90.314">  7  8 -1 -1</clus>
<clus scale="   91.791">  5  6 -1 -1</clus>
<clus scale="   92.383">  1  7  2 -1</clus>
<clus scale="   70.062">  2  5  1 -1</clus>
</clustering>
</event>
<event>
 9    1  0.2423659E-006  0.2483858E+03  0.7546771E-02  0.1148476E+00
         -2   -1    0    0    0  501 -0.00000000000E+00  0.00000000000E+00  0.94900677047E+02  0.94900677047E+02  0.00000000000E+00 0.  1.
          2   -1    0    0  502    0  0.00000000000E+00 -0.00000000000E+00 -0.10957150921E+04  0.10957150921E+04  0.00000000000E+00 0. -1.
         23    2    1    2    0    0  0.10018127781E+02 -0.56694789672E+02 -0.87847813894E+02  0.13889672252E+03  0.90886737543E+02 0.  0.
         23    2    1    2    0    0  0.22254727505E+03 -0.30095038193E+02 -0.63136811680E+03  0.67633011871E+03  0.91453428625E+02 0.  0.
        -11    1    4    4    0    0  0.53703293027E+02 -0.98532311111E+01 -0.64510884360E+02  0.84514993026E+02  0.00000000000E+00 0.  1.
         11    1    4    4    0    0  0.16884398202E+03 -0.20241807082E+02 -0.56685723244E+03  0.59181512569E+03  0.00000000000E+00 0. -1.
        -13    1    3    3    0    0 -0.20975048962E+02 -0.68974740874E+02 -0.46522475379E+02  0.85800980606E+02  0.00000000000E+00 0.  1.
         13    1    3    3    0    0  0.30993176743E+02  0.12279951203E+02 -0.41325338515E+02  0.53095741915E+02  0.00000000000E+00 0. -1.
         21    1    1    2  502  501 -0.23256540283E+03  0.86789827865E+02 -0.28159848439E+03  0.37538892794E+03  0.00000000000E+00 0.  1.
<scales pt_clust_5="13000.00000" pt_clust_6="13000.00000" pt_clust_7="13000.00000" pt_clust_8="13000.00000" pt_clust_9="230.93672"></scales>
<clustering>
<clus scale="   90.887">  7  8 -1 -1</clus>
<clus scale="   91.453">  5  6 -1 -1</clus>
<clus scale="  107.587">  1  7  2 -1</clus>
<clus scale="  230.937">  1  9  2 -1</clus>
<clus scale="  248.386">  2  5  1 -1</clus>
</clustering>
</event>
<event>
 9    1  0.2423659E-006  0.1143967E+03  0.7546771E-02  0.1252641E+00
          2   -1    0    0  502    0  0.00000000000E+00  0.00000000000E+00  0.39544158198E+03  0.39544158198E+03  0.00000000000E+00 0. -1.
         -2   -1    0    0    0  501 -0.00000000000E+00 -0.00000000000E+00 -0.87842077055E+02  0.87842077055E+02  0.00000000000E+00 0.  1.
         23    2    1    2    0    0  0.18468849382E+02  0.59689688674E+02  0.37635852420E+02  0.11695156533E+03  0.91418017450E+02 0.  0.
         23    2    1    2    0    0  0.69875540347E+02 -0.80431751801E+02  0.95864430275E+02  0.17000200543E+03  0.91426664726E+02 0.  0.
        -11    1    4    4    0    0  0.14424470186E+02 -0.74026596360E+02  0.24288767396E+02  0.79233493741E+02  0.00000000000E+00 0. -1.
         11    1    4    4    0    0  0.55451070162E+02 -0.64051554406E+01  0.71575662879E+02  0.90768511693E+02  0.00000000000E+00 0.  1.
        -13    1    3    3    0    0  0.44634468704E+02  0.66113196968E+01 -0.29120862113E+01  0.45215324733E+02  0.00000000000E+00 0.  1.
         13    1    3    3    0    0 -0.26165619322E+02  0.53078368977E+02  0.40547938631E+02  0.71736240598E+02  0.00000000000E+00 0. -1.
         21    1    1    2  502  501 -0.88344389729E+02  0.20742063127E+02  0.17409922223E+03  0.19633008827E+03  0.00000000000E+00 0. -1.
<scales pt_clust_5="13000.00000" pt_clust_6="13000.00000" pt_clust_7="13000.00000" pt_clust_8="13000.00000" pt_clust_9="90.74670"></scales>
<clustering>
<clus scale="   90.747">  1  9  2 -1</clus>
<clus scale="   91.418">  7  8 -1 -1</clus>
<clus scale="   91.427">  5  6 -1 -1</clus>
<clus scale="  114.390">  2  7  1 -1</clus>
<clus scale="   90.747">  1  5  2 -1</clus>
</clustering>
</event>
<event>
 9    1  0.2423659E-006  0.1060916E+03  0.7546771E-02  0.1268051E+00
          2   -1    0    0  502    0  0.00000000000E+00  0.00000000000E+00  0.84233585448E+02  0.84233585448E+02  0.00000000000E+00 0. -1.
         -2   -1    0    0    0  501 -0.00000000000E+00 -0.00000000000E+00 -0.57210889442E+03  0.57210889442E+03  0.00000000000E+00 0.  1.
         23    2    1    2    0    0 -0.69479039651E+02  0.59168884273E+02 -0.39124402092E+03  0.41215666428E+03  0.92048564274E+02 0.  0.
         23    2    1    2    0    0  0.11527786425E+02 -0.49037305540E+02  0.26179161950E+02  0.10801165039E+03  0.91889177303E+02 0.  0.
        -11    1    4    4    0    0  0.51266555760E+02 -0.24479492743E+02  0.60073119716E+01  0.57127866244E+02  0.00000000000E+00 0.  1.
         11    1    4    4    0    0 -0.39738769335E+02 -0.24557812798E+02  0.20171849979E+02  0.50883784148E+02  0.00000000000E+00 0. -1.
        -13    1    3    3    0    0 -0.33075703500E+02  0.76705963430E+00 -0.30801003784E+02  0.45202791690E+02  0.00000000000E+00 0. -1.
         13    1    3    3    0    0 -0.36403336151E+02  0.58401824638E+02 -0.36044301714E+03  0.36695387259E+03  0.00000000000E+00 0.  1.
         21    1    1    2  502  501  0.57951253226E+02 -0.10131578732E+02 -0.12281045000E+03  0.13617416520E+03  0.00000000000E+00 0.  1.
<scales pt_clust_5="13000.00000" pt_clust_6="13000.00000" pt_clust_7="13000.00000" pt_clust_8="13000.00000" pt_clust_9="58.83024"></scales>
<clustering>
<clus scale="   58.830">  2  9  1 -1</clus>
<clus scale="   91.889">  5  6 -1 -1</clus>
<clus scale="   92.049">  7  8 -1 -1</clus>
<clus scale="  105.953">  1  5  2 -1</clus>
<clus scale="  105.953">  1  5  2 -1</clus>
</clustering>
</event>
<event>
 9    1  0.2423659E-006  0.1037800E+03  0.7546771E-02  0.1274125E+00
          4   -1    0    0  502    0  0.00000000000E+00  0.00000000000E+00  0.64388328372E+02  0.64388328372E+02  0.00000000000E+00 0. -1.
         -4   -1    0    0    0  501 -0.00000000000E+00 -0.00000000000E+00 -0.22322335520E+03  0.22322335520E+03  0.00000000000E+00 0.  1.
         23    2    1    2    0    0 -0.49413203842E+02 -0.46478813727E+01 -0.88102480582E+02  0.13778201016E+03  0.93587219878E+02 0.  0.
         23    2    1    2    0    0  0.37914140580E+02  0.21431610574E+02 -0.30324075218E+02  0.10458846926E+03  0.90124371717E+02 0.  0.
        -13    1    4    4    0    0 -0.12116512576E+02 -0.27537343740E+02 -0.87143291509E+01  0.31321792890E+02  0.00000000000E+00 0.  1.
         13    1    4    4    0    0  0.50030653156E+02  0.48968954314E+02 -0.21609746067E+02  0.73266676374E+02  0.00000000000E+00 0. -1.
        -13    1    3    3    0    0 -0.17863428829E+02 -0.47918321381E+02 -0.53577445395E+02  0.74066255937E+02  0.00000000000E+00 0.  1.
         13    1    3    3    0    0 -0.31549775012E+02  0.43270440008E+02 -0.34525035187E+02  0.63715754225E+02  0.00000000000E+00 0. -1.
         21    1    1    2  502  501  0.11499063262E+02 -0.16783729201E+02 -0.40408471029E+02  0.45241204147E+02  0.00000000000E+00 0.  1.
<scales pt_clust_5="13000.00000" pt_clust_6="13000.00000" pt_clust_7="13000.00000" pt_clust_8="13000.00000" pt_clust_9="20.34507"></scales>
<clustering>
<clus scale="   20.345">  2  9  1 -1</clus>
<clus scale="   90.124">  5  6 -1 -1</clus>
<clus scale="   93.587">  7  8 -1 -1</clus>
<clus scale="  100.668">  1  5  2 -1</clus>
<clus scale="  100.668">  1  5  2 -1</clus>
</clustering>
</event>
<event>
 9    1  0.2423659E-006  0.1135228E+03  0.7546771E-02  0.1254647E+00
         -2   -1    0    0    0  501 -0.00000000000E+00  0.00000000000E+00  0.33403024962E+03  0.33403024962E+03  0.00000000000E+00 0.  1.
          2   -1    0    0  502    0  0.00000000000E+00 -0.00000000000E+00 -0.52506412157E+03  0.52506412157E+03  0.00000000000E+00 0. -1.
         23    2    1    2    0    0 -0.36170528749E+02 -0.62612174297E+02  0.16864296189E+03  0.20450277038E+03  0.90290326057E+02 0.  0.
         23    2    1    2    0    0 -0.45998395877E+02  0.73691669434E+02  0.11618484669E+03  0.17156072564E+03  0.91585203024E+02 0.  0.
        -11    1    3    3    0    0 -0.55662078978E+02 -0.23427027265E+02  0.13925471538E+03  0.15178592951E+03  0.00000000000E+00 0.  1.
         11    1    3    3    0    0  0.19491550230E+02 -0.39185147032E+02  0.29388246505E+02  0.52716840866E+02  0.00000000000E+00 0. -1.
        -11    1    4    4    0    0 -0.67024887285E+02  0.50423959785E+02  0.48313123793E+02  0.96793952118E+02  0.00000000000E+00 0.  1.
         11    1    4    4    0    0  0.21026491408E+02  0.23267709650E+02  0.67871722897E+02  0.74766773518E+02  0.00000000000E+00 0. -1.
         21    1    1    2  502  501  0.82168924625E+02 -0.11079495138E+02 -0.47586168052E+03  0.48303087518E+03  0.00000000000E+00 0. -1.
<scales pt_clust_5="13000.00000" pt_clust_6="13000.00000" pt_clust_7="13000.00000" pt_clust_8="13000.00000" pt_clust_9="82.91253"></scales>
<clustering>
<clus scale="   82.913">  2  9  1 -1</clus>
<clus scale="   90.290">  5  6 -1 -1</clus>
<clus scale="   91.585">  7  8 -1 -1</clus>
<clus scale="  112.481">  1  5  2 -1</clus>
<clus scale="   82.913">  2  5  1 -1</clus>
</clustering>
</event>
<event>
 9    1  0.2423659E-006  0.9902345E+02  0.7546771E-02  0.1284603E+00
         -2   -1    0    0    0  501 -0.00000000000E+00  0.00000000000E+00  0.15696931938E+02  0.15696931938E+02  0.00000000000E+00 0.  1.
          2   -1    0    0  502    0  0.00000000000E+00 -0.00000000000E+00 -0.80034099044E+03  0.80034099044E+03  0.00000000000E+00 0. -1.
         23    2    1    2    0    0  0.39406552296E+02  0.61543901647E+01 -0.36606397551E+03  0.38048852868E+03  0.95801531347E+02 0.  0.
         23    2    1    2    0    0 -0.11665899120E+02 -0.19453334043E+01 -0.32470472847E+03  0.33757060935E+03  0.91547135817E+02 0.  0.
        -13    1    4    4    0    0  0.94508233738E+01  0.38536721857E+02 -0.88420125304E+02  0.96914991372E+02  0.00000000000E+00 0.  1.
         13    1    4    4    0    0 -0.21116722493E+02 -0.40482055261E+02 -0.23628460317E+03  0.24065561797E+03  0.00000000000E+00 0. -1.
        -13    1    3    3    0    0 -0.11907821576E+02  0.28281236411E+02 -0.44188722633E+02  0.53798399192E+02  0.00000000000E+00 0. -1.
         13    1    3    3    0    0  0.51314373872E+02 -0.22126846246E+02 -0.32187525287E+03  0.32669012948E+03  0.00000000000E+00 0.  1.
         21    1    1    2  502  501 -0.27740653177E+02 -0.42090567604E+01 -0.93875354524E+02  0.97978784359E+02  0.00000000000E+00 0. -1.
<scales pt_clust_5="13000.00000" pt_clust_6="13000.00000" pt_clust_7="13000.00000" pt_clust_8="13000.00000" pt_clust_9="28.05815"></scales>
<clustering>
<clus scale="   28.058">  1  9  2 -1</clus>
<clus scale="   91.547">  5  6 -1 -1</clus>
<clus scale="   94.914">  2  5  1 -1</clus>
<clus scale="   95.802">  7  8 -1 -1</clus>
<clus scale="   94.914">  2  5  1 -1</clus>
</clustering>
</event>
<event>
 9    1  0.2423659E-006  0.1073161E+03  0.7546771E-02  0.1266672E+00
         -2   -1    0    0    0  501 -0.00000000000E+00  0.00000000000E+00  0.11672918718E+03  0.11672918718E+03  0.00000000000E+00 0.  1.
          2   -1    0    0  502    0  0.00000000000E+00 -0.00000000000E+00 -0.37600034639E+03  0.37600034639E+03  0.00000000000E+00 0. -1.
         23    2    1    2    0    0 -0.16402854034E+02  0.44068126232E+02  0.13279176665E+02  0.10403533306E+03  0.91847485661E+02 0.  0.
         23    2    1    2    0    0  0.61908605279E+02  0.11834794566E+02 -0.29385775709E+03  0.31352827639E+03  0.89302076833E+02 0.  0.
        -13    1    4    4    0    0  0.63224363268E+02 -0.21726994712E+02 -0.12911234906E+03  0.14539388258E+03  0.00000000000E+00 0.  1.
         13    1    4    4    0    0 -0.13157579892E+01  0.33561789278E+02 -0.16474540803E+03  0.16813439382E+03  0.00000000000E+00 0. -1.
        -13    1    3    3    0    0 -0.39828675638E+02  0.61994778817E+02  0.94831009066E+01  0.74294045565E+02  0.00000000000E+00 0. -1.
         13    1    3    3    0    0  0.23425821605E+02 -0.17926652585E+02  0.37960757587E+01  0.29741287496E+02  0.00000000000E+00 0.  1.
         21    1    1    2  502  501 -0.45505751245E+02 -0.55902920798E+02  0.21307421209E+02  0.75165924119E+02  0.00000000000E+00 0.  1.
<scales pt_clust_5="13000.00000" pt_clust_6="13000.00000" pt_clust_7="13000.00000" pt_clust_8="13000.00000" pt_clust_9="72.08266"></scales>
<clustering>
<clus scale="   72.083">  1  9  2 -1</clus>
<clus scale="   89.302">  5  6 -1 -1</clus>
<clus scale="   91.847">  7  8 -1 -1</clus>
<clus scale="  105.146">  2  5  1 -1</clus>
<clus scale="  105.146">  2  5  1 -1</clus>
</clustering>
</event>
<event>
 9    1  0.2423659E-006  0.1372540E+03  0.7546771E-02  0.1218296E+00
          2   -1    0    0  502    0  0.00000000000E+00  0.00000000000E+00  0.64027999589E+03  0.64027999589E+03  0.00000000000E+00 0. -1.
         -2   -1    0    0    0  501 -0.00000000000E+00 -0.00000000000E+00 -0.76689811685E+02  0.76689811685E+02  0.00000000000E+00 0.  1.
         23    2    1    2    0    0  0.84490137479E+02 -0.50225355649E+02  0.78623430051E+01  0.13373993060E+03  0.90351441153E+02 0.  0.
         23    2    1    2    0    0 -0.10038598412E+03  0.26627175042E+02  0.38249212340E+03  0.40767314543E+03  0.95450598653E+02 0.  0.
        -11    1    3    3    0    0  0.15710970243E+02 -0.29472242808E+02  0.42443541896E+02  0.54008350566E+02  0.00000000000E+00 0. -1.
         11    1    3    3    0    0  0.68779167236E+02 -0.20753112842E+02 -0.34581198891E+02  0.79731580036E+02  0.00000000000E+00 0.  1.
        -11    1    4    4    0    0 -0.83641269518E+02 -0.61176214025E+01  0.34541210928E+03  0.35544734138E+03  0.00000000000E+00 0.  1.
         11    1    4    4    0    0 -0.16744714604E+02  0.32744796445E+02  0.37080014120E+02  0.52225804049E+02  0.00000000000E+00 0. -1.
         21    1    1    2  502  501  0.15895846643E+02  0.23598180607E+02  0.17323571781E+03  0.17555673155E+03  0.00000000000E+00 0. -1.
<scales pt_clust_5="13000.00000" pt_clust_6="13000.00000" pt_clust_7="13000.00000" pt_clust_8="13000.00000" pt_clust_9="28.45263"></scales>
<clustering>
<clus scale="   28.453">  1  9  2 -1</clus>
<clus scale="   90.351">  5  6 -1 -1</clus>
<clus scale="   95.451">  7  8 -1 -1</clus>
<clus scale="  133.758">  2  5  1 -1</clus>
<clus scale="   28.453">  1  5  2 -1</clus>
</clustering>
</event>
<event>
 9    1  0.2423659E-006  0.1098861E+03  0.7546771E-02  0.1261457E+00
         -1   -1    0    0    0  501 -0.00000000000E+00  0.00000000000E+00  0.41532961655E+03  0.41532961655E+03  0.00000000000E+00 0.  1.
          1   -1    0    0  502    0  0.00000000000E+00 -0.00000000000E+00 -0.83296913113E+02  0.83296913113E+02  0.00000000000E+00 0. -1.
         23    2    1    2    0    0  0.36351101901E+02  0.58037038925E+02  0.24621406788E+03  0.27176675824E+03  0.92445135989E+02 0.  0.
         23    2    1    2    0    0  0.29853778674E+02 -0.57841375238E+02  0.10965304763E+03  0.15649498126E+03  0.90719432944E+02 0.  0.
        -11    1    4    4    0    0  0.51042782295E+02 -0.70370640821E+02  0.88222779840E+02  0.12385738410E+03  0.00000000000E+00 0. -1.
         11    1    4    4    0    0 -0.21189003621E+02  0.12529265582E+02  0.21430267786E+02  0.32637597153E+02  0.00000000000E+00 0.  1.
        -13    1    3    3    0    0 -0.41429057798E+01 -0.23577349906E+02  0.51509364926E+02  0.56800262077E+02  0.00000000000E+00 0. -1.
         13    1    3    3    0    0  0.40494007680E+02  0.81614388831E+02  0.19470470295E+03  0.21496649617E+03  0.00000000000E+00 0.  1.
         21    1    1    2  502  501 -0.66204880575E+02 -0.19566368645E+00 -0.23834412070E+02  0.70364790164E+02  0.00000000000E+00 0. -1.
<scales pt_clust_5="13000.00000" pt_clust_6="13000.00000" pt_clust_7="13000.00000" pt_clust_8="13000.00000" pt_clust_9="66.20517"></scales>
<clustering>
<clus scale="   66.205">  2  9  1 -1</clus>
<clus scale="   90.719">  5  6 -1 -1</clus>
<clus scale="   92.445">  7  8 -1 -1</clus>
<clus scale="  108.438">  2  5  1 -1</clus>
<clus scale="   66.205">  2  5  1 -1</clus>
</clustering>
</event>
<event>
 9    1  0.2423659E-006  0.1198486E+03  0.7546771E-02  0.1243818E+00
          2   -1    0    0  502    0  0.00000000000E+00  0.00000000000E+00  0.44382300950E+03  0.44382300950E+03  0.00000000000E+00 0. -1.
         -2   -1    0    0    0  501 -0.00000000000E+00 -0.00000000000E+00 -0.61227539303E+02  0.61227539303E+02  0.00000000000E+00 0.  1.
         23    2    1    2    0    0 -0.82612875257E+01 -0.78396692689E+02  0.12048989673E+03  0.17006640655E+03  0.90501254835E+02 0.  0.
         23    2    1    2    0    0 -0.44380634144E+02  0.69264597297E+02  0.25202275939E+03  0.28061291619E+03  0.91983217804E+02 0.  0.
        -13    1    3    3    0    0 -0.36543470840E+02 -0.79724755534E+02  0.70129238432E+02  0.11229235054E+03  0.00000000000E+00 0.  1.
         13    1    3    3    0    0  0.28282183314E+02  0.13280628452E+01  0.50360658302E+02  0.57774056016E+02  0.00000000000E+00 0. -1.
        -13    1    4    4    0    0  0.18703410781E+02  0.55656333451E+02  0.12703575542E+03  0.13994830539E+03  0.00000000000E+00 0. -1.
         13    1    4    4    0    0 -0.63084044925E+02  0.13608263845E+02  0.12498700397E+03  0.14066461080E+03  0.00000000000E+00 0.  1.
         21    1    1    2  502  501  0.52641921669E+02  0.91320953923E+01  0.10082814072E+02  0.54371226057E+02  0.00000000000E+00 0. -1.
<scales pt_clust_5="13000.00000" pt_clust_6="13000.00000" pt_clust_7="13000.00000" pt_clust_8="13000.00000" pt_clust_9="53.42815"></scales>
<clustering>
<clus scale="   53.428">  2  9  1 -1</clus>
<clus scale="   90.501">  5  6 -1 -1</clus>
<clus scale="   91.983">  7  8 -1 -1</clus>
<clus scale="  118.715">  2  5  1 -1</clus>
<clus scale="  119.849">  1  5  2 -1</clus>
</clustering>
</event>
<event>
 9    1  0.2423659E-006  0.1153737E+03  0.7546771E-02  0.1260425E+00
          2   -1    0    0  502    0  0.00000000000E+00  0.00000000000E+00  0.45056838409E+03  0.45056838409E+03  0.00000000000E+00 0. -1.
         -2   -1    0    0    0  501 -0.00000000000E+00 -0.00000000000E+00 -0.32493107848E+02  0.32493107848E+02  0.00000000000E+00 0.  1.
         23    2    1    2    0    0  0.22041132267E+02  0.61861908192E+02  0.15979608657E+03  0.18469742066E+03  0.65311872729E+02 0.  0.
         23    2    1    2    0    0 -0.42465061858E+02 -0.62422072439E+02  0.24898928256E+03  0.27591962746E+03  0.91848687438E+02 0.  0.
        -11    1    3    3    0    0  0.43681966255E+01  0.33881785528E+02  0.17079054383E+02  0.38193594109E+02  0.00000000000E+00 0.  1.
         11    1    3    3    0    0  0.17672935641E+02  0.27980122664E+02  0.14271703219E+03  0.14650382655E+03  0.00000000000E+00 0. -1.
        -11    1    4    4    0    0 -0.71109548841E+02 -0.39409702197E+02  0.15553593498E+03  0.17550247757E+03  0.00000000000E+00 0.  1.
         11    1    4    4    0    0  0.28644486983E+02 -0.23012370243E+02  0.93453347580E+02  0.10041714989E+03  0.00000000000E+00 0. -1.
         21    1    1    2  502  501  0.20423929591E+02  0.56016424729E+00  0.92899071150E+01  0.22444443814E+02  0.00000000000E+00 0.  1.
<scales pt_clust_5="13000.00000" pt_clust_6="13000.00000" pt_clust_7="13000.00000" pt_clust_8="13000.00000" pt_clust_9="20.43161"></scales>
<clustering>
<clus scale="   20.432">  2  9  1 -1</clus>
<clus scale="   65.312">  5  6 -1 -1</clus>
<clus scale="   91.849">  7  8 -1 -1</clus>
<clus scale="   95.606">  2  5  1 -1</clus>
<clus scale="  115.374">  1  5  2 -1</clus>
</clustering>
</event>
<event>
 9    1  0.2423659E-006  0.9946353E+02  0.7546771E-02  0.1282389E+00
         -1   -1    0    0    0  501 -0.00000000000E+00  0.00000000000E+00  0.11886435054E+03  0.11886435054E+03  0.00000000000E+00 0.  1.
          1   -1    0    0  502    0  0.00000000000E+00 -0.00000000000E+00 -0.24227196604E+03  0.24227196604E+03  0.00000000000E+00 0. -1.
         23    2    1    2    0    0 -0.22403597194E+02  0.39851975515E+02 -0.13177180096E+02  0.10397276556E+03  0.92447805725E+02 0.  0.
         23    2    1    2    0    0  0.40985174249E+02  0.21327419900E+02 -0.15050245987E+03  0.18159881464E+03  0.90512406356E+02 0.  0.
        -11    1    4    4    0    0  0.69401739598E+02  0.22834360050E+02 -0.10455095283E+03  0.12754964208E+03  0.00000000000E+00 0.  1.
         11    1    4    4    0    0 -0.28416565349E+02 -0.15069401495E+01 -0.45951507038E+02  0.54049172556E+02  0.00000000000E+00 0. -1.
        -11    1    3    3    0    0  0.12355948880E+02  0.53320741488E+02  0.15561909622E+02  0.56902934693E+02  0.00000000000E+00 0.  1.
         11    1    3    3    0    0 -0.34759546074E+02 -0.13468765973E+02 -0.28739089718E+02  0.47069830868E+02  0.00000000000E+00 0. -1.
         21    1    1    2  502  501 -0.18581577055E+02 -0.61179395415E+02  0.40272024462E+02  0.75564736375E+02  0.00000000000E+00 0.  1.
<scales pt_clust_5="13000.00000" pt_clust_6="13000.00000" pt_clust_7="13000.00000" pt_clust_8="13000.00000" pt_clust_9="63.93898"></scales>
<clustering>
<clus scale="   63.939">  1  9  2 -1</clus>
<clus scale="   90.512">  5  6 -1 -1</clus>
<clus scale="   92.448">  7  8 -1 -1</clus>
<clus scale="   97.667">  2  5  1 -1</clus>
<clus scale="   97.667">  2  5  1 -1</clus>
</clustering>
</event>
<event>
 9    1  0.2423659E-006  0.9680636E+02  0.7546771E-02  0.1288550E+00
          2   -1    0    0  502    0  0.00000000000E+00  0.00000000000E+00  0.85341277690E+02  0.85341277690E+02  0.00000000000E+00 0. -1.
         -2   -1    0    0    0  501 -0.00000000000E+00 -0.00000000000E+00 -0.20068986333E+03  0.20068986333E+03  0.00000000000E+00 0.  1.
         23    2    1    2    0    0 -0.25123035522E+02 -0.32449994083E+01 -0.10140109593E+03  0.13793729366E+03  0.90015653040E+02 0.  0.
         23    2    1    2    0    0  0.22445958750E+02  0.44293693163E+02 -0.14837691529E+01  0.10511121913E+03  0.92630526813E+02 0.  0.
        -11    1    3    3    0    0 -0.47089167827E+02 -0.32125559377E+02 -0.66552030212E+02  0.87627701198E+02  0.00000000000E+00 0.  1.
         11    1    3    3    0    0  0.21966132305E+02  0.28880559969E+02 -0.34849065721E+02  0.50309592467E+02  0.00000000000E+00 0. -1.
        -13    1    4    4    0    0  0.34720788776E+02 -0.18468697018E+02  0.89015343485E+01  0.40321994699E+02  0.00000000000E+00 0.  1.
         13    1    4    4    0    0 -0.12274830026E+02  0.62762390181E+02 -0.10385303501E+02  0.64789224429E+02  0.00000000000E+00 0. -1.
         21    1    1    2  502  501  0.26770767717E+01 -0.41048693755E+02 -0.12463720551E+02  0.42982628223E+02  0.00000000000E+00 0. -1.
<scales pt_clust_5="13000.00000" pt_clust_6="13000.00000" pt_clust_7="13000.00000" pt_clust_8="13000.00000" pt_clust_9="41.13590"></scales>
<clustering>
<clus scale="   41.136">  1  9  2 -1</clus>
<clus scale="   90.016">  5  6 -1 -1</clus>
<clus scale="   92.631">  7  8 -1 -1</clus>
<clus scale="   94.307">  2  5  1 -1</clus>
<clus scale="   41.136">  1  5  2 -1</clus>
</clustering>
</event>
<event>
 9    1  0.2423659E-006  0.9218717E+02  0.7546771E-02  0.1298481E+00
         -2   -1    0    0    0  501 -0.00000000000E+00  0.00000000000E+00  0.10143568162E+03  0.10143568162E+03  0.00000000000E+00 0.  1.
          2   -1    0    0  502    0  0.00000000000E+00 -0.00000000000E+00 -0.25651664489E+03  0.25651664489E+03  0.00000000000E+00 0. -1.
         23    2    1    2    0    0 -0.50991702100E+02 -0.32858425273E+02  0.18827341496E+01  0.10847801427E+03  0.89911651625E+02 0.  0.
         23    2    1    2    0    0 -0.24899954743E+02  0.23440656947E+01 -0.13477013501E+03  0.16472041009E+03  0.91347259501E+02 0.  0.
        -11    1    4    4    0    0 -0.46686468788E+02 -0.29156681341E+02 -0.92840181529E+02  0.10793070805E+03  0.00000000000E+00 0.  1.
         11    1    4    4    0    0  0.21786514045E+02  0.31500747036E+02 -0.41929953480E+02  0.56789702032E+02  0.00000000000E+00 0. -1.
        -11    1    3    3    0    0  0.25110954812E+02 -0.11952258312E+02  0.90134118687E+01  0.29234536491E+02  0.00000000000E+00 0. -1.
         11    1    3    3    0    0 -0.76102656912E+02 -0.20906166961E+02 -0.71306777192E+01  0.79243477780E+02  0.00000000000E+00 0.  1.
         21    1    1    2  502  501  0.75891656843E+02  0.30514359578E+02 -0.22193562412E+02  0.84753902160E+02  0.00000000000E+00 0.  1.
<scales pt_clust_5="13000.00000" pt_clust_6="13000.00000" pt_clust_7="13000.00000" pt_clust_8="13000.00000" pt_clust_9="81.79651"></scales>
<clustering>
<clus scale="   81.797">  1  9  2 -1</clus>
<clus scale="   89.912">  7  8 -1 -1</clus>
<clus scale="   90.765">  1  7  2 -1</clus>
<clus scale="   91.347">  5  6 -1 -1</clus>
<clus scale="   92.187">  2  5  1 -1</clus>
</clustering>
</event>
<event>
 9    1  0.2423659E-006  0.1021540E+03  0.7546771E-02  0.1276642E+00
         -3   -1    0    0    0  501 -0.00000000000E+00  0.00000000000E+00  0.25213251394E+03  0.25213251394E+03  0.00000000000E+00 0.  1.
          3   -1    0    0  502    0  0.00000000000E+00 -0.00000000000E+00 -0.75516113204E+02  0.75516113204E+02  0.00000000000E+00 0. -1.
         23    2    1    2    0    0  0.42111252218E+02 -0.39423623574E+02  0.15880900703E+03  0.19226590192E+03  0.91751276114E+02 0.  0.
         23    2    1    2    0    0 -0.92384767708E+01  0.15402326117E+02  0.22245148061E+02  0.94427435441E+02  0.89995071248E+02 0.  0.
        -11    1    4    4    0    0 -0.21356187098E+02  0.49925087257E+02  0.19652771491E+02  0.57748008556E+02  0.00000000000E+00 0. -1.
         11    1    4    4    0    0  0.12117710328E+02 -0.34522761140E+02  0.25923765703E+01  0.36679426885E+02  0.00000000000E+00 0.  1.
        -13    1    3    3    0    0  0.60076033230E+02 -0.13741244027E+02  0.14587757140E+03  0.15836103496E+03  0.00000000000E+00 0.  1.
         13    1    3    3    0    0 -0.17964781012E+02 -0.25682379548E+02  0.12931435626E+02  0.33904866957E+02  0.00000000000E+00 0. -1.
         21    1    1    2  502  501 -0.32872775447E+02  0.24021297458E+02 -0.44377543569E+01  0.40955289779E+02  0.00000000000E+00 0. -1.
<scales pt_clust_5="13000.00000" pt_clust_6="13000.00000" pt_clust_7="13000.00000" pt_clust_8="13000.00000" pt_clust_9="40.71415"></scales>
<clustering>
<clus scale="   40.714">  2  9  1 -1</clus>
<clus scale="   89.995">  5  6 -1 -1</clus>
<clus scale="   91.751">  7  8 -1 -1</clus>
<clus scale="  100.580">  2  5  1 -1</clus>
<clus scale="   40.714">  2  5  1 -1</clus>
</clustering>
</event>
<event>
 9    1  0.2423659E-006  0.1816652E+03  0.7546771E-02  0.1166600E+00
          1   -1    0    0  502    0  0.00000000000E+00  0.00000000000E+00  0.82209408956E+03  0.82209408956E+03  0.00000000000E+00 0. -1.
         -1   -1    0    0    0  501 -0.00000000000E+00 -0.00000000000E+00 -0.90090215443E+02  0.90090215443E+02  0.00000000000E+00 0.  1.
         23    2    1    2    0    0  0.15607441376E+03  0.60654165010E+02  0.56200671538E+02  0.19826835045E+03  0.90075928771E+02 0.  0.
         23    2    1    2    0    0 -0.15482408123E+03 -0.23839930023E+02  0.63104147421E+03  0.65594644916E+03  0.86680814505E+02 0.  0.
        -11    1    4    4    0    0 -0.68792841012E+02 -0.33925458859E+02  0.16544146298E+03  0.18235753180E+03  0.00000000000E+00 0.  1.
         11    1    4    4    0    0 -0.86031240217E+02  0.10085528836E+02  0.46560001123E+03  0.47358891736E+03  0.00000000000E+00 0. -1.
        -11    1    3    3    0    0  0.15355008630E+03  0.26535324802E+02  0.43615595986E+02  0.16181493342E+03  0.00000000000E+00 0.  1.
         11    1    3    3    0    0  0.25243274621E+01  0.34118840208E+02  0.12585075552E+02  0.36453417027E+02  0.00000000000E+00 0. -1.
         21    1    1    2  502  501 -0.12503325332E+01 -0.36814234987E+02  0.44761728375E+02  0.57969505399E+02  0.00000000000E+00 0.  1.
<scales pt_clust_5="13000.00000" pt_clust_6="13000.00000" pt_clust_7="13000.00000" pt_clust_8="13000.00000" pt_clust_9="36.83546"></scales>
<clustering>
<clus scale="   36.835">  2  9  1 -1</clus>
<clus scale="   86.681">  5  6 -1 -1</clus>
<clus scale="   90.076">  7  8 -1 -1</clus>
<clus scale="  180.006">  1  5  2 -1</clus>
<clus scale="  180.006">  1  5  2 -1</clus>
</clustering>
</event>
<event>
 9    1  0.2423659E-006  0.1257131E+03  0.7546771E-02  0.1234200E+00
          1   -1    0    0  502    0  0.00000000000E+00  0.00000000000E+00  0.34361973787E+03  0.34361973787E+03  0.00000000000E+00 0. -1.
         -1   -1    0    0    0  501 -0.00000000000E+00 -0.00000000000E+00 -0.15541006268E+03  0.15541006268E+03  0.00000000000E+00 0.  1.
         23    2    1    2    0    0  0.13344470735E+02  0.18909885922E+02 -0.50703156159E+02  0.10710403788E+03  0.91459314454E+02 0.  0.
         23    2    1    2    0    0  0.27767704515E+02 -0.97066947660E+02  0.26680780662E+03  0.29931438703E+03  0.90607167846E+02 0.  0.
        -11    1    4    4    0    0  0.55093539884E+02 -0.52865683703E+02  0.10833520045E+03  0.13253902937E+03  0.00000000000E+00 0.  1.
         11    1    4    4    0    0 -0.27325835369E+02 -0.44201263956E+02  0.15847260617E+03  0.16677535766E+03  0.00000000000E+00 0. -1.
        -13    1    3    3    0    0  0.11953394379E+02 -0.29464370897E+02  0.62097067106E+01  0.32397426549E+02  0.00000000000E+00 0. -1.
         13    1    3    3    0    0  0.13910763557E+01  0.48374256819E+02 -0.56912862870E+02  0.74706611329E+02  0.00000000000E+00 0.  1.
         21    1    1    2  502  501 -0.41112175250E+02  0.78157061738E+02 -0.27894975275E+02  0.92611375645E+02  0.00000000000E+00 0.  1.
<scales pt_clust_5="13000.00000" pt_clust_6="13000.00000" pt_clust_7="13000.00000" pt_clust_8="13000.00000" pt_clust_9="88.31046"></scales>
<clustering>
<clus scale="   88.310">  2  9  1 -1</clus>
<clus scale="   90.607">  5  6 -1 -1</clus>
<clus scale="   91.459">  7  8 -1 -1</clus>
<clus scale="  125.094">  1  5  2 -1</clus>
<clus scale="  125.094">  1  5  2 -1</clus>
</clustering>
</event>
<event>
 9    1  0.2423659E-006  0.1643236E+03  0.7546771E-02  0.1201765E+00
          1   -1    0    0  502    0  0.00000000000E+00  0.00000000000E+00  0.51087478508E+03  0.51087478508E+03  0.00000000000E+00 0. -1.
         -1   -1    0    0    0  501 -0.00000000000E+00 -0.00000000000E+00 -0.92310737964E+02  0.92310737964E+02  0.00000000000E+00 0.  1.
         23    2    1    2    0    0  0.23669671084E+02  0.60463766336E+02  0.55799509829E+02  0.12418635209E+03  0.89958570357E+02 0.  0.
         23    2    1    2    0    0  0.77669871710E+02 -0.13818477227E+03  0.18869184219E+03  0.26310206380E+03  0.92143607525E+02 0.  0.
        -11    1    3    3    0    0  0.39861323895E+02  0.25311116614E+02 -0.96081952320E+01  0.48186047591E+02  0.00000000000E+00 0.  1.
         11    1    3    3    0    0 -0.16191652811E+02  0.35152649723E+02  0.65407705061E+02  0.76000304504E+02  0.00000000000E+00 0. -1.
        -11    1    4    4    0    0  0.32073014323E+02 -0.13361336771E+03  0.14552875851E+03  0.20014951869E+03  0.00000000000E+00 0.  1.
         11    1    4    4    0    0  0.45596857386E+02 -0.45714045634E+01  0.43163083682E+02  0.62952545112E+02  0.00000000000E+00 0. -1.
         21    1    1    2  502  501 -0.10133954279E+03  0.77721005935E+02  0.17407269510E+03  0.21589710715E+03  0.00000000000E+00 0. -1.
<scales pt_clust_5="13000.00000" pt_clust_6="13000.00000" pt_clust_7="13000.00000" pt_clust_8="13000.00000" pt_clust_9="136.05809"></scales>
<clustering>
<clus scale="   89.959">  5  6 -1 -1</clus>
<clus scale="   92.144">  7  8 -1 -1</clus>
<clus scale="  110.944">  2  5  1 -1</clus>
<clus scale="  136.058">  1  9  2 -1</clus>
<clus scale="  136.058">  1  5  2 -1</clus>
</clustering>
</event>
<event>
 9    1  0.2423659E-006  0.1949405E+03  0.7546771E-02  0.1154106E+00
         -3   -1    0    0    0  501 -0.00000000000E+00  0.00000000000E+00  0.92212368751E+02  0.92212368751E+02  0.00000000000E+00 0.  1.
          3   -1    0    0  502    0  0.00000000000E+00 -0.00000000000E+00 -0.72176826076E+03  0.72176826076E+03  0.00000000000E+00 0. -1.
         23    2    1    2    0    0 -0.59195787228E+02 -0.13943356149E+03 -0.21664115930E+03  0.27951407283E+03  0.90823266361E+02 0.  0.
         23    2    1    2    0    0  0.16508373242E+03  0.12697769039E+03 -0.23428540807E+03  0.32643809400E+03  0.91083501346E+02 0.  0.
        -13    1    4    4    0    0  0.13019470279E+03  0.46782770013E+02 -0.12485870199E+03  0.18635714010E+03  0.00000000000E+00 0. -1.
         13    1    4    4    0    0  0.34889029629E+02  0.80194920379E+02 -0.10942670608E+03  0.14008095390E+03  0.00000000000E+00 0.  1.
        -13    1    3    3    0    0 -0.13021809267E+02 -0.72101051907E+02 -0.17086917836E+03  0.18591504866E+03  0.00000000000E+00 0. -1.
         13    1    3    3    0    0 -0.46173977960E+02 -0.67332509579E+02 -0.45771980933E+02  0.93599024169E+02  0.00000000000E+00 0.  1.
         21    1    1    2  502  501 -0.10588794519E+03  0.12455871094E+02 -0.17862932465E+03  0.20802846268E+03  0.00000000000E+00 0.  1.
<scales pt_clust_5="13000.00000" pt_clust_6="13000.00000" pt_clust_7="13000.00000" pt_clust_8="13000.00000" pt_clust_9="106.61804"></scales>
<clustering>
<clus scale="   90.823">  7  8 -1 -1</clus>
<clus scale="   91.084">  5  6 -1 -1</clus>
<clus scale="  106.618">  2  9  1 -1</clus>
<clus scale="  194.819">  1  7  2 -1</clus>
<clus scale="  106.618">  2  5  1 -1</clus>
</clustering>
</event>
<event>
 9    1  0.2423659E-006  0.1767837E+03  0.7546771E-02  0.1171556E+00
         -1   -1    0    0    0  501 -0.00000000000E+00  0.00000000000E+00  0.19198756442E+03  0.19198756442E+03  0.00000000000E+00 0.  1.
          1   -1    0    0  502    0  0.00000000000E+00 -0.00000000000E+00 -0.32900226762E+03  0.32900226762E+03  0.00000000000E+00 0. -1.
         23    2    1    2    0    0 -0.19680096815E+03  0.51661399525E+02 -0.80238505301E+02  0.23557804830E+03  0.87517300253E+02 0.  0.
         23    2    1    2    0    0  0.11792053182E+03  0.40674833431E+02 -0.52897381716E+02  0.16390808681E+03  0.92239004924E+02 0.  0.
        -11    1    4    4    0    0  0.12825898126E+03  0.18257073865E+02 -0.50715811668E+02  0.13912505373E+03  0.00000000000E+00 0. -1.
         11    1    4    4    0    0 -0.10338449445E+02  0.22417759566E+02 -0.21815700481E+01  0.24783033082E+02  0.00000000000E+00 0.  1.
        -13    1    3    3    0    0 -0.95929064483E+02 -0.14092662120E+02 -0.13456834136E+02  0.97888073447E+02  0.00000000000E+00 0.  1.
         13    1    3    3    0    0 -0.10087190367E+03  0.65754061645E+02 -0.66781671165E+02  0.13768997486E+03  0.00000000000E+00 0. -1.
         21    1    1    2  502  501  0.78880436331E+02 -0.92336232955E+02 -0.38788161803E+01  0.12150369693E+03  0.00000000000E+00 0. -1.
<scales pt_clust_5="13000.00000" pt_clust_6="13000.00000" pt_clust_7="13000.00000" pt_clust_8="13000.00000" pt_clust_9="121.44177"></scales>
<clustering>
<clus scale="   87.517">  7  8 -1 -1</clus>
<clus scale="   92.239">  5  6 -1 -1</clus>
<clus scale="  121.442">  1  9  2 -1</clus>
<clus scale="  174.367">  1  7  2 -1</clus>
<clus scale="  176.784">  2  5  1 -1</clus>
</clustering>
</event>
<event>
 9    1  0.2423659E-006  0.2299471E+03  0.7546771E-02  0.1141831E+00
         -2   -1    0    0    0  501 -0.00000000000E+00  0.00000000000E+00  0.19482611008E+03  0.19482611008E+03  0.00000000000E+00 0. -1.
          2   -1    0    0  502    0  0.00000000000E+00 -0.00000000000E+00 -0.55353153491E+03  0.55353153491E+03  0.00000000000E+00 0.  1.
         23    2    1    2    0    0 -0.13873028775E+02  0.14949330340E+03 -0.16330401981E+03  0.24310872926E+03  0.99463272973E+02 0.  0.
         23    2    1    2    0    0 -0.11386025184E+03  0.62805530359E+02 -0.20245015749E+03  0.25738550433E+03  0.91392231517E+02 0.  0.
        -13    1    3    3    0    0 -0.62239598517E+01  0.10418856423E+03 -0.40439881393E+02  0.11193470685E+03  0.00000000000E+00 0. -1.
         13    1    3    3    0    0 -0.76490689230E+01  0.45304739177E+02 -0.12286413841E+03  0.13117402241E+03  0.00000000000E+00 0.  1.
        -13    1    4    4    0    0 -0.14747213505E+02 -0.23004803674E+02 -0.43176792289E+02  0.51097325670E+02  0.00000000000E+00 0.  1.
         13    1    4    4    0    0 -0.99113038332E+02  0.85810334033E+02 -0.15927336520E+03  0.20628817866E+03  0.00000000000E+00 0. -1.
         21    1    1    2  502  501  0.12773328061E+03 -0.21229883376E+03  0.70487524615E+01  0.24786341139E+03  0.00000000000E+00 0.  1.
<scales pt_clust_5="13000.00000" pt_clust_6="13000.00000" pt_clust_7="13000.00000" pt_clust_8="13000.00000" pt_clust_9="207.32271"></scales>
<clustering>
<clus scale="   91.392">  7  8 -1 -1</clus>
<clus scale="   99.463">  5  6 -1 -1</clus>
<clus scale="  158.938">  2  7  1 -1</clus>
<clus scale="  207.323">  1  9  2 -1</clus>
<clus scale="  158.938">  2  5  1 -1</clus>
</clustering>
</event>
<event>
 9    1  0.2423659E-006  0.1377977E+03  0.7546771E-02  0.1217023E+00
         -1   -1    0    0    0  501 -0.00000000000E+00  0.00000000000E+00  0.42613717281E+02  0.42613717281E+02  0.00000000000E+00 0.  1.
          1   -1    0    0  502    0  0.00000000000E+00 -0.00000000000E+00 -0.83775008728E+03  0.83775008728E+03  0.00000000000E+00 0. -1.
         23    2    1    2    0    0  0.49091465138E+02 -0.94790579543E+01 -0.11841376751E+03  0.15847344403E+03  0.92694053955E+02 0.  0.
         23    2    1    2    0    0 -0.13164479588E+03  0.21734288291E+02 -0.52068034008E+03  0.54493152140E+03  0.89663899639E+02 0.  0.
        -13    1    4    4    0    0 -0.83106335245E+02 -0.16932363637E+02 -0.40366613906E+03  0.41247996281E+03  0.00000000000E+00 0.  1.
         13    1    4    4    0    0 -0.48538460636E+02  0.38666651928E+02 -0.11701420102E+03  0.13245155859E+03  0.00000000000E+00 0. -1.
        -13    1    3    3    0    0  0.35812252542E+02  0.69880579994E+01 -0.12953365948E+03  0.13457458647E+03  0.00000000000E+00 0. -1.
         13    1    3    3    0    0  0.13279212596E+02 -0.16467115954E+02  0.11119891973E+02  0.23898857556E+02  0.00000000000E+00 0.  1.
         21    1    1    2  502  501  0.82553330743E+02 -0.12255230336E+02 -0.15604226241E+03  0.17695883913E+03  0.00000000000E+00 0.  1.
<scales pt_clust_5="13000.00000" pt_clust_6="13000.00000" pt_clust_7="13000.00000" pt_clust_8="13000.00000" pt_clust_9="83.45803"></scales>
<clustering>
<clus scale="   83.458">  1  9  2 -1</clus>
<clus scale="   89.664">  5  6 -1 -1</clus>
<clus scale="   92.694">  7  8 -1 -1</clus>
<clus scale="  135.778">  2  5  1 -1</clus>
<clus scale="  135.778">  2  5  1 -1</clus>
</clustering>
</event>
<event>
 9    1  0.2423659E-006  0.2121537E+03  0.7546771E-02  0.1153659E+00
         -2   -1    0    0    0  501 -0.00000000000E+00  0.00000000000E+00  0.46061345339E+03  0.46061345339E+03  0.00000000000E+00 0. -1.
          2   -1    0    0  502    0  0.00000000000E+00 -0.00000000000E+00 -0.43583758242E+03  0.43583758242E+03  0.00000000000E+00 0.  1.
         23    2    1    2    0    0 -0.15886033833E+03  0.11539275003E+03  0.34191775645E+03  0.40380183874E+03  0.87155487142E+02 0.  0.
         23    2    1    2    0    0 -0.41854839614E+02 -0.11607399347E+03 -0.54669664311E+02  0.16222717354E+03  0.90021575634E+02 0.  0.
        -11    1    3    3    0    0 -0.28145371658E+02  0.67625288883E+02  0.90421261483E+02  0.11636728995E+03  0.00000000000E+00 0. -1.
         11    1    3    3    0    0 -0.13071496667E+03  0.47767461149E+02  0.25149649496E+03  0.28743454878E+03  0.00000000000E+00 0.  1.
        -13    1    4    4    0    0 -0.31081502679E+02 -0.36621602237E+02  0.20589689762E+02  0.52260280172E+02  0.00000000000E+00 0. -1.
         13    1    4    4    0    0 -0.10773336935E+02 -0.79452391235E+02 -0.75259354073E+02  0.10996689337E+03  0.00000000000E+00 0.  1.
         21    1    1    2  502  501  0.20071517794E+03  0.68124343942E+00 -0.26247222117E+03  0.33042202353E+03  0.00000000000E+00 0.  1.
<scales pt_clust_5="13000.00000" pt_clust_6="13000.00000" pt_clust_7="13000.00000" pt_clust_8="13000.00000" pt_clust_9="193.42473"></scales>
<clustering>
<clus scale="   87.155">  5  6 -1 -1</clus>
<clus scale="   90.022">  7  8 -1 -1</clus>
<clus scale="  152.738">  2  7  1 -1</clus>
<clus scale="  193.425">  2  9  1 -1</clus>
<clus scale="  152.738">  2  5  1 -1</clus>
</clustering>
</event>
<event>
 9    1  0.2423659E-006  0.1230083E+03  0.7546771E-02  0.1238289E+00
          1   -1    0    0  502    0  0.00000000000E+00  0.00000000000E+00  0.35765507021E+03  0.35765507021E+03  0.00000000000E+00 0. -1.
         -1   -1    0    0    0  501 -0.00000000000E+00 -0.00000000000E+00 -0.28797509077E+03  0.28797509077E+03  0.00000000000E+00 0.  1.
         23    2    1    2    0    0  0.12278850650E+03  0.26608687413E+02  0.33242645368E+02  0.15894511873E+03  0.91506490055E+02 0.  0.
         23    2    1    2    0    0 -0.66534919488E+02  0.41470384845E+02  0.23796889392E+03  0.26665278156E+03  0.91256907184E+02 0.  0.
        -13    1    3    3    0    0  0.97710862876E+01  0.40408348840E+02  0.87639434148E+01  0.42486650697E+02  0.00000000000E+00 0.  1.
         13    1    3    3    0    0  0.11301742021E+03 -0.13799661427E+02  0.24478701953E+02  0.11645846803E+03  0.00000000000E+00 0. -1.
        -13    1    4    4    0    0 -0.43616810267E+02  0.70755546552E+02  0.16543864944E+03  0.18514513290E+03  0.00000000000E+00 0. -1.
         13    1    4    4    0    0 -0.22918109222E+02 -0.29285161707E+02  0.72530244478E+02  0.81507648663E+02  0.00000000000E+00 0.  1.
         21    1    1    2  502  501 -0.56253587010E+02 -0.68079072259E+02 -0.20153155985E+03  0.22003226069E+03  0.00000000000E+00 0.  1.
<scales pt_clust_5="13000.00000" pt_clust_6="13000.00000" pt_clust_7="13000.00000" pt_clust_8="13000.00000" pt_clust_9="88.31323"></scales>
<clustering>
<clus scale="   88.313">  2  9  1 -1</clus>
<clus scale="   91.257">  7  8 -1 -1</clus>
<clus scale="   91.506">  5  6 -1 -1</clus>
<clus scale="  122.823">  1  7  2 -1</clus>
<clus scale="  122.823">  1  5  2 -1</clus>
</clustering>
</event>
<event>
 9    1  0.2423659E-006  0.1350391E+03  0.7546771E-02  0.1220698E+00
         -2   -1    0    0    0  501 -0.00000000000E+00  0.00000000000E+00  0.12102985959E+03  0.12102985959E+03  0.00000000000E+00 0.  1.
          2   -1    0    0  502    0  0.00000000000E+00 -0.00000000000E+00 -0.65430013707E+03  0.65430013707E+03  0.00000000000E+00 0. -1.
         23    2    1    2    0    0  0.76624057547E+02  0.14013513789E+02 -0.33116166779E+02  0.12517780027E+03  0.92223513351E+02 0.  0.
         23    2    1    2    0    0 -0.77151741881E+02  0.72656694110E+02 -0.53739515113E+03  0.55581822329E+03  0.94387299995E+02 0.  0.
        -11    1    4    4    0    0  0.20824787932E+02  0.22175354323E+02 -0.88191364980E+02  0.93290594321E+02  0.00000000000E+00 0.  1.
         11    1    4    4    0    0 -0.97976529813E+02  0.50481339787E+02 -0.44920378616E+03  0.46252762897E+03  0.00000000000E+00 0. -1.
        -13    1    3    3    0    0 -0.16707287561E+02 -0.15254621811E+02 -0.96088007704E+01  0.24579788373E+02  0.00000000000E+00 0. -1.
         13    1    3    3    0    0  0.93331345107E+02  0.29268135599E+02 -0.23507366008E+02  0.10059801190E+03  0.00000000000E+00 0.  1.
         21    1    1    2  502  501  0.52768433392E+00 -0.86670207899E+02  0.37241040442E+02  0.94333973102E+02  0.00000000000E+00 0.  1.
<scales pt_clust_5="13000.00000" pt_clust_6="13000.00000" pt_clust_7="13000.00000" pt_clust_8="13000.00000" pt_clust_9="86.67181"></scales>
<clustering>
<clus scale="   86.672">  1  9  2 -1</clus>
<clus scale="   92.224">  7  8 -1 -1</clus>
<clus scale="   94.387">  5  6 -1 -1</clus>
<clus scale="  133.536">  1  7  2 -1</clus>
<clus scale="  135.039">  2  5  1 -1</clus>
</clustering>
</event>
<event>
 9    1  0.2423659E-006  0.1937708E+03  0.7546771E-02  0.1156322E+00
          1   -1    0    0  502    0  0.00000000000E+00  0.00000000000E+00  0.42195013024E+03  0.42195013024E+03  0.00000000000E+00 0. -1.
         -1   -1    0    0    0  501 -0.00000000000E+00 -0.00000000000E+00 -0.40320007560E+03  0.40320007560E+03  0.00000000000E+00 0.  1.
         23    2    1    2    0    0 -0.13401048354E+03  0.11198445436E+03 -0.33527625527E+03  0.38611287549E+03  0.78572625964E+02 0.  0.
         23    2    1    2    0    0  0.69156034388E+02 -0.10740663924E+03  0.33722355633E+03  0.37188534978E+03  0.90885880078E+02 0.  0.
        -11    1    4    4    0    0  0.82936826283E+02 -0.79142143408E+02  0.30919117142E+03  0.32975927053E+03  0.00000000000E+00 0. -1.
         11    1    4    4    0    0 -0.13780791895E+02 -0.28264495829E+02  0.28032384910E+02  0.42126079255E+02  0.00000000000E+00 0.  1.
        -11    1    3    3    0    0 -0.12746181524E+03  0.71392053698E+02 -0.22348435278E+03  0.26699924272E+03  0.00000000000E+00 0.  1.
         11    1    3    3    0    0 -0.65486683001E+01  0.40592400662E+02 -0.11179190250E+03  0.11911363277E+03  0.00000000000E+00 0. -1.
         21    1    1    2  502  501  0.64854449156E+02 -0.45778151237E+01  0.16802753580E+02  0.67151980570E+02  0.00000000000E+00 0.  1.
<scales pt_clust_5="13000.00000" pt_clust_6="13000.00000" pt_clust_7="13000.00000" pt_clust_8="13000.00000" pt_clust_9="65.01581"></scales>
<clustering>
<clus scale="   65.016">  1  9  2 -1</clus>
<clus scale="   78.573">  7  8 -1 -1</clus>
<clus scale="   90.886">  5  6 -1 -1</clus>
<clus scale="  188.310">  2  7  1 -1</clus>
<clus scale="   65.016">  1  5  2 -1</clus>
</clustering>
</event>
<event>
 9    1  0.2423659E-006  0.1495654E+03  0.7546771E-02  0.1201150E+00
         -2   -1    0    0    0  501 -0.00000000000E+00  0.00000000000E+00  0.97351817530E+02  0.97351817530E+02  0.00000000000E+00 0.  1.
          2   -1    0    0  502    0  0.00000000000E+00 -0.00000000000E+00 -0.56677726427E+03  0.56677726427E+03  0.00000000000E+00 0. -1.
         23    2    1    2    0    0 -0.94896629190E+02 -0.19265035533E+02 -0.28219695240E+02  0.13523095289E+03  0.90080783715E+02 0.  0.
         23    2    1    2    0    0  0.11349870996E+03  0.51005221608E+02 -0.46174143952E+03  0.48676510975E+03  0.90838457168E+02 0.  0.
        -11    1    4    4    0    0  0.63700813810E+02  0.59947714202E+02 -0.17555096964E+03  0.19613685288E+03  0.00000000000E+00 0.  1.
         11    1    4    4    0    0  0.49797896152E+02 -0.89424925940E+01 -0.28619046989E+03  0.29062825687E+03  0.00000000000E+00 0. -1.
        -13    1    3    3    0    0  0.62578225429E+00  0.22462128963E+02 -0.20977996384E+02  0.30741099090E+02  0.00000000000E+00 0. -1.
         13    1    3    3    0    0 -0.95522411444E+02 -0.41727164496E+02 -0.72416988567E+01  0.10448985380E+03  0.00000000000E+00 0.  1.
         21    1    1    2  502  501 -0.18602080772E+02 -0.31740186076E+02  0.20535688023E+02  0.42133019162E+02  0.00000000000E+00 0.  1.
<scales pt_clust_5="13000.00000" pt_clust_6="13000.00000" pt_clust_7="13000.00000" pt_clust_8="13000.00000" pt_clust_9="36.78963"></scales>
<clustering>
<clus scale="   36.790">  1  9  2 -1</clus>
<clus scale="   90.081">  7  8 -1 -1</clus>
<clus scale="   90.838">  5  6 -1 -1</clus>
<clus scale="  149.106">  1  7  2 -1</clus>
<clus scale="  149.565">  2  5  1 -1</clus>
</clustering>
</event>
<event>
 9    1  0.2423659E-006  0.9961339E+02  0.7546771E-02  0.1281615E+00
         -1   -1    0    0    0  501 -0.00000000000E+00  0.00000000000E+00  0.17104649664E+02  0.17104649664E+02  0.00000000000E+00 0.  1.
          1   -1    0    0  502    0  0.00000000000E+00 -0.00000000000E+00 -0.74431511581E+03  0.74431511581E+03  0.00000000000E+00 0. -1.
         23    2    1    2    0    0 -0.29744649118E+02 -0.22643687420E+02 -0.28179631792E+03  0.29804889682E+03  0.89590732611E+02 0.  0.
         23    2    1    2    0    0  0.45400942408E+02  0.87384371471E+01 -0.40800279841E+03  0.42049797979E+03  0.90634770601E+02 0.  0.
        -11    1    4    4    0    0 -0.23862060005E+02  0.18286543333E+02 -0.89603874874E+02  0.94512697386E+02  0.00000000000E+00 0.  1.
         11    1    4    4    0    0  0.69263002413E+02 -0.95481061863E+01 -0.31839892354E+03  0.32598528241E+03  0.00000000000E+00 0. -1.
        -11    1    3    3    0    0 -0.53706570729E+02  0.10281219871E+02 -0.18808113896E+03  0.19586886954E+03  0.00000000000E+00 0.  1.
         11    1    3    3    0    0  0.23961921611E+02 -0.32924907291E+02 -0.93715178962E+02  0.10218002728E+03  0.00000000000E+00 0. -1.
         21    1    1    2  502  501 -0.15656293290E+02  0.13905250273E+02 -0.37411349811E+02  0.42872888863E+02  0.00000000000E+00 0. -1.
<scales pt_clust_5="13000.00000" pt_clust_6="13000.00000" pt_clust_7="13000.00000" pt_clust_8="13000.00000" pt_clust_9="20.93981"></scales>
<clustering>
<clus scale="   20.940">  1  9  2 -1</clus>
<clus scale="   89.591">  7  8 -1 -1</clus>
<clus scale="   90.635">  5  6 -1 -1</clus>
<clus scale="   98.664">  1  7  2 -1</clus>
<clus scale="   99.613">  2  5  1 -1</clus>
</clustering>
</event>
<event>
 9    1  0.2423659E-006  0.2099415E+03  0.7546771E-02  0.1174795E+00
          1   -1    0    0  502    0  0.00000000000E+00  0.00000000000E+00  0.24615334025E+03  0.24615334025E+03  0.00000000000E+00 0. -1.
         -1   -1    0    0    0  501 -0.00000000000E+00 -0.00000000000E+00 -0.64750806567E+03  0.64750806567E+03  0.00000000000E+00 0.  1.
         23    2    1    2    0    0 -0.16240920742E+03  0.98568068817E+02 -0.44251639090E+03  0.49012162730E+03  0.91137470259E+02 0.  0.
         23    2    1    2    0    0  0.15621958148E+02  0.19473867387E+02  0.15554986761E+03  0.18316497053E+03  0.93436438444E+02 0.  0.
        -13    1    3    3    0    0 -0.10786039273E+03  0.10348111686E+03 -0.26383258015E+03  0.30323231394E+03  0.00000000000E+00 0.  1.
         13    1    3    3    0    0 -0.54548814684E+02 -0.49130480400E+01 -0.17868381075E+03  0.18688931336E+03  0.00000000000E+00 0. -1.
        -13    1    4    4    0    0  0.28085196121E+02  0.51842856064E+02  0.74528940273E+02  0.95031694209E+02  0.00000000000E+00 0.  1.
         13    1    4    4    0    0 -0.12463237973E+02 -0.32368988678E+02  0.81020927337E+02  0.88133276323E+02  0.00000000000E+00 0. -1.
         21    1    1    2  502  501  0.14678724927E+03 -0.11804193620E+03 -0.11438820213E+03  0.22037480808E+03  0.00000000000E+00 0. -1.
<scales pt_clust_5="13000.00000" pt_clust_6="13000.00000" pt_clust_7="13000.00000" pt_clust_8="13000.00000" pt_clust_9="189.12804"></scales>
<clustering>
<clus scale="   91.137">  5  6 -1 -1</clus>
<clus scale="   93.436">  7  8 -1 -1</clus>
<clus scale="   96.714">  1  7  2 -1</clus>
<clus scale="  189.128">  1  9  2 -1</clus>
<clus scale="   96.714">  1  5  2 -1</clus>
</clustering>
</event>
<event>
 9    1  0.2423659E-006  0.1318244E+03  0.7546771E-02  0.1234503E+00
          1   -1    0    0  502    0  0.00000000000E+00  0.00000000000E+00  0.53946561982E+02  0.53946561982E+02  0.00000000000E+00 0. -1.
         -1   -1    0    0    0  501 -0.00000000000E+00 -0.00000000000E+00 -0.73651554428E+03  0.73651554428E+03  0.00000000000E+00 0.  1.
         23    2    1    2    0    0 -0.71622033744E+02 -0.36467991347E+01 -0.24566304494E+03  0.27154143897E+03  0.90782193015E+02 0.  0.
         23    2    1    2    0    0 -0.31713027617E+02 -0.41341995129E+02 -0.55604064315E+02  0.12131125480E+03  0.94391376145E+02 0.  0.
        -11    1    4    4    0    0 -0.64485764292E+02 -0.16290544629E+02 -0.36196971368E+02  0.75723288207E+02  0.00000000000E+00 0. -1.
         11    1    4    4    0    0  0.32772736675E+02 -0.25051450500E+02 -0.19407092946E+02  0.45587966591E+02  0.00000000000E+00 0.  1.
        -13    1    3    3    0    0 -0.25743163537E+02  0.38896704884E+02 -0.62501008768E+02  0.77987436275E+02  0.00000000000E+00 0.  1.
         13    1    3    3    0    0 -0.45878870207E+02 -0.42543504019E+02 -0.18316203617E+03  0.19355400270E+03  0.00000000000E+00 0. -1.
         21    1    1    2  502  501  0.10333506136E+03  0.44988794263E+02 -0.38130187305E+03  0.39760941250E+03  0.00000000000E+00 0.  1.
<scales pt_clust_5="13000.00000" pt_clust_6="13000.00000" pt_clust_7="13000.00000" pt_clust_8="13000.00000" pt_clust_9="95.58382"></scales>
<clustering>
<clus scale="   90.782">  7  8 -1 -1</clus>
<clus scale="   94.391">  5  6 -1 -1</clus>
<clus scale="  107.817">  1  5  2 -1</clus>
<clus scale="   95.584">  2  9  1 -1</clus>
<clus scale="  107.817">  1  5  2 -1</clus>
</clustering>
</event>
<event>
 9    1  0.2423659E-006  0.2285174E+03  0.7546771E-02  0.1161591E+00
         -1   -1    0    0    0  501 -0.00000000000E+00  0.00000000000E+00  0.22524490283E+03  0.22524490283E+03  0.00000000000E+00 0.  1.
          1   -1    0    0  502    0  0.00000000000E+00 -0.00000000000E+00 -0.47782276988E+03  0.47782276988E+03  0.00000000000E+00 0. -1.
         23    2    1    2    0    0  0.14510452802E+03  0.16098147699E+03  0.90685134846E+02  0.25259554834E+03  0.92792011359E+02 0.  0.
         23    2    1    2    0    0 -0.13332231684E+02 -0.38145228842E+02 -0.70584143350E+02  0.12365957590E+03  0.93149141344E+02 0.  0.
        -13    1    4    4    0    0  0.17780998704E+02  0.25245793927E+02 -0.19846236881E+02  0.36706772458E+02  0.00000000000E+00 0.  1.
         13    1    4    4    0    0 -0.31113230388E+02 -0.63391022769E+02 -0.50737906469E+02  0.86952803438E+02  0.00000000000E+00 0. -1.
        -13    1    3    3    0    0  0.14392754224E+03  0.11247731539E+03  0.90998729414E+02  0.20407609524E+03  0.00000000000E+00 0.  1.
         13    1    3    3    0    0  0.11769857843E+01  0.48504161593E+02 -0.31359456854E+00  0.48519453098E+02  0.00000000000E+00 0. -1.
         21    1    1    2  502  501 -0.13177229634E+03 -0.12283624815E+03 -0.27267885855E+03  0.32681254848E+03  0.00000000000E+00 0. -1.
<scales pt_clust_5="13000.00000" pt_clust_6="13000.00000" pt_clust_7="13000.00000" pt_clust_8="13000.00000" pt_clust_9="208.82967"></scales>
<clustering>
<clus scale="   92.792">  7  8 -1 -1</clus>
<clus scale="   93.149">  5  6 -1 -1</clus>
<clus scale="  101.536">  2  5  1 -1</clus>
<clus scale="  208.830">  2  9  1 -1</clus>
<clus scale="  101.536">  2  5  1 -1</clus>
</clustering>
</event>
<event>
 9    1  0.2423659E-006  0.1307789E+03  0.7546771E-02  0.1226572E+00
         -4   -1    0    0    0  501 -0.00000000000E+00  0.00000000000E+00  0.19797867320E+03  0.19797867320E+03  0.00000000000E+00 0.  1.
          4   -1    0    0  502    0  0.00000000000E+00 -0.00000000000E+00 -0.12858331991E+03  0.12858331991E+03  0.00000000000E+00 0. -1.
         23    2    1    2    0    0  0.46915191819E+02 -0.78333294826E+02  0.27897727276E+02  0.13330951336E+03  0.93037642182E+02 0.  0.
         23    2    1    2    0    0  0.79581513543E+00  0.99516844504E+02  0.20942127017E+02  0.13714890142E+03  0.92016372544E+02 0.  0.
        -11    1    3    3    0    0  0.75352280659E+02 -0.57388222104E+02  0.16118997292E+02  0.96079114851E+02  0.00000000000E+00 0. -1.
         11    1    3    3    0    0 -0.28437088840E+02 -0.20945072721E+02  0.11778729984E+02  0.37230398507E+02  0.00000000000E+00 0.  1.
        -13    1    4    4    0    0 -0.32771594808E+02  0.92095506015E+02  0.28755339194E+02  0.10189420585E+03  0.00000000000E+00 0.  1.
         13    1    4    4    0    0  0.33567409943E+02  0.74213384892E+01 -0.78132121769E+01  0.35254695571E+02  0.00000000000E+00 0. -1.
         21    1    1    2  502  501 -0.47711006955E+02 -0.21183549678E+02  0.20555498998E+02  0.56103578323E+02  0.00000000000E+00 0. -1.
<scales pt_clust_5="13000.00000" pt_clust_6="13000.00000" pt_clust_7="13000.00000" pt_clust_8="13000.00000" pt_clust_9="52.20233"></scales>
<clustering>
<clus scale="   52.202">  1  9  2 -1</clus>
<clus scale="   92.016">  7  8 -1 -1</clus>
<clus scale="   93.038">  5  6 -1 -1</clus>
<clus scale="  130.054">  2  7  1 -1</clus>
<clus scale="  130.054">  2  5  1 -1</clus>
</clustering>
</event>
<event>
 9    1  0.2423659E-006  0.8654685E+02  0.7546771E-02  0.1316323E+00
         -3   -1    0    0    0  501 -0.00000000000E+00  0.00000000000E+00  0.13591263006E+03  0.13591263006E+03  0.00000000000E+00 0.  1.
          3   -1    0    0  502    0  0.00000000000E+00 -0.00000000000E+00 -0.29833284531E+03  0.29833284531E+03  0.00000000000E+00 0. -1.
         23    2    1    2    0    0  0.26619629044E+02  0.22234170878E+02  0.10524950683E+03  0.13678137036E+03  0.80179308947E+02 0.  0.
         23    2    1    2    0    0  0.19803561060E+02 -0.33038316804E+02 -0.17763004265E+03  0.19558679634E+03  0.72236081315E+02 0.  0.
        -11    1    3    3    0    0  0.46305825527E+02  0.68188312323E+01  0.10113618873E+03  0.11144170946E+03  0.00000000000E+00 0.  1.
         11    1    3    3    0    0 -0.19686196483E+02  0.15415339645E+02  0.41133181002E+01  0.25339660893E+02  0.00000000000E+00 0. -1.
        -11    1    4    4    0    0 -0.96134598954E+01 -0.46357397161E+02 -0.12697799369E+03  0.13551692796E+03  0.00000000000E+00 0. -1.
         11    1    4    4    0    0  0.29417020955E+02  0.13319080356E+02 -0.50652048964E+02  0.60069868384E+02  0.00000000000E+00 0.  1.
         21    1    1    2  502  501 -0.46423190104E+02  0.10804145927E+02 -0.90039679433E+02  0.10187730867E+03  0.00000000000E+00 0. -1.
<scales pt_clust_5="13000.00000" pt_clust_6="13000.00000" pt_clust_7="13000.00000" pt_clust_8="13000.00000" pt_clust_9="47.66385"></scales>
<clustering>
<clus scale="   47.664">  2  9  1 -1</clus>
<clus scale="   72.236">  7  8 -1 -1</clus>
<clus scale="   79.244">  2  7  1 -1</clus>
<clus scale="   80.179">  5  6 -1 -1</clus>
<clus scale="   47.664">  2  5  1 -1</clus>
</clustering>
</event>
<event>
 9    1  0.2423659E-006  0.9311047E+02  0.7546771E-02  0.1296757E+00
         -1   -1    0    0    0  501 -0.00000000000E+00  0.00000000000E+00  0.72780887450E+02  0.72780887450E+02  0.00000000000E+00 0.  1.
          1   -1    0    0  502    0  0.00000000000E+00 -0.00000000000E+00 -0.23340352206E+03  0.23340352206E+03  0.00000000000E+00 0. -1.
         23    2    1    2    0    0 -0.20101199792E+02  0.14425004187E+02 -0.19668413975E+02  0.95785167308E+02  0.90420201223E+02 0.  0.
         23    2    1    2    0    0 -0.34542685197E+02  0.68639283886E+00 -0.98827763755E+02  0.13976676486E+03  0.92596724746E+02 0.  0.
        -11    1    3    3    0    0  0.35168485855E+02  0.14660978610E+02 -0.38509996082E+01  0.38296173295E+02  0.00000000000E+00 0.  1.
         11    1    3    3    0    0 -0.55269685646E+02 -0.23597442320E+00 -0.15817414367E+02  0.57488994013E+02  0.00000000000E+00 0. -1.
        -13    1    4    4    0    0 -0.15088488548E+01  0.36483651728E+02 -0.90399281537E+01  0.37617200445E+02  0.00000000000E+00 0.  1.
         13    1    4    4    0    0 -0.33033836342E+02 -0.35797258889E+02 -0.89787835601E+02  0.10214956441E+03  0.00000000000E+00 0. -1.
         21    1    1    2  502  501  0.54643884989E+02 -0.15111397025E+02 -0.42126456880E+02  0.70632477346E+02  0.00000000000E+00 0. -1.
<scales pt_clust_5="13000.00000" pt_clust_6="13000.00000" pt_clust_7="13000.00000" pt_clust_8="13000.00000" pt_clust_9="56.69487"></scales>
<clustering>
<clus scale="   56.695">  2  9  1 -1</clus>
<clus scale="   90.420">  5  6 -1 -1</clus>
<clus scale="   90.946">  1  5  2 -1</clus>
<clus scale="   92.597">  7  8 -1 -1</clus>
<clus scale="   56.695">  2  5  1 -1</clus>
</clustering>
</event>
<event>
 9    1  0.2423659E-006  0.1832017E+03  0.7546771E-02  0.1182072E+00
         -2   -1    0    0    0  501 -0.00000000000E+00  0.00000000000E+00  0.62942028877E+02  0.62942028877E+02  0.00000000000E+00 0.  1.
          2   -1    0    0  502    0  0.00000000000E+00 -0.00000000000E+00 -0.10502073323E+04  0.10502073323E+04  0.00000000000E+00 0. -1.
         23    2    1    2    0    0  0.37397230562E+02 -0.15780061639E+02 -0.19760550823E+03  0.23303890623E+03  0.11666889790E+03 0.  0.
         23    2    1    2    0    0  0.49236347745E+01  0.16721849875E+03 -0.22976814067E+03  0.29855794598E+03  0.91417613943E+02 0.  0.
        -11    1    4    4    0    0  0.13455276085E+02  0.99471596939E+02 -0.20058932945E+03  0.22430274662E+03  0.00000000000E+00 0. -1.
         11    1    4    4    0    0 -0.85316413104E+01  0.67746901807E+02 -0.29178811221E+02  0.74255199361E+02  0.00000000000E+00 0.  1.
        -11    1    3    3    0    0  0.47441709163E+02  0.42885159451E+02 -0.10589179617E+03  0.12370499248E+03  0.00000000000E+00 0. -1.
         11    1    3    3    0    0 -0.10044478602E+02 -0.58665221090E+02 -0.91713712061E+02  0.10933391375E+03  0.00000000000E+00 0.  1.
         21    1    1    2  502  501 -0.42320865336E+02 -0.15143843711E+03 -0.55989165454E+03  0.58155250898E+03  0.00000000000E+00 0.  1.
<scales pt_clust_5="13000.00000" pt_clust_6="13000.00000" pt_clust_7="13000.00000" pt_clust_8="13000.00000" pt_clust_9="158.76294"></scales>
<clustering>
<clus scale="   91.418">  5  6 -1 -1</clus>
<clus scale="  116.669">  7  8 -1 -1</clus>
<clus scale="  123.528">  1  7  2 -1</clus>
<clus scale="  158.763">  2  9  1 -1</clus>
<clus scale="  158.763">  2  5  1 -1</clus>
</clustering>
</event>
<event>
 9    1  0.2423659E-006  0.1050258E+03  0.7546771E-02  0.1275559E+00
         -2   -1    0    0    0  501 -0.00000000000E+00  0.00000000000E+00  0.81535385575E+02  0.81535385575E+02  0.00000000000E+00 0.  1.
          2   -1    0    0  502    0  0.00000000000E+00 -0.00000000000E+00 -0.26022077284E+03  0.26022077284E+03  0.00000000000E+00 0. -1.
         23    2    1    2    0    0 -0.28554311028E+02  0.22486557609E+02 -0.99552102807E+02  0.14417404044E+03  0.97747321254E+02 0.  0.
         23    2    1    2    0    0  0.44546151000E+02  0.25947362569E+01 -0.11527619622E+03  0.15077271381E+03  0.86329123653E+02 0.  0.
        -11    1    4    4    0    0  0.69940763692E+02 -0.63879364862E+01 -0.82303492429E+02  0.10819603054E+03  0.00000000000E+00 0. -1.
         11    1    4    4    0    0 -0.25394612692E+02  0.89826727431E+01 -0.32972703788E+02  0.42576683272E+02  0.00000000000E+00 0.  1.
        -13    1    3    3    0    0  0.32111761824E+02  0.27809505003E+02 -0.50397798141E+02  0.65912607849E+02  0.00000000000E+00 0. -1.
         13    1    3    3    0    0 -0.60666072851E+02 -0.53229473939E+01 -0.49154304666E+02  0.78261432592E+02  0.00000000000E+00 0.  1.
         21    1    1    2  502  501 -0.15991839973E+02 -0.25081293866E+02  0.36142911759E+02  0.46809404163E+02  0.00000000000E+00 0.  1.
<scales pt_clust_5="13000.00000" pt_clust_6="13000.00000" pt_clust_7="13000.00000" pt_clust_8="13000.00000" pt_clust_9="29.74576"></scales>
<clustering>
<clus scale="   29.746">  1  9  2 -1</clus>
<clus scale="   86.329">  5  6 -1 -1</clus>
<clus scale="   94.491">  2  5  1 -1</clus>
<clus scale="   97.747">  7  8 -1 -1</clus>
<clus scale="   94.491">  2  5  1 -1</clus>
</clustering>
</event>
<event>
 9    1  0.2423659E-006  0.1968951E+03  0.7546771E-02  0.1172076E+00
         -1   -1    0    0    0  501 -0.00000000000E+00  0.00000000000E+00  0.89950811761E+02  0.89950811761E+02  0.00000000000E+00 0.  1.
          1   -1    0    0  502    0  0.00000000000E+00 -0.00000000000E+00 -0.10898453096E+04  0.10898453096E+04  0.00000000000E+00 0. -1.
         23    2    1    2    0    0  0.25580710696E+01  0.19117862223E+03 -0.82499651854E+02  0.22653196650E+03  0.89189292884E+02 0.  0.
         23    2    1    2    0    0 -0.52824055128E+02 -0.66654260787E+02 -0.43460797156E+03  0.45214924602E+03  0.91223245101E+02 0.  0.
        -11    1    3    3    0    0  0.27228439574E+02  0.83519745400E+02  0.13562217180E+01  0.87856559975E+02  0.00000000000E+00 0.  1.
         11    1    3    3    0    0 -0.24670368505E+02  0.10765887683E+03 -0.83855873572E+02  0.13867540653E+03  0.00000000000E+00 0. -1.
        -13    1    4    4    0    0 -0.42107070565E+02  0.13017276386E+02 -0.16802865142E+03  0.17371264368E+03  0.00000000000E+00 0. -1.
         13    1    4    4    0    0 -0.10716984563E+02 -0.79671537173E+02 -0.26657932015E+03  0.27843660234E+03  0.00000000000E+00 0.  1.
         21    1    1    2  502  501  0.50265984059E+02 -0.12452436145E+03 -0.48278687443E+03  0.50111490884E+03  0.00000000000E+00 0. -1.
<scales pt_clust_5="13000.00000" pt_clust_6="13000.00000" pt_clust_7="13000.00000" pt_clust_8="13000.00000" pt_clust_9="175.53615"></scales>
<clustering>
<clus scale="   89.189">  5  6 -1 -1</clus>
<clus scale="   91.223">  7  8 -1 -1</clus>
<clus scale="  124.719">  2  7  1 -1</clus>
<clus scale="  175.536">  2  9  1 -1</clus>
<clus scale="  124.719">  2  5  1 -1</clus>
</clustering>
</event>
<event>
 9    1  0.2423659E-006  0.1254182E+03  0.7546771E-02  0.1234839E+00
         -2   -1    0    0    0  501 -0.00000000000E+00  0.00000000000E+00  0.15610910984E+03  0.15610910984E+03  0.00000000000E+00 0.  1.
          2   -1    0    0  502    0  0.00000000000E+00 -0.00000000000E+00 -0.53665475759E+03  0.53665475759E+03  0.00000000000E+00 0. -1.
         23    2    1    2    0    0  0.79577200488E+02 -0.59083138364E+02  0.71096951947E+02  0.15363112995E+03  0.93404493661E+02 0.  0.
         23    2    1    2    0    0  0.24229404804E+02  0.78467789652E+02 -0.71076811598E+02  0.14418730444E+03  0.94835687082E+02 0.  0.
        -11    1    3    3    0    0  0.77818829001E+02 -0.31775805948E+02  0.87818162205E+02  0.12156274760E+03  0.00000000000E+00 0.  1.
         11    1    3    3    0    0  0.17583714876E+01 -0.27307332415E+02 -0.16721210258E+02  0.32068382348E+02  0.00000000000E+00 0. -1.
        -13    1    4    4    0    0 -0.26403029728E+02  0.19204391356E+02 -0.55959815726E+02  0.64787572900E+02  0.00000000000E+00 0.  1.
         13    1    4    4    0    0  0.50632434532E+02  0.59263398296E+02 -0.15116995872E+02  0.79399731539E+02  0.00000000000E+00 0. -1.
         21    1    1    2  502  501 -0.10380660529E+03 -0.19384651288E+02 -0.38056578810E+03  0.39494543304E+03  0.00000000000E+00 0.  1.
<scales pt_clust_5="13000.00000" pt_clust_6="13000.00000" pt_clust_7="13000.00000" pt_clust_8="13000.00000" pt_clust_9="105.60102"></scales>
<clustering>
<clus scale="   93.404">  5  6 -1 -1</clus>
<clus scale="   94.836">  7  8 -1 -1</clus>
<clus scale="  105.601">  2  9  1 -1</clus>
<clus scale="  124.340">  1  5  2 -1</clus>
<clus scale="  105.601">  2  5  1 -1</clus>
</clustering>
</event>
<event>
 9    1  0.2423659E-006  0.1170390E+03  0.7546771E-02  0.1248285E+00
          2   -1    0    0  502    0  0.00000000000E+00  0.00000000000E+00  0.51517486632E+02  0.51517486632E+02  0.00000000000E+00 0. -1.
         -2   -1    0    0    0  501 -0.00000000000E+00 -0.00000000000E+00 -0.39403985638E+03  0.39403985638E+03  0.00000000000E+00 0.  1.
         23    2    1    2    0    0 -0.44963427386E+02  0.48926140022E+02 -0.13527860808E+03  0.17535379031E+03  0.89627969911E+02 0.  0.
         23    2    1    2    0    0  0.18664893605E+02 -0.86763053458E+02 -0.16220786381E+03  0.20577159640E+03  0.90301456830E+02 0.  0.
        -11    1    4    4    0    0 -0.72825422910E+01 -0.19226127889E+02 -0.12054015001E+03  0.12228085369E+03  0.00000000000E+00 0.  1.
         11    1    4    4    0    0  0.25947435896E+02 -0.67536925569E+02 -0.41667713802E+02  0.83490742711E+02  0.00000000000E+00 0. -1.
        -11    1    3    3    0    0 -0.63619374930E+02  0.38041954660E+02 -0.55220602924E+02  0.92433382325E+02  0.00000000000E+00 0. -1.
         11    1    3    3    0    0  0.18655947544E+02  0.10884185362E+02 -0.80058005161E+02  0.82920407983E+02  0.00000000000E+00 0.  1.
         21    1    1    2  502  501  0.26298533781E+02  0.37836913436E+02 -0.45035897852E+02  0.64431956300E+02  0.00000000000E+00 0.  1.
<scales pt_clust_5="13000.00000" pt_clust_6="13000.00000" pt_clust_7="13000.00000" pt_clust_8="13000.00000" pt_clust_9="46.07868"></scales>
<clustering>
<clus scale="   46.079">  1  9  2 -1</clus>
<clus scale="   89.628">  7  8 -1 -1</clus>
<clus scale="   90.301">  5  6 -1 -1</clus>
<clus scale="  116.520">  2  7  1 -1</clus>
<clus scale="   46.079">  1  5  2 -1</clus>
</clustering>
</event>
<event>
 9    1  0.2423659E-006  0.9643825E+02  0.7546771E-02  0.1289286E+00
         -1   -1    0    0    0  501 -0.00000000000E+00  0.00000000000E+00  0.13540045855E+03  0.13540045855E+03  0.00000000000E+00 0.  1.
          1   -1    0    0  502    0  0.00000000000E+00 -0.00000000000E+00 -0.13677754000E+03  0.13677754000E+03  0.00000000000E+00 0. -1.
         23    2    1    2    0    0 -0.15894359727E+02  0.15183173388E+02  0.50264636794E+02  0.10417230561E+03  0.88556062013E+02 0.  0.
         23    2    1    2    0    0  0.59395766729E+02 -0.26966583213E+02 -0.50646345343E+02  0.12292563165E+03  0.91052758900E+02 0.  0.
        -11    1    3    3    0    0  0.33110818351E+02 -0.11497063062E+02  0.24162021972E+02  0.42571258575E+02  0.00000000000E+00 0. -1.
         11    1    3    3    0    0 -0.49005178078E+02  0.26680236450E+02  0.26102614822E+02  0.61601047037E+02  0.00000000000E+00 0.  1.
        -13    1    4    4    0    0 -0.41456646247E+01 -0.41677481489E+02 -0.37867009543E+02  0.56463345722E+02  0.00000000000E+00 0.  1.
         13    1    4    4    0    0  0.63541431354E+02  0.14710898277E+02 -0.12779335800E+02  0.66462285923E+02  0.00000000000E+00 0. -1.
         21    1    1    2  502  501 -0.43501407002E+02  0.11783409824E+02 -0.99537290169E+00  0.45080061285E+02  0.00000000000E+00 0.  1.
<scales pt_clust_5="13000.00000" pt_clust_6="13000.00000" pt_clust_7="13000.00000" pt_clust_8="13000.00000" pt_clust_9="45.06907"></scales>
<clustering>
<clus scale="   45.069">  2  9  1 -1</clus>
<clus scale="   88.556">  5  6 -1 -1</clus>
<clus scale="   91.053">  7  8 -1 -1</clus>
<clus scale="   94.085">  1  5  2 -1</clus>
<clus scale="   45.069">  2  5  1 -1</clus>
</clustering>
</event>
<event>
 9    1  0.2423659E-006  0.1536279E+03  0.7546771E-02  0.1196596E+00
          1   -1    0    0  502    0  0.00000000000E+00  0.00000000000E+00  0.18955770536E+03  0.18955770536E+03  0.00000000000E+00 0. -1.
         -1   -1    0    0    0  501 -0.00000000000E+00 -0.00000000000E+00 -0.15624960935E+03  0.15624960935E+03  0.00000000000E+00 0.  1.
         23    2    1    2    0    0  0.28515851135E+02  0.12512488341E+03 -0.25630817210E+02  0.16030354667E+03  0.92579144891E+02 0.  0.
         23    2    1    2    0    0 -0.45221794867E+02 -0.11128487121E+03  0.64335123511E+02  0.16314859908E+03  0.89716910185E+02 0.  0.
        -11    1    3    3    0    0  0.37280159397E+02  0.96674283036E+02 -0.55998614492E+02  0.11777763841E+03  0.00000000000E+00 0.  1.
         11    1    3    3    0    0 -0.87643082622E+01  0.28450600375E+02  0.30367797283E+02  0.42525908254E+02  0.00000000000E+00 0. -1.
        -13    1    4    4    0    0 -0.62692212413E+02 -0.47476367280E+02  0.13669910258E+02  0.79819705548E+02  0.00000000000E+00 0.  1.
         13    1    4    4    0    0  0.17470417546E+02 -0.63808503932E+02  0.50665213254E+02  0.83328893532E+02  0.00000000000E+00 0. -1.
         21    1    1    2  502  501  0.16705943732E+02 -0.13840012199E+02 -0.53962102906E+01  0.22355168959E+02  0.00000000000E+00 0. -1.
<scales pt_clust_5="13000.00000" pt_clust_6="13000.00000" pt_clust_7="13000.00000" pt_clust_8="13000.00000" pt_clust_9="21.69411"></scales>
<clustering>
<clus scale="   21.694">  2  9  1 -1</clus>
<clus scale="   89.717">  7  8 -1 -1</clus>
<clus scale="   92.579">  5  6 -1 -1</clus>
<clus scale="  151.920">  1  7  2 -1</clus>
<clus scale="  151.920">  1  5  2 -1</clus>
</clustering>
</event>
<event>
 9    1  0.2423659E-006  0.1160554E+03  0.7546771E-02  0.1250176E+00
          3   -1    0    0  502    0  0.00000000000E+00  0.00000000000E+00  0.52965725982E+03  0.52965725982E+03  0.00000000000E+00 0. -1.
         -3   -1    0    0    0  501 -0.00000000000E+00 -0.00000000000E+00 -0.10120426209E+03  0.10120426209E+03  0.00000000000E+00 0.  1.
         23    2    1    2    0    0 -0.14813038213E+02  0.11027369879E+03  0.28051693377E+03  0.31475671058E+03  0.89455698399E+02 0.  0.
         23    2    1    2    0    0 -0.57047895249E+01 -0.45780786951E+02  0.20415900328E+03  0.22811994992E+03  0.90715973524E+02 0.  0.
        -11    1    4    4    0    0 -0.43884830541E+02 -0.19597725043E+02  0.14645785810E+03  0.15414231534E+03  0.00000000000E+00 0. -1.
         11    1    4    4    0    0  0.38180041016E+02 -0.26183061908E+02  0.57701145182E+02  0.73977634581E+02  0.00000000000E+00 0.  1.
        -11    1    3    3    0    0 -0.25263579010E+02 -0.52596517056E+01  0.38146872794E+02  0.46055360865E+02  0.00000000000E+00 0. -1.
         11    1    3    3    0    0  0.10450540797E+02  0.11553335050E+03  0.24237006097E+03  0.26870134971E+03  0.00000000000E+00 0.  1.
         21    1    1    2  502  501  0.20517827738E+02 -0.64492911843E+02 -0.56222939319E+02  0.87984861418E+02  0.00000000000E+00 0.  1.
<scales pt_clust_5="13000.00000" pt_clust_6="13000.00000" pt_clust_7="13000.00000" pt_clust_8="13000.00000" pt_clust_9="67.67804"></scales>
<clustering>
<clus scale="   67.678">  2  9  1 -1</clus>
<clus scale="   89.456">  7  8 -1 -1</clus>
<clus scale="   90.716">  5  6 -1 -1</clus>
<clus scale="  115.073">  2  7  1 -1</clus>
<clus scale="  116.055">  1  5  2 -1</clus>
</clustering>
</event>
<event>
 9    1  0.2423659E-006  0.1296602E+03  0.7546771E-02  0.1228221E+00
          2   -1    0    0  502    0  0.00000000000E+00  0.00000000000E+00  0.21302007596E+03  0.21302007596E+03  0.00000000000E+00 0. -1.
         -2   -1    0    0    0  501 -0.00000000000E+00 -0.00000000000E+00 -0.24053954787E+03  0.24053954787E+03  0.00000000000E+00 0.  1.
         23    2    1    2    0    0 -0.58861025533E+02  0.61638368904E+02 -0.90791756112E+02  0.15453417244E+03  0.91508243489E+02 0.  0.
         23    2    1    2    0    0  0.99190581034E+02  0.32293798102E+02  0.11925594750E+03  0.18247548099E+03  0.90518834433E+02 0.  0.
        -13    1    4    4    0    0 -0.11417463391E+01  0.26311936148E+02 -0.22899149616E+00  0.26337691730E+02  0.00000000000E+00 0.  1.
         13    1    4    4    0    0  0.10033232737E+03  0.59818619543E+01  0.11948493900E+03  0.15613778926E+03  0.00000000000E+00 0. -1.
        -13    1    3    3    0    0  0.74888532269E+01  0.57052339233E+02 -0.32436409793E+02  0.66054318669E+02  0.00000000000E+00 0. -1.
         13    1    3    3    0    0 -0.66349878760E+02  0.45860296717E+01 -0.58355346319E+02  0.88479853773E+02  0.00000000000E+00 0.  1.
         21    1    1    2  502  501 -0.40329555500E+02 -0.93932167006E+02 -0.55983663295E+02  0.11654997040E+03  0.00000000000E+00 0.  1.
<scales pt_clust_5="13000.00000" pt_clust_6="13000.00000" pt_clust_7="13000.00000" pt_clust_8="13000.00000" pt_clust_9="102.22390"></scales>
<clustering>
<clus scale="   90.519">  5  6 -1 -1</clus>
<clus scale="   91.508">  7  8 -1 -1</clus>
<clus scale="  102.224">  2  9  1 -1</clus>
<clus scale="  128.964">  1  5  2 -1</clus>
<clus scale="  128.964">  1  5  2 -1</clus>
</clustering>
</event>
<event>
 9    1  0.2423659E-006  0.1162992E+03  0.7546771E-02  0.1249510E+00
         -3   -1    0    0    0  501 -0.00000000000E+00  0.00000000000E+00  0.13604558000E+03  0.13604558000E+03  0.00000000000E+00 0.  1.
          3   -1    0    0  502    0  0.00000000000E+00 -0.00000000000E+00 -0.22150591377E+03  0.22150591377E+03  0.00000000000E+00 0. -1.
         23    2    1    2    0    0  0.91445845901E+02  0.50718809641E+02 -0.96252751846E+02  0.16434766787E+03  0.82527712383E+02 0.  0.
         23    2    1    2    0    0 -0.42831954392E+02 -0.45415291195E+02 -0.50558744654E+02  0.11474744997E+03  0.81936961277E+02 0.  0.
        -11    1    3    3    0    0  0.41572174807E+02  0.64911903170E+02 -0.36670542792E+02  0.85361171501E+02  0.00000000000E+00 0.  1.
         11    1    3    3    0    0  0.49873671094E+02 -0.14193093529E+02 -0.59582209054E+02  0.78986496365E+02  0.00000000000E+00 0. -1.
        -13    1    4    4    0    0 -0.62461298148E+02 -0.11296615355E+02 -0.27967477828E+02  0.69362865432E+02  0.00000000000E+00 0.  1.
         13    1    4    4    0    0  0.19629343756E+02 -0.34118675840E+02 -0.22591266825E+02  0.45384584543E+02  0.00000000000E+00 0. -1.
         21    1    1    2  502  501 -0.48613891508E+02 -0.53035184463E+01  0.61351162735E+02  0.78456375933E+02  0.00000000000E+00 0.  1.
<scales pt_clust_5="13000.00000" pt_clust_6="13000.00000" pt_clust_7="13000.00000" pt_clust_8="13000.00000" pt_clust_9="48.90233"></scales>
<clustering>
<clus scale="   48.902">  1  9  2 -1</clus>
<clus scale="   81.937">  7  8 -1 -1</clus>
<clus scale="   82.528">  5  6 -1 -1</clus>
<clus scale="  115.881">  2  7  1 -1</clus>
<clus scale="  115.881">  2  5  1 -1</clus>
</clustering>
</event>
<event>
 9    1  0.2423659E-006  0.1974156E+03  0.7546771E-02  0.1182308E+00
         -1   -1    0    0    0  501 -0.00000000000E+00  0.00000000000E+00  0.81052190879E+03  0.81052190879E+03  0.00000000000E+00 0.  1.
          1   -1    0    0  502    0  0.00000000000E+00 -0.00000000000E+00 -0.74892726958E+02  0.74892726958E+02  0.00000000000E+00 0. -1.
         23    2    1    2    0    0  0.34558554741E+01  0.36238652670E+02  0.18046423144E+03  0.20545280105E+03  0.91204888831E+02 0.  0.
         23    2    1    2    0    0 -0.16602708431E+03  0.49812888939E+02  0.19445773072E+03  0.27506188337E+03  0.88311460281E+02 0.  0.
        -13    1    4    4    0    0 -0.95215399716E+02  0.33592039603E+00  0.52082234310E+02  0.10852946290E+03  0.00000000000E+00 0.  1.
         13    1    4    4    0    0 -0.70811684596E+02  0.49476968543E+02  0.14237549641E+03  0.16653242047E+03  0.00000000000E+00 0. -1.
        -13    1    3    3    0    0  0.51699908705E+01 -0.30166655844E+02  0.72414502785E+02  0.78616894774E+02  0.00000000000E+00 0.  1.
         13    1    3    3    0    0 -0.17141353964E+01  0.66405308513E+02  0.10804972865E+03  0.12683590627E+03  0.00000000000E+00 0. -1.
         21    1    1    2  502  501  0.16257122884E+03 -0.86051541608E+02  0.36070721968E+03  0.40489995133E+03  0.00000000000E+00 0.  1.
<scales pt_clust_5="13000.00000" pt_clust_6="13000.00000" pt_clust_7="13000.00000" pt_clust_8="13000.00000" pt_clust_9="176.56163"></scales>
<clustering>
<clus scale="   88.311">  5  6 -1 -1</clus>
<clus scale="   91.205">  7  8 -1 -1</clus>
<clus scale="   98.201">  1  7  2 -1</clus>
<clus scale="  176.562">  1  9  2 -1</clus>
<clus scale="  197.416">  2  5  1 -1</clus>
</clustering>
</event>
<event>
 9    1  0.2423659E-006  0.1003102E+03  0.7546771E-02  0.1279947E+00
         -1   -1    0    0    0  501 -0.00000000000E+00  0.00000000000E+00  0.35363956175E+02  0.35363956175E+02  0.00000000000E+00 0.  1.
          1   -1    0    0  502    0  0.00000000000E+00 -0.00000000000E+00 -0.43251029134E+03  0.43251029134E+03  0.00000000000E+00 0. -1.
         23    2    1    2    0    0  0.43045509013E+02 -0.30634488155E+02 -0.10785275956E+03  0.15178105894E+03  0.92811014428E+02 0.  0.
         23    2    1    2    0    0 -0.31861018465E+02  0.81993324301E+01 -0.25833677346E+03  0.27625912475E+03  0.92189272348E+02 0.  0.
        -11    1    4    4    0    0 -0.33964734678E+02 -0.33173536868E+02 -0.78736045564E+02  0.91942653981E+02  0.00000000000E+00 0.  1.
         11    1    4    4    0    0  0.21037162127E+01  0.41372869298E+02 -0.17960072790E+03  0.18431647077E+03  0.00000000000E+00 0. -1.
        -11    1    3    3    0    0 -0.18282846689E+02  0.16427308976E+02 -0.48312546197E+02  0.54205360282E+02  0.00000000000E+00 0. -1.
         11    1    3    3    0    0  0.61328355702E+02 -0.47061797131E+02 -0.59540213361E+02  0.97575698662E+02  0.00000000000E+00 0.  1.
         21    1    1    2  502  501 -0.11184490547E+02  0.22435155725E+02 -0.30956802142E+02  0.39834063816E+02  0.00000000000E+00 0. -1.
<scales pt_clust_5="13000.00000" pt_clust_6="13000.00000" pt_clust_7="13000.00000" pt_clust_8="13000.00000" pt_clust_9="25.06849"></scales>
<clustering>
<clus scale="   25.068">  1  9  2 -1</clus>
<clus scale="   92.189">  5  6 -1 -1</clus>
<clus scale="   92.811">  7  8 -1 -1</clus>
<clus scale="   99.735">  2  5  1 -1</clus>
<clus scale="   99.735">  2  5  1 -1</clus>
</clustering>
</event>
<event>
 9    1  0.2423659E-006  0.9550638E+02  0.7546771E-02  0.1292072E+00
         -1   -1    0    0    0  501 -0.00000000000E+00  0.00000000000E+00  0.43589960124E+02  0.43589960124E+02  0.00000000000E+00 0.  1.
          1   -1    0    0  502    0  0.00000000000E+00 -0.00000000000E+00 -0.62933647404E+03  0.62933647404E+03  0.00000000000E+00 0. -1.
         23    2    1    2    0    0  0.66397826078E+00  0.13825130130E+02 -0.20077652842E+03  0.21990924332E+03  0.88641332583E+02 0.  0.
         23    2    1    2    0    0  0.49139189834E+01  0.55295502200E+02 -0.36541761730E+03  0.38096811137E+03  0.92330534944E+02 0.  0.
        -11    1    3    3    0    0 -0.13266706104E+01 -0.28728765239E+02 -0.22225651021E+02  0.36346685824E+02  0.00000000000E+00 0.  1.
         11    1    3    3    0    0  0.19906488711E+01  0.42553895369E+02 -0.17855087740E+03  0.18356255749E+03  0.00000000000E+00 0. -1.
        -13    1    4    4    0    0 -0.22489525094E+02 -0.16701155962E+02 -0.13928333895E+03  0.14207236134E+03  0.00000000000E+00 0. -1.
         13    1    4    4    0    0  0.27403444077E+02  0.71996658162E+02 -0.22613427835E+03  0.23889575003E+03  0.00000000000E+00 0.  1.
         21    1    1    2  502  501 -0.55778972442E+01 -0.69120632330E+02 -0.19552368195E+02  0.72049079477E+02  0.00000000000E+00 0.  1.
<scales pt_clust_5="13000.00000" pt_clust_6="13000.00000" pt_clust_7="13000.00000" pt_clust_8="13000.00000" pt_clust_9="69.34533"></scales>
<clustering>
<clus scale="   69.345">  1  9  2 -1</clus>
<clus scale="   88.641">  5  6 -1 -1</clus>
<clus scale="   91.945">  1  5  2 -1</clus>
<clus scale="   92.331">  7  8 -1 -1</clus>
<clus scale="   95.506">  2  5  1 -1</clus>
</clustering>
</event>
<event>
 9    1  0.2423659E-006  0.1090051E+03  0.7546771E-02  0.1270846E+00
         -2   -1    0    0    0  501 -0.00000000000E+00  0.00000000000E+00  0.19792754079E+03  0.19792754079E+03  0.00000000000E+00 0.  1.
          2   -1    0    0  502    0  0.00000000000E+00 -0.00000000000E+00 -0.78118818884E+02  0.78118818884E+02  0.00000000000E+00 0. -1.
         23    2    1    2    0    0  0.79289085928E+01  0.12057643722E+02  0.73575048964E+02  0.11867449719E+03  0.91989641210E+02 0.  0.
         23    2    1    2    0    0 -0.28236673001E+01  0.23063359069E+02  0.18945742554E+02  0.11260379942E+03  0.10853931478E+03 0.  0.
        -11    1    3    3    0    0  0.44583684823E+02 -0.83176357429E+01  0.17409509685E+02  0.48579615522E+02  0.00000000000E+00 0.  1.
         11    1    3    3    0    0 -0.36654776230E+02  0.20375279465E+02  0.56165539280E+02  0.70094881670E+02  0.00000000000E+00 0. -1.
        -13    1    4    4    0    0 -0.15449192904E+01 -0.43559753339E+02  0.14020660681E+02  0.45786655397E+02  0.00000000000E+00 0.  1.
         13    1    4    4    0    0 -0.12787480096E+01  0.66623112408E+02  0.49250818725E+01  0.66817144019E+02  0.00000000000E+00 0. -1.
         21    1    1    2  502  501 -0.51052412927E+01 -0.35121002791E+02  0.27287930384E+02  0.44768063062E+02  0.00000000000E+00 0. -1.
<scales pt_clust_5="13000.00000" pt_clust_6="13000.00000" pt_clust_7="13000.00000" pt_clust_8="13000.00000" pt_clust_9="35.49012"></scales>
<clustering>
<clus scale="   35.490">  1  9  2 -1</clus>
<clus scale="   91.990">  5  6 -1 -1</clus>
<clus scale="   92.539">  1  5  2 -1</clus>
<clus scale="  108.539">  7  8 -1 -1</clus>
<clus scale="  109.005">  2  5  1 -1</clus>
</clustering>
</event>
<event>
 9    1  0.2423659E-006  0.2423018E+03  0.7546771E-02  0.1151724E+00
          1   -1    0    0  502    0  0.00000000000E+00  0.00000000000E+00  0.38134052518E+03  0.38134052518E+03  0.00000000000E+00 0. -1.
         -1   -1    0    0    0  501 -0.00000000000E+00 -0.00000000000E+00 -0.23148689041E+03  0.23148689041E+03  0.00000000000E+00 0.  1.
         23    2    1    2    0    0  0.10191628957E+02 -0.55343008628E+02 -0.16696955682E+02  0.10860417305E+03  0.91374833352E+02 0.  0.
         23    2    1    2    0    0 -0.15808082579E+03 -0.13807008227E+03  0.10677163992E+03  0.25351751624E+03  0.93904487910E+02 0.  0.
        -13    1    3    3    0    0  0.40236008315E+02 -0.56541636889E+02 -0.30150446227E+02  0.75663349615E+02  0.00000000000E+00 0.  1.
         13    1    3    3    0    0 -0.30044379358E+02  0.11986282612E+01  0.13453490545E+02  0.32940823435E+02  0.00000000000E+00 0. -1.
        -13    1    4    4    0    0  0.56092547178E+01 -0.33453145344E+02  0.52500425096E+01  0.34324038490E+02  0.00000000000E+00 0.  1.
         13    1    4    4    0    0 -0.16369008050E+03 -0.10461693693E+03  0.10152159741E+03  0.21919347775E+03  0.00000000000E+00 0. -1.
         21    1    1    2  502  501  0.14788919683E+03  0.19341309090E+03  0.59778950530E+02  0.25070572630E+03  0.00000000000E+00 0.  1.
<scales pt_clust_5="13000.00000" pt_clust_6="13000.00000" pt_clust_7="13000.00000" pt_clust_8="13000.00000" pt_clust_9="223.36539"></scales>
<clustering>
<clus scale="   91.375">  5  6 -1 -1</clus>
<clus scale="   93.904">  7  8 -1 -1</clus>
<clus scale="  107.313">  2  5  1 -1</clus>
<clus scale="  223.365">  2  9  1 -1</clus>
<clus scale="  242.302">  1  5  2 -1</clus>
</clustering>
</event>
<event>
 9    1  0.2423659E-006  0.2918598E+03  0.7546771E-02  0.1126889E+00
         -2   -1    0    0    0  501 -0.00000000000E+00  0.00000000000E+00  0.11463372246E+03  0.11463372246E+03  0.00000000000E+00 0.  1.
          2   -1    0    0  502    0  0.00000000000E+00 -0.00000000000E+00 -0.10753012391E+04  0.10753012391E+04  0.00000000000E+00 0. -1.
         23    2    1    2    0    0 -0.73974291205E+02  0.49896544015E+02 -0.10324689300E+03  0.15223224418E+03  0.67474990846E+02 0.  0.
         23    2    1    2    0    0  0.41914157905E+02 -0.30681556010E+03 -0.42827917197E+03  0.53650652973E+03  0.92323468020E+02 0.  0.
        -11    1    4    4    0    0  0.68527363033E+02 -0.26018975739E+03 -0.36646852456E+03  0.45463599596E+03  0.00000000000E+00 0.  1.
         11    1    4    4    0    0 -0.26613205128E+02 -0.46625802709E+02 -0.61810647411E+02  0.81870533764E+02  0.00000000000E+00 0. -1.
        -13    1    3    3    0    0 -0.13749503806E+02  0.25817482623E+02 -0.76810442020E+02  0.82191454953E+02  0.00000000000E+00 0.  1.
         13    1    3    3    0    0 -0.60224787399E+02  0.24079061391E+02 -0.26436450975E+02  0.70040789223E+02  0.00000000000E+00 0. -1.
         21    1    1    2  502  501  0.32060133300E+02  0.25691901609E+03 -0.42914145172E+03  0.50119618770E+03  0.00000000000E+00 0. -1.
<scales pt_clust_5="13000.00000" pt_clust_6="13000.00000" pt_clust_7="13000.00000" pt_clust_8="13000.00000" pt_clust_9="276.87279"></scales>
<clustering>
<clus scale="   67.475">  7  8 -1 -1</clus>
<clus scale="   92.323">  5  6 -1 -1</clus>
<clus scale="  111.869">  1  7  2 -1</clus>
<clus scale="  276.873">  2  9  1 -1</clus>
<clus scale="  276.873">  2  5  1 -1</clus>
</clustering>
</event>
<event>
 9    1  0.2423659E-006  0.3264630E+03  0.7546771E-02  0.1110084E+00
         -2   -1    0    0    0  501 -0.00000000000E+00  0.00000000000E+00  0.15087901871E+03  0.15087901871E+03  0.00000000000E+00 0.  1.
          2   -1    0    0  502    0  0.00000000000E+00 -0.00000000000E+00 -0.11149883940E+04  0.11149883940E+04  0.00000000000E+00 0. -1.
         23    2    1    2    0    0  0.20356309171E+03 -0.23236746137E+03 -0.20137165262E+03  0.38016655435E+03  0.92431040027E+02 0.  0.
         23    2    1    2    0    0  0.66547441112E+02  0.45633083749E+02 -0.20388261597E+03  0.23751226078E+03  0.91285336592E+02 0.  0.
        -13    1    4    4    0    0  0.60813145688E+02 -0.89104731524E+01 -0.14254482729E+03  0.15523099886E+03  0.00000000000E+00 0.  1.
         13    1    4    4    0    0  0.57342954245E+01  0.54543556901E+02 -0.61337788680E+02  0.82281261923E+02  0.00000000000E+00 0. -1.
        -13    1    3    3    0    0  0.42289093191E+02 -0.93638253737E+02 -0.30118838401E+02  0.10706836317E+03  0.00000000000E+00 0. -1.
         13    1    3    3    0    0  0.16127399852E+03 -0.13872920763E+03 -0.17125281422E+03  0.27309819118E+03  0.00000000000E+00 0.  1.
         21    1    1    2  502  501 -0.27011053282E+03  0.18673437762E+03 -0.55885510667E+03  0.64818859754E+03  0.00000000000E+00 0. -1.
<scales pt_clust_5="13000.00000" pt_clust_6="13000.00000" pt_clust_7="13000.00000" pt_clust_8="13000.00000" pt_clust_9="313.10481"></scales>
<clustering>
<clus scale="   91.285">  5  6 -1 -1</clus>
<clus scale="   92.431">  7  8 -1 -1</clus>
<clus scale="  121.836">  2  5  1 -1</clus>
<clus scale="  313.105">  2  9  1 -1</clus>
<clus scale="  121.836">  2  5  1 -1</clus>
</clustering>
</event>
<event>
 9    1  0.2423659E-006  0.1011058E+03  0.7546771E-02  0.1279071E+00
          2   -1    0    0  502    0  0.00000000000E+00  0.00000000000E+00  0.35504272402E+03  0.35504272402E+03  0.00000000000E+00 0. -1.
         -2   -1    0    0    0  501 -0.00000000000E+00 -0.00000000000E+00 -0.59492218532E+02  0.59492218532E+02  0.00000000000E+00 0.  1.
         23    2    1    2    0    0  0.52582927233E+02  0.12077078024E+02  0.15580518092E+02  0.10435595354E+03  0.87957901549E+02 0.  0.
         23    2    1    2    0    0 -0.12693497489E+02 -0.62003192346E+01  0.21637765638E+03  0.23488166195E+03  0.90280319571E+02 0.  0.
        -11    1    3    3    0    0  0.53683952861E+02  0.39656386712E+02 -0.90615874655E+01  0.67355090151E+02  0.00000000000E+00 0.  1.
         11    1    3    3    0    0 -0.11010256277E+01 -0.27579308688E+02  0.24642105558E+02  0.37000863388E+02  0.00000000000E+00 0. -1.
        -13    1    4    4    0    0  0.13322631234E+02  0.27828963932E+02  0.27899140059E+02  0.41596944029E+02  0.00000000000E+00 0.  1.
         13    1    4    4    0    0 -0.26016128723E+02 -0.34029283166E+02  0.18847851632E+03  0.19328471792E+03  0.00000000000E+00 0. -1.
         21    1    1    2  502  501 -0.39889429744E+02 -0.58767587898E+01  0.63592331021E+02  0.75297327070E+02  0.00000000000E+00 0. -1.
<scales pt_clust_5="13000.00000" pt_clust_6="13000.00000" pt_clust_7="13000.00000" pt_clust_8="13000.00000" pt_clust_9="40.32001"></scales>
<clustering>
<clus scale="   40.320">  1  9  2 -1</clus>
<clus scale="   87.958">  5  6 -1 -1</clus>
<clus scale="   90.280">  7  8 -1 -1</clus>
<clus scale="   99.038">  2  5  1 -1</clus>
<clus scale="   40.320">  1  5  2 -1</clus>
</clustering>
</event>
<event>
 9    1  0.2423659E-006  0.1439113E+03  0.7546771E-02  0.1208335E+00
         -1   -1    0    0    0  501 -0.00000000000E+00  0.00000000000E+00  0.36727649580E+03  0.36727649580E+03  0.00000000000E+00 0.  1.
          1   -1    0    0  502    0  0.00000000000E+00 -0.00000000000E+00 -0.34043883580E+03  0.34043883580E+03  0.00000000000E+00 0. -1.
         23    2    1    2    0    0 -0.10254716332E+03 -0.67918399851E+02  0.30838145283E+03  0.34367103472E+03  0.88779670609E+02 0.  0.
         23    2    1    2    0    0  0.57737790715E+01  0.72918389652E+02 -0.80748797921E+02  0.14108977735E+03  0.89641111286E+02 0.  0.
        -11    1    4    4    0    0 -0.38827872672E+02  0.24774832751E+02 -0.15634351774E+02  0.48639788132E+02  0.00000000000E+00 0.  1.
         11    1    4    4    0    0  0.44601651744E+02  0.48143556901E+02 -0.65114446147E+02  0.92449989218E+02  0.00000000000E+00 0. -1.
        -11    1    3    3    0    0 -0.28367675680E+02 -0.19601281924E+02  0.20359729637E+03  0.20649647543E+03  0.00000000000E+00 0.  1.
         11    1    3    3    0    0 -0.74179487641E+02 -0.48317117927E+02  0.10478415646E+03  0.13717455929E+03  0.00000000000E+00 0. -1.
         21    1    1    2  502  501  0.96773384249E+02 -0.49999898015E+01 -0.20079499491E+03  0.22295451952E+03  0.00000000000E+00 0. -1.
<scales pt_clust_5="13000.00000" pt_clust_6="13000.00000" pt_clust_7="13000.00000" pt_clust_8="13000.00000" pt_clust_9="96.90247"></scales>
<clustering>
<clus scale="   88.780">  7  8 -1 -1</clus>
<clus scale="   89.641">  5  6 -1 -1</clus>
<clus scale="   96.902">  2  9  1 -1</clus>
<clus scale="  143.376">  1  7  2 -1</clus>
<clus scale="   96.902">  2  5  1 -1</clus>
</clustering>
</event>
<event>
 9    1  0.2423659E-006  0.9498699E+02  0.7546771E-02  0.1294177E+00
         -1   -1    0    0    0  501 -0.00000000000E+00  0.00000000000E+00  0.60931195053E+02  0.60931195053E+02  0.00000000000E+00 0.  1.
          1   -1    0    0  502    0  0.00000000000E+00 -0.00000000000E+00 -0.25683208558E+03  0.25683208558E+03  0.00000000000E+00 0. -1.
         23    2    1    2    0    0 -0.82170720456E+01 -0.18986496479E+02 -0.12798343659E+02  0.91708634351E+02  0.88423236158E+02 0.  0.
         23    2    1    2    0    0  0.18256390840E+02 -0.31181621946E+01 -0.17689206387E+03  0.20099523775E+03  0.93622991813E+02 0.  0.
        -11    1    3    3    0    0  0.29018544797E+02  0.18022141140E+02 -0.18591519746E+02  0.38891105923E+02  0.00000000000E+00 0. -1.
         11    1    3    3    0    0 -0.37235616843E+02 -0.37008637619E+02  0.57931760875E+01  0.52817528428E+02  0.00000000000E+00 0.  1.
        -13    1    4    4    0    0  0.36858450202E+02 -0.31074304072E+02 -0.48888075976E+02  0.68660044403E+02  0.00000000000E+00 0.  1.
         13    1    4    4    0    0 -0.18602059363E+02  0.27956141877E+02 -0.12800398790E+03  0.13233519335E+03  0.00000000000E+00 0. -1.
         21    1    1    2  502  501 -0.10039318794E+02  0.22104658674E+02 -0.62104829990E+01  0.25059408533E+02  0.00000000000E+00 0. -1.
<scales pt_clust_5="13000.00000" pt_clust_6="13000.00000" pt_clust_7="13000.00000" pt_clust_8="13000.00000" pt_clust_9="24.27764"></scales>
<clustering>
<clus scale="   24.278">  1  9  2 -1</clus>
<clus scale="   88.423">  5  6 -1 -1</clus>
<clus scale="   89.866">  1  5  2 -1</clus>
<clus scale="   93.623">  7  8 -1 -1</clus>
<clus scale="   94.987">  2  5  1 -1</clus>
</clustering>
</event>
<event>
 9    1  0.2423659E-006  0.1555656E+03  0.7546771E-02  0.1208397E+00
         -1   -1    0    0    0  501 -0.00000000000E+00  0.00000000000E+00  0.39475258326E+02  0.39475258326E+02  0.00000000000E+00 0.  1.
          1   -1    0    0  502    0  0.00000000000E+00 -0.00000000000E+00 -0.10613364222E+04  0.10613364222E+04  0.00000000000E+00 0. -1.
         23    2    1    2    0    0 -0.19917351681E+02 -0.65110747002E+02 -0.24336875024E+03  0.26847297304E+03  0.90627139365E+02 0.  0.
         23    2    1    2    0    0  0.11370651019E+03 -0.40332871356E+02 -0.45190463405E+03  0.47656582954E+03  0.91330611732E+02 0.  0.
        -11    1    4    4    0    0  0.41502271516E+02  0.16132723888E+02 -0.63917977371E+02  0.77898723688E+02  0.00000000000E+00 0. -1.
         11    1    4    4    0    0  0.72204238674E+02 -0.56465595244E+02 -0.38798665668E+03  0.39866710585E+03  0.00000000000E+00 0.  1.
        -13    1    3    3    0    0 -0.51992829467E+02 -0.16893123957E+02 -0.10256302775E+03  0.11622308985E+03  0.00000000000E+00 0. -1.
         13    1    3    3    0    0  0.32075477785E+02 -0.48217623044E+02 -0.14080572249E+03  0.15224988320E+03  0.00000000000E+00 0.  1.
         21    1    1    2  502  501 -0.93789158508E+02  0.10544361836E+03 -0.32658777963E+03  0.35577287799E+03  0.00000000000E+00 0. -1.
<scales pt_clust_5="13000.00000" pt_clust_6="13000.00000" pt_clust_7="13000.00000" pt_clust_8="13000.00000" pt_clust_9="125.93402"></scales>
<clustering>
<clus scale="   90.627">  7  8 -1 -1</clus>
<clus scale="   91.331">  5  6 -1 -1</clus>
<clus scale="  113.355">  1  7  2 -1</clus>
<clus scale="  125.934">  1  9  2 -1</clus>
<clus scale="  155.566">  2  5  1 -1</clus>
</clustering>
</event>
<event>
 9    1  0.2423659E-006  0.2064264E+03  0.7546771E-02  0.1154752E+00
         -4   -1    0    0    0  501 -0.00000000000E+00  0.00000000000E+00  0.20718445588E+03  0.20718445588E+03  0.00000000000E+00 0.  1.
          4   -1    0    0  502    0  0.00000000000E+00 -0.00000000000E+00 -0.13333223059E+04  0.13333223059E+04  0.00000000000E+00 0. -1.
         23    2    1    2    0    0 -0.12191829341E+03 -0.56347916445E+02  0.13457877742E+03  0.21030151134E+03  0.89867237544E+02 0.  0.
         23    2    1    2    0    0  0.11637087422E+02 -0.15808076004E+03 -0.57138889243E+03  0.59992151932E+03  0.91080263770E+02 0.  0.
        -11    1    3    3    0    0 -0.42160532563E+02 -0.30224135309E+02  0.20953349853E+00  0.51875357979E+02  0.00000000000E+00 0. -1.
         11    1    3    3    0    0 -0.79757760845E+02 -0.26123781136E+02  0.13436924392E+03  0.15842615336E+03  0.00000000000E+00 0.  1.
        -11    1    4    4    0    0 -0.27760084490E+02 -0.10620545517E+03 -0.43701736512E+03  0.45059338479E+03  0.00000000000E+00 0. -1.
         11    1    4    4    0    0  0.39397171912E+02 -0.51875304871E+02 -0.13437152731E+03  0.14932813453E+03  0.00000000000E+00 0.  1.
         21    1    1    2  502  501  0.11028120599E+03  0.21442867648E+03 -0.68932773502E+03  0.73028373113E+03  0.00000000000E+00 0. -1.
<scales pt_clust_5="13000.00000" pt_clust_6="13000.00000" pt_clust_7="13000.00000" pt_clust_8="13000.00000" pt_clust_9="185.24640"></scales>
<clustering>
<clus scale="   89.867">  5  6 -1 -1</clus>
<clus scale="   91.080">  7  8 -1 -1</clus>
<clus scale="  161.602">  1  5  2 -1</clus>
<clus scale="  185.246">  1  9  2 -1</clus>
<clus scale="  206.426">  2  5  1 -1</clus>
</clustering>
</event>
<event>
 9    1  0.2423659E-006  0.1066268E+03  0.7546771E-02  0.1267637E+00
         -1   -1    0    0    0  501 -0.00000000000E+00  0.00000000000E+00  0.46252900431E+03  0.46252900431E+03  0.00000000000E+00 0.  1.
          1   -1    0    0  502    0  0.00000000000E+00 -0.00000000000E+00 -0.73647543636E+02  0.73647543636E+02  0.00000000000E+00 0. -1.
         23    2    1    2    0    0  0.45258108312E+02 -0.30322059612E+02  0.33847608658E+03  0.35473667973E+03  0.91128080719E+02 0.  0.
         23    2    1    2    0    0 -0.75294689832E+02 -0.70073057622E+01  0.79277404761E+01  0.11740841417E+03  0.89462249012E+02 0.  0.
        -13    1    4    4    0    0  0.16479714108E+02 -0.11611636523E+02 -0.11891491039E+02  0.23405525821E+02  0.00000000000E+00 0.  1.
         13    1    4    4    0    0 -0.91774403941E+02  0.46043307603E+01  0.19819231515E+02  0.94002888351E+02  0.00000000000E+00 0. -1.
        -13    1    3    3    0    0  0.71810058866E+02 -0.33773830901E+02  0.24886480429E+03  0.26121073298E+03  0.00000000000E+00 0.  1.
         13    1    3    3    0    0 -0.26551950554E+02  0.34517712891E+01  0.89611282285E+02  0.93525946753E+02  0.00000000000E+00 0. -1.
         21    1    1    2  502  501  0.30036581521E+02  0.37329365374E+02  0.42477633618E+02  0.64031454040E+02  0.00000000000E+00 0.  1.
<scales pt_clust_5="13000.00000" pt_clust_6="13000.00000" pt_clust_7="13000.00000" pt_clust_8="13000.00000" pt_clust_9="47.91323"></scales>
<clustering>
<clus scale="   47.913">  2  9  1 -1</clus>
<clus scale="   89.462">  5  6 -1 -1</clus>
<clus scale="   91.128">  7  8 -1 -1</clus>
<clus scale="  105.207">  2  5  1 -1</clus>
<clus scale="   47.913">  2  5  1 -1</clus>
</clustering>
</event>
<event>
 9    1  0.2423659E-006  0.1958831E+03  0.7546771E-02  0.1165018E+00
          1   -1    0    0  502    0  0.00000000000E+00  0.00000000000E+00  0.67295445503E+03  0.67295445503E+03  0.00000000000E+00 0. -1.
         -1   -1    0    0    0  501 -0.00000000000E+00 -0.00000000000E+00 -0.15576258607E+03  0.15576258607E+03  0.00000000000E+00 0.  1.
         23    2    1    2    0    0  0.10549207809E+02  0.11588919171E+03  0.94124557735E+02  0.17616874303E+03  0.92921488974E+02 0.  0.
         23    2    1    2    0    0 -0.12575716550E+03  0.98259665360E+02  0.35517025483E+03  0.40007529601E+03  0.91893993560E+02 0.  0.
        -11    1    3    3    0    0  0.30285956669E+02  0.12394326467E+03  0.79953639423E+02  0.15057143316E+03  0.00000000000E+00 0. -1.
         11    1    3    3    0    0 -0.19736748860E+02 -0.80540729599E+01  0.14170918313E+02  0.25597309871E+02  0.00000000000E+00 0.  1.
        -13    1    4    4    0    0 -0.75531605519E+02  0.79090932102E+02  0.31358779164E+03  0.33211097850E+03  0.00000000000E+00 0. -1.
         13    1    4    4    0    0 -0.50225559986E+02  0.19168733258E+02  0.41582463192E+02  0.67964317518E+02  0.00000000000E+00 0.  1.
         21    1    1    2  502  501  0.11520795770E+03 -0.21414885707E+03  0.67897056396E+02  0.25247300206E+03  0.00000000000E+00 0.  1.
<scales pt_clust_5="13000.00000" pt_clust_6="13000.00000" pt_clust_7="13000.00000" pt_clust_8="13000.00000" pt_clust_9="172.99040"></scales>
<clustering>
<clus scale="   91.894">  7  8 -1 -1</clus>
<clus scale="   92.921">  5  6 -1 -1</clus>
<clus scale="  148.916">  2  5  1 -1</clus>
<clus scale="  172.990">  2  9  1 -1</clus>
<clus scale="  195.883">  1  5  2 -1</clus>
</clustering>
</event>
<event>
 9    1  0.2423659E-006  0.1594812E+03  0.7546771E-02  0.1205253E+00
          1   -1    0    0  502    0  0.00000000000E+00  0.00000000000E+00  0.24436621892E+03  0.24436621892E+03  0.00000000000E+00 0. -1.
         -1   -1    0    0    0  501 -0.00000000000E+00 -0.00000000000E+00 -0.18816913596E+03  0.18816913596E+03  0.00000000000E+00 0.  1.
         23    2    1    2    0    0  0.60197336358E+02  0.29588188359E+02 -0.15355004468E+02  0.11359819249E+03  0.90385800768E+02 0.  0.
         23    2    1    2    0    0 -0.34424727510E+02 -0.14421847266E+03  0.97822370735E+02  0.19854423390E+03  0.88693668766E+02 0.  0.
        -11    1    3    3    0    0  0.27327385641E+02 -0.21679922676E+02 -0.35189772989E+02  0.49549219733E+02  0.00000000000E+00 0.  1.
         11    1    3    3    0    0  0.32869950717E+02  0.51268111035E+02  0.19834768521E+02  0.64048972760E+02  0.00000000000E+00 0. -1.
        -13    1    4    4    0    0  0.21061083580E+02 -0.61484760619E+02  0.69116415100E+02  0.94873725901E+02  0.00000000000E+00 0. -1.
         13    1    4    4    0    0 -0.55485811090E+02 -0.82733712039E+02  0.28705955634E+02  0.10367050800E+03  0.00000000000E+00 0.  1.
         21    1    1    2  502  501 -0.25772608848E+02  0.11463028430E+03 -0.26270283306E+02  0.12039292849E+03  0.00000000000E+00 0.  1.
<scales pt_clust_5="13000.00000" pt_clust_6="13000.00000" pt_clust_7="13000.00000" pt_clust_8="13000.00000" pt_clust_9="132.54317"></scales>
<clustering>
<clus scale="   88.694">  7  8 -1 -1</clus>
<clus scale="   90.386">  5  6 -1 -1</clus>
<clus scale="  112.556">  2  5  1 -1</clus>
<clus scale="  132.543">  2  9  1 -1</clus>
<clus scale="  159.481">  1  5  2 -1</clus>
</clustering>
</event>
<event>
 9    1  0.2423659E-006  0.2719161E+03  0.7546771E-02  0.1120037E+00
          1   -1    0    0  502    0  0.00000000000E+00  0.00000000000E+00  0.10562394733E+04  0.10562394733E+04  0.00000000000E+00 0. -1.
         -1   -1    0    0    0  501 -0.00000000000E+00 -0.00000000000E+00 -0.37769615450E+03  0.37769615450E+03  0.00000000000E+00 0.  1.
         23    2    1    2    0    0  0.12937530463E+03 -0.34919237470E+02 -0.28412723540E+03  0.32806986208E+03  0.94573917732E+02 0.  0.
         23    2    1    2    0    0 -0.15786949103E+03  0.25788874715E+03  0.61831031458E+03  0.69463432781E+03  0.93700705164E+02 0.  0.
        -11    1    3    3    0    0  0.53119635412E+02  0.24668582067E+02 -0.59534216703E+02  0.83513816617E+02  0.00000000000E+00 0. -1.
         11    1    3    3    0    0  0.76255669219E+02 -0.59587819537E+02 -0.22459301869E+03  0.24455604546E+03  0.00000000000E+00 0.  1.
        -13    1    4    4    0    0 -0.13105536646E+03  0.14038715381E+03  0.43164064064E+03  0.47243804322E+03  0.00000000000E+00 0.  1.
         13    1    4    4    0    0 -0.26814124570E+02  0.11750159334E+03  0.18666967394E+03  0.22219628459E+03  0.00000000000E+00 0. -1.
         21    1    1    2  502  501  0.28494186399E+02 -0.22296950968E+03  0.34436023966E+03  0.41123143795E+03  0.00000000000E+00 0.  1.
<scales pt_clust_5="13000.00000" pt_clust_6="13000.00000" pt_clust_7="13000.00000" pt_clust_8="13000.00000" pt_clust_9="255.26171"></scales>
<clustering>
<clus scale="   93.701">  7  8 -1 -1</clus>
<clus scale="   94.574">  5  6 -1 -1</clus>
<clus scale="  164.017">  2  5  1 -1</clus>
<clus scale="  255.262">  1  9  2 -1</clus>
<clus scale="  255.262">  1  5  2 -1</clus>
</clustering>
</event>
<event>
 9    1  0.2423659E-006  0.1766993E+03  0.7546771E-02  0.1171239E+00
         -1   -1    0    0    0  501 -0.00000000000E+00  0.00000000000E+00  0.43372294622E+03  0.43372294622E+03  0.00000000000E+00 0.  1.
          1   -1    0    0  502    0  0.00000000000E+00 -0.00000000000E+00 -0.12844230353E+04  0.12844230353E+04  0.00000000000E+00 0. -1.
         23    2    1    2    0    0 -0.12052467062E+03 -0.87549834744E+02  0.36777960918E+03  0.40686139771E+03  0.89906541605E+02 0.  0.
         23    2    1    2    0    0  0.20955121489E+03  0.18144940979E+03 -0.10920058216E+04  0.11303467567E+04  0.91495771163E+02 0.  0.
        -11    1    3    3    0    0 -0.64871617378E+02 -0.72082038391E+02  0.31137785109E+03  0.32612928901E+03  0.00000000000E+00 0.  1.
         11    1    3    3    0    0 -0.55653053244E+02 -0.15467796353E+02  0.56401758093E+02  0.80732108702E+02  0.00000000000E+00 0. -1.
        -11    1    4    4    0    0  0.69805178546E+02  0.75698990043E+02 -0.58282578949E+03  0.59185217828E+03  0.00000000000E+00 0.  1.
         11    1    4    4    0    0  0.13974603634E+03  0.10575041975E+03 -0.50918003208E+03  0.53849457845E+03  0.00000000000E+00 0. -1.
         21    1    1    2  502  501 -0.89026544266E+02 -0.93899575046E+02 -0.12647387667E+03  0.18093782705E+03  0.00000000000E+00 0. -1.
<scales pt_clust_5="13000.00000" pt_clust_6="13000.00000" pt_clust_7="13000.00000" pt_clust_8="13000.00000" pt_clust_9="129.39419"></scales>
<clustering>
<clus scale="   89.907">  5  6 -1 -1</clus>
<clus scale="   91.496">  7  8 -1 -1</clus>
<clus scale="  129.394">  2  9  1 -1</clus>
<clus scale="  175.882">  1  5  2 -1</clus>
<clus scale="  129.394">  2  5  1 -1</clus>
</clustering>
</event>
<event>
 9    1  0.2423659E-006  0.1267619E+03  0.7546771E-02  0.1232893E+00
          1   -1    0    0  502    0  0.00000000000E+00  0.00000000000E+00  0.53933080168E+03  0.53933080168E+03  0.00000000000E+00 0. -1.
         -1   -1    0    0    0  501 -0.00000000000E+00 -0.00000000000E+00 -0.12679989854E+03  0.12679989854E+03  0.00000000000E+00 0.  1.
         23    2    1    2    0    0 -0.96873366596E+01  0.41765505372E+02  0.63674704650E+02  0.11957379465E+03  0.91680000126E+02 0.  0.
         23    2    1    2    0    0 -0.26097459105E+00 -0.10550236034E+03  0.42486582412E+03  0.44686328108E+03  0.89693964808E+02 0.  0.
        -11    1    4    4    0    0 -0.21745212938E+02 -0.47469513379E+02  0.73903810275E+02  0.90487469626E+02  0.00000000000E+00 0.  1.
         11    1    4    4    0    0  0.21484238347E+02 -0.58032846960E+02  0.35096201385E+03  0.35637581145E+03  0.00000000000E+00 0. -1.
        -11    1    3    3    0    0 -0.42358298437E+02  0.30794260320E+01  0.52839063705E+02  0.67791407747E+02  0.00000000000E+00 0. -1.
         11    1    3    3    0    0  0.32670961777E+02  0.38686079340E+02  0.10835640945E+02  0.51782386898E+02  0.00000000000E+00 0.  1.
         21    1    1    2  502  501  0.99483112507E+01  0.63736854967E+02 -0.76009625625E+02  0.99693624497E+02  0.00000000000E+00 0.  1.
<scales pt_clust_5="13000.00000" pt_clust_6="13000.00000" pt_clust_7="13000.00000" pt_clust_8="13000.00000" pt_clust_9="64.50857"></scales>
<clustering>
<clus scale="   64.509">  2  9  1 -1</clus>
<clus scale="   89.694">  5  6 -1 -1</clus>
<clus scale="   91.680">  7  8 -1 -1</clus>
<clus scale="  125.333">  1  5  2 -1</clus>
<clus scale="  125.333">  1  5  2 -1</clus>
</clustering>
</event>
<event>
 9    1  0.2423659E-006  0.1015982E+03  0.7546771E-02  0.1280595E+00
          1   -1    0    0  502    0  0.00000000000E+00  0.00000000000E+00  0.28421208711E+03  0.28421208711E+03  0.00000000000E+00 0. -1.
         -1   -1    0    0    0  501 -0.00000000000E+00 -0.00000000000E+00 -0.67449263090E+02  0.67449263090E+02  0.00000000000E+00 0.  1.
         23    2    1    2    0    0 -0.35499412557E+02  0.14380536657E+02  0.53546289615E+02  0.11203805493E+03  0.90654908828E+02 0.  0.
         23    2    1    2    0    0 -0.17639070851E+02 -0.35484614137E+02  0.14563034759E+03  0.17980394663E+03  0.97729045951E+02 0.  0.
        -11    1    3    3    0    0 -0.47301172522E+01  0.36484267728E+02  0.63031990950E+02  0.72982927346E+02  0.00000000000E+00 0. -1.
         11    1    3    3    0    0 -0.30769295305E+02 -0.22103731071E+02 -0.94857013353E+01  0.39055127584E+02  0.00000000000E+00 0.  1.
        -13    1    4    4    0    0 -0.33431643387E+02 -0.55185787309E+02  0.52116927292E+02  0.82941666313E+02  0.00000000000E+00 0.  1.
         13    1    4    4    0    0  0.15792572537E+02  0.19701173172E+02  0.93513420301E+02  0.96862280317E+02  0.00000000000E+00 0. -1.
         21    1    1    2  502  501  0.53138483407E+02  0.21104077480E+02  0.17586186812E+02  0.59819348640E+02  0.00000000000E+00 0. -1.
<scales pt_clust_5="13000.00000" pt_clust_6="13000.00000" pt_clust_7="13000.00000" pt_clust_8="13000.00000" pt_clust_9="57.17587"></scales>
<clustering>
<clus scale="   57.176">  2  9  1 -1</clus>
<clus scale="   90.655">  5  6 -1 -1</clus>
<clus scale="   94.813">  2  5  1 -1</clus>
<clus scale="   97.729">  7  8 -1 -1</clus>
<clus scale="  101.598">  1  5  2 -1</clus>
</clustering>
</event>
<event>
 9    1  0.2423659E-006  0.9720777E+02  0.7546771E-02  0.1287580E+00
         -1   -1    0    0    0  501 -0.00000000000E+00  0.00000000000E+00  0.16726276513E+03  0.16726276513E+03  0.00000000000E+00 0.  1.
          1   -1    0    0  502    0  0.00000000000E+00 -0.00000000000E+00 -0.19304024692E+03  0.19304024692E+03  0.00000000000E+00 0. -1.
         23    2    1    2    0    0  0.40837088807E+02 -0.24147951197E+01  0.76906691630E+02  0.12681871386E+03  0.92167499210E+02 0.  0.
         23    2    1    2    0    0  0.21602891292E+02 -0.35747320257E+02  0.47383096437E+01  0.10350473044E+03  0.94584469275E+02 0.  0.
        -11    1    3    3    0    0  0.68743662975E+02 -0.63743405584E+01  0.68854063328E+02  0.97504899638E+02  0.00000000000E+00 0.  1.
         11    1    3    3    0    0 -0.27906574167E+02  0.39595454387E+01  0.80526283021E+01  0.29313814225E+02  0.00000000000E+00 0. -1.
        -13    1    4    4    0    0 -0.33359588068E+02 -0.35107062507E+02  0.19911613018E+01  0.48469915177E+02  0.00000000000E+00 0. -1.
         13    1    4    4    0    0  0.54962479360E+02 -0.64025774998E+00  0.27471483420E+01  0.55034815266E+02  0.00000000000E+00 0.  1.
         21    1    1    2  502  501 -0.62439980099E+02  0.38162115376E+02 -0.10742248306E+03  0.12997956775E+03  0.00000000000E+00 0. -1.
<scales pt_clust_5="13000.00000" pt_clust_6="13000.00000" pt_clust_7="13000.00000" pt_clust_8="13000.00000" pt_clust_9="73.17854"></scales>
<clustering>
<clus scale="   73.179">  2  9  1 -1</clus>
<clus scale="   92.167">  5  6 -1 -1</clus>
<clus scale="   94.584">  7  8 -1 -1</clus>
<clus scale="   94.858">  1  5  2 -1</clus>
<clus scale="   73.179">  2  5  1 -1</clus>
</clustering>
</event>
<event>
 9    1  0.2423659E-006  0.1587303E+03  0.7546771E-02  0.1213630E+00
         -1   -1    0    0    0  501 -0.00000000000E+00  0.00000000000E+00  0.10514602350E+04  0.10514602350E+04  0.00000000000E+00 0.  1.
          1   -1    0    0  502    0  0.00000000000E+00 -0.00000000000E+00 -0.38855354130E+02  0.38855354130E+02  0.00000000000E+00 0. -1.
         23    2    1    2    0    0 -0.26002515500E+02  0.11749494520E+03  0.49569662607E+03  0.51802704529E+03  0.90308812393E+02 0.  0.
         23    2    1    2    0    0 -0.21948767325E+02  0.17418482821E+02  0.14323038465E+03  0.17211844347E+03  0.91239594291E+02 0.  0.
        -11    1    4    4    0    0  0.35299800518E+02  0.24424872631E+01  0.42599455158E+02  0.55378292141E+02  0.00000000000E+00 0.  1.
         11    1    4    4    0    0 -0.57248567844E+02  0.14975995558E+02  0.10063092949E+03  0.11674015133E+03  0.00000000000E+00 0. -1.
        -13    1    3    3    0    0 -0.58459426789E+02  0.89536449618E+02  0.33059680195E+03  0.34746010684E+03  0.00000000000E+00 0. -1.
         13    1    3    3    0    0  0.32456911289E+02  0.27958495582E+02  0.16509982413E+03  0.17056693845E+03  0.00000000000E+00 0.  1.
         21    1    1    2  502  501  0.47951282825E+02 -0.13491342802E+03  0.37367787014E+03  0.40017010035E+03  0.00000000000E+00 0.  1.
<scales pt_clust_5="13000.00000" pt_clust_6="13000.00000" pt_clust_7="13000.00000" pt_clust_8="13000.00000" pt_clust_9="130.53598"></scales>
<clustering>
<clus scale="   90.309">  7  8 -1 -1</clus>
<clus scale="   91.240">  5  6 -1 -1</clus>
<clus scale="   95.445">  2  5  1 -1</clus>
<clus scale="  130.536">  2  9  1 -1</clus>
<clus scale="   95.445">  2  5  1 -1</clus>
</clustering>
</event>
<event>
 9    1  0.2423659E-006  0.2162516E+03  0.7546771E-02  0.1170165E+00
          2   -1    0    0  502    0  0.00000000000E+00  0.00000000000E+00  0.77612522501E+03  0.77612522501E+03  0.00000000000E+00 0. -1.
         -2   -1    0    0    0  501 -0.00000000000E+00 -0.00000000000E+00 -0.93147555461E+02  0.93147555461E+02  0.00000000000E+00 0.  1.
         23    2    1    2    0    0  0.67202194405E+02  0.19462722180E+03  0.18358798400E+03  0.29046750382E+03  0.90944667317E+02 0.  0.
         23    2    1    2    0    0 -0.39497507184E+02 -0.10511324267E+02  0.24128113298E+03  0.26055028717E+03  0.89438951246E+02 0.  0.
        -11    1    4    4    0    0 -0.31359714276E+02 -0.40381454277E+02  0.21150156039E+03  0.21759366622E+03  0.00000000000E+00 0. -1.
         11    1    4    4    0    0 -0.81377929077E+01  0.29870130010E+02  0.29779572591E+02  0.42956620955E+02  0.00000000000E+00 0.  1.
        -13    1    3    3    0    0  0.39991593093E+02  0.23334744612E+02  0.67155741866E+02  0.81570408174E+02  0.00000000000E+00 0. -1.
         13    1    3    3    0    0  0.27210601312E+02  0.17129247718E+03  0.11643224213E+03  0.20889709565E+03  0.00000000000E+00 0.  1.
         21    1    1    2  502  501 -0.27704687221E+02 -0.18411589753E+03  0.25810855257E+03  0.31825498947E+03  0.00000000000E+00 0. -1.
<scales pt_clust_5="13000.00000" pt_clust_6="13000.00000" pt_clust_7="13000.00000" pt_clust_8="13000.00000" pt_clust_9="196.19838"></scales>
<clustering>
<clus scale="   89.439">  5  6 -1 -1</clus>
<clus scale="   90.945">  7  8 -1 -1</clus>
<clus scale="   98.335">  1  5  2 -1</clus>
<clus scale="  196.198">  1  9  2 -1</clus>
<clus scale="   98.335">  1  5  2 -1</clus>
</clustering>
</event>
<event>
 9    1  0.2423659E-006  0.1041471E+03  0.7546771E-02  0.1271913E+00
         -2   -1    0    0    0  501 -0.00000000000E+00  0.00000000000E+00  0.39713053346E+02  0.39713053346E+02  0.00000000000E+00 0.  1.
          2   -1    0    0  502    0  0.00000000000E+00 -0.00000000000E+00 -0.69218453137E+03  0.69218453137E+03  0.00000000000E+00 0. -1.
         23    2    1    2    0    0  0.48578834126E+02  0.26006934806E+02 -0.15244269725E+03  0.18647061315E+03  0.92175104230E+02 0.  0.
         23    2    1    2    0    0 -0.43634503122E+02  0.63843228102E+02 -0.21417846647E+03  0.24574730865E+03  0.92408855467E+02 0.  0.
        -13    1    4    4    0    0  0.10051037069E+02  0.50936508981E+02 -0.48266122178E+02  0.70888432367E+02  0.00000000000E+00 0.  1.
         13    1    4    4    0    0 -0.53685540192E+02  0.12906719121E+02 -0.16591234430E+03  0.17485887628E+03  0.00000000000E+00 0. -1.
        -13    1    3    3    0    0  0.62834286520E+02 -0.13243387804E+02 -0.10670609474E+03  0.12453804855E+03  0.00000000000E+00 0.  1.
         13    1    3    3    0    0 -0.14255452395E+02  0.39250322610E+02 -0.45736602514E+02  0.61932564597E+02  0.00000000000E+00 0. -1.
         21    1    1    2  502  501 -0.49443310034E+01 -0.89850162908E+02 -0.28585031430E+03  0.29967966292E+03  0.00000000000E+00 0.  1.
<scales pt_clust_5="13000.00000" pt_clust_6="13000.00000" pt_clust_7="13000.00000" pt_clust_8="13000.00000" pt_clust_9="89.98610"></scales>
<clustering>
<clus scale="   89.986">  2  9  1 -1</clus>
<clus scale="   92.175">  7  8 -1 -1</clus>
<clus scale="   92.409">  5  6 -1 -1</clus>
<clus scale="  103.940">  1  7  2 -1</clus>
<clus scale="   89.986">  2  5  1 -1</clus>
</clustering>
</event>
<event>
 9    1  0.2423659E-006  0.9306971E+02  0.7546771E-02  0.1296079E+00
          1   -1    0    0  502    0  0.00000000000E+00  0.00000000000E+00  0.57474533813E+03  0.57474533813E+03  0.00000000000E+00 0. -1.
         -1   -1    0    0    0  501 -0.00000000000E+00 -0.00000000000E+00 -0.30989171221E+02  0.30989171221E+02  0.00000000000E+00 0.  1.
         23    2    1    2    0    0  0.43139821665E+01  0.16234603844E+02  0.68944382179E+02  0.11539498572E+03  0.90997264200E+02 0.  0.
         23    2    1    2    0    0 -0.20882157275E+02 -0.10963489952E+00  0.31252312829E+03  0.32641232314E+03  0.91859797900E+02 0.  0.
        -11    1    3    3    0    0  0.13929439294E+02  0.46956439056E+02  0.67201582526E+02  0.83156413715E+02  0.00000000000E+00 0.  1.
         11    1    3    3    0    0 -0.96154571278E+01 -0.30721835212E+02  0.17427996529E+01  0.32238572009E+02  0.00000000000E+00 0. -1.
        -13    1    4    4    0    0 -0.57024150808E+02 -0.35714433529E+01  0.17035223896E+03  0.17967858610E+03  0.00000000000E+00 0.  1.
         13    1    4    4    0    0  0.36141993533E+02  0.34618084533E+01  0.14217088933E+03  0.14673373704E+03  0.00000000000E+00 0. -1.
         21    1    1    2  502  501  0.16568175108E+02 -0.16124968945E+02  0.16228865644E+03  0.16392720049E+03  0.00000000000E+00 0. -1.
<scales pt_clust_5="13000.00000" pt_clust_6="13000.00000" pt_clust_7="13000.00000" pt_clust_8="13000.00000" pt_clust_9="23.11967"></scales>
<clustering>
<clus scale="   23.120">  1  9  2 -1</clus>
<clus scale="   90.997">  5  6 -1 -1</clus>
<clus scale="   91.860">  7  8 -1 -1</clus>
<clus scale="   92.218">  2  5  1 -1</clus>
<clus scale="   23.120">  1  5  2 -1</clus>
</clustering>
</event>
<event>
 9    1  0.2423659E-006  0.9171133E+02  0.7546771E-02  0.1299365E+00
          1   -1    0    0  502    0  0.00000000000E+00  0.00000000000E+00  0.11464764707E+03  0.11464764707E+03  0.00000000000E+00 0. -1.
         -1   -1    0    0    0  501 -0.00000000000E+00 -0.00000000000E+00 -0.20276485285E+03  0.20276485285E+03  0.00000000000E+00 0.  1.
         23    2    1    2    0    0  0.18782334658E+02  0.34928630840E+02 -0.79046097349E+02  0.12600516200E+03  0.89756503928E+02 0.  0.
         23    2    1    2    0    0  0.21398215497E+02  0.73268759584E+01  0.51941363898E+02  0.10701227736E+03  0.90786317719E+02 0.  0.
        -11    1    3    3    0    0 -0.25748995278E+02  0.30581475702E+02 -0.69617174708E+02  0.80279439636E+02  0.00000000000E+00 0.  1.
         11    1    3    3    0    0  0.44531329936E+02  0.43471551378E+01 -0.94289226419E+01  0.45725722366E+02  0.00000000000E+00 0. -1.
        -13    1    4    4    0    0  0.39343971462E+02 -0.22228138698E+02  0.56266417166E+02  0.72166113524E+02  0.00000000000E+00 0. -1.
         13    1    4    4    0    0 -0.17945755965E+02  0.29555014657E+02 -0.43250532680E+01  0.34846163839E+02  0.00000000000E+00 0.  1.
         21    1    1    2  502  501 -0.40180550155E+02 -0.42255506799E+02 -0.61012472329E+02  0.84395060550E+02  0.00000000000E+00 0.  1.
<scales pt_clust_5="13000.00000" pt_clust_6="13000.00000" pt_clust_7="13000.00000" pt_clust_8="13000.00000" pt_clust_9="58.30956"></scales>
<clustering>
<clus scale="   58.310">  2  9  1 -1</clus>
<clus scale="   89.757">  5  6 -1 -1</clus>
<clus scale="   90.692">  2  5  1 -1</clus>
<clus scale="   90.786">  7  8 -1 -1</clus>
<clus scale="   91.711">  1  5  2 -1</clus>
</clustering>
</event>
<event>
 9    1  0.2423659E-006  0.1173769E+03  0.7546771E-02  0.1248814E+00
         -2   -1    0    0    0  501 -0.00000000000E+00  0.00000000000E+00  0.13878868065E+03  0.13878868065E+03  0.00000000000E+00 0.  1.
          2   -1    0    0  502    0  0.00000000000E+00 -0.00000000000E+00 -0.19698867117E+03  0.19698867117E+03  0.00000000000E+00 0. -1.
         23    2    1    2    0    0  0.17642109954E+02  0.30097138794E+02 -0.17808898033E+02  0.10460142311E+03  0.96990819461E+02 0.  0.
         23    2    1    2    0    0  0.35236728927E+01 -0.10309517839E+03  0.10909498182E+02  0.13947830196E+03  0.93242412502E+02 0.  0.
        -11    1    4    4    0    0 -0.31860033267E+02 -0.91677805269E+01  0.19963740579E+02  0.38699623480E+02  0.00000000000E+00 0.  1.
         11    1    4    4    0    0  0.35383706160E+02 -0.93927397864E+02 -0.90542423970E+01  0.10077867848E+03  0.00000000000E+00 0. -1.
        -13    1    3    3    0    0 -0.39521481561E+01  0.53013155661E+02 -0.39617532662E+02  0.66299042545E+02  0.00000000000E+00 0.  1.
         13    1    3    3    0    0  0.21594258110E+02 -0.22916016867E+02  0.21808634629E+02  0.38302380562E+02  0.00000000000E+00 0. -1.
         21    1    1    2  502  501 -0.21165782847E+02  0.72998039596E+02 -0.51300590672E+02  0.91697626751E+02  0.00000000000E+00 0.  1.
<scales pt_clust_5="13000.00000" pt_clust_6="13000.00000" pt_clust_7="13000.00000" pt_clust_8="13000.00000" pt_clust_9="76.00463"></scales>
<clustering>
<clus scale="   76.005">  2  9  1 -1</clus>
<clus scale="   93.242">  5  6 -1 -1</clus>
<clus scale="   96.991">  7  8 -1 -1</clus>
<clus scale="  114.299">  2  5  1 -1</clus>
<clus scale="   76.005">  2  5  1 -1</clus>
</clustering>
</event>
<event>
 9    1  0.2423659E-006  0.1180464E+03  0.7546771E-02  0.1247866E+00
          2   -1    0    0  502    0  0.00000000000E+00  0.00000000000E+00  0.50470876813E+03  0.50470876813E+03  0.00000000000E+00 0. -1.
         -2   -1    0    0    0  501 -0.00000000000E+00 -0.00000000000E+00 -0.52970127779E+02  0.52970127779E+02  0.00000000000E+00 0.  1.
         23    2    1    2    0    0  0.75447937789E+02 -0.19696067125E+02  0.11881496455E+03  0.16650070176E+03  0.86747688771E+02 0.  0.
         23    2    1    2    0    0 -0.42212848232E+02  0.73149381690E+02  0.13544707153E+03  0.18391305659E+03  0.91352868592E+02 0.  0.
        -11    1    4    4    0    0 -0.62554896101E+02  0.70109984467E+02  0.13350358126E+03  0.16325357931E+03  0.00000000000E+00 0. -1.
         11    1    4    4    0    0  0.20342047869E+02  0.30393972230E+01  0.19434902709E+01  0.20659477279E+02  0.00000000000E+00 0.  1.
        -13    1    3    3    0    0  0.91697885684E+02 -0.51148193345E+01  0.79226560201E+02  0.12129101969E+03  0.00000000000E+00 0.  1.
         13    1    3    3    0    0 -0.16249947895E+02 -0.14581247790E+02  0.39588404351E+02  0.45209682069E+02  0.00000000000E+00 0. -1.
         21    1    1    2  502  501 -0.33235089558E+02 -0.53453314565E+02  0.19747660427E+03  0.20726513757E+03  0.00000000000E+00 0. -1.
<scales pt_clust_5="13000.00000" pt_clust_6="13000.00000" pt_clust_7="13000.00000" pt_clust_8="13000.00000" pt_clust_9="62.94305"></scales>
<clustering>
<clus scale="   62.943">  1  9  2 -1</clus>
<clus scale="   86.748">  7  8 -1 -1</clus>
<clus scale="   91.353">  5  6 -1 -1</clus>
<clus scale="  114.520">  2  7  1 -1</clus>
<clus scale="   62.943">  1  5  2 -1</clus>
</clustering>
</event>
<event>
 9    1  0.2423659E-006  0.1374516E+03  0.7546771E-02  0.1216801E+00
          2   -1    0    0  502    0  0.00000000000E+00  0.00000000000E+00  0.90949057536E+03  0.90949057536E+03  0.00000000000E+00 0. -1.
         -2   -1    0    0    0  501 -0.00000000000E+00 -0.00000000000E+00 -0.87105513450E+02  0.87105513450E+02  0.00000000000E+00 0.  1.
         23    2    1    2    0    0 -0.93796511701E+02 -0.13148388107E+02  0.64075193580E+01  0.13178042223E+03  0.91402175361E+02 0.  0.
         23    2    1    2    0    0  0.15802224885E+03 -0.42248825034E+02  0.42069829260E+03  0.46053917459E+03  0.91396299627E+02 0.  0.
        -13    1    4    4    0    0  0.96470393199E+02 -0.47456237624E+02  0.16100790741E+03  0.19360314435E+03  0.00000000000E+00 0.  1.
         13    1    4    4    0    0  0.61551855655E+02  0.52074125905E+01  0.25969038519E+03  0.26693603024E+03  0.00000000000E+00 0. -1.
        -13    1    3    3    0    0 -0.68828851752E+02  0.27320471817E+02 -0.20900495756E+02  0.76945758406E+02  0.00000000000E+00 0.  1.
         13    1    3    3    0    0 -0.24967659949E+02 -0.40468859924E+02  0.27308015114E+02  0.54834663820E+02  0.00000000000E+00 0. -1.
         21    1    1    2  502  501 -0.64225737154E+02  0.55397213141E+02  0.39527924995E+03  0.40427649199E+03  0.00000000000E+00 0. -1.
<scales pt_clust_5="13000.00000" pt_clust_6="13000.00000" pt_clust_7="13000.00000" pt_clust_8="13000.00000" pt_clust_9="84.81625"></scales>
<clustering>
<clus scale="   84.816">  1  9  2 -1</clus>
<clus scale="   91.396">  5  6 -1 -1</clus>
<clus scale="   91.402">  7  8 -1 -1</clus>
<clus scale="  137.448">  1  5  2 -1</clus>
<clus scale="   84.816">  1  5  2 -1</clus>
</clustering>
</event>
<event>
 9    1  0.2423659E-006  0.1508826E+03  0.7546771E-02  0.1199438E+00
          2   -1    0    0  502    0  0.00000000000E+00  0.00000000000E+00  0.40863857532E+03  0.40863857532E+03  0.00000000000E+00 0. -1.
         -2   -1    0    0    0  501 -0.00000000000E+00 -0.00000000000E+00 -0.19350162568E+03  0.19350162568E+03  0.00000000000E+00 0.  1.
         23    2    1    2    0    0 -0.18974687883E+03  0.13785414800E+02  0.16850059729E+03  0.26976129318E+03  0.90469819949E+02 0.  0.
         23    2    1    2    0    0  0.86683777299E+02 -0.14696287101E+02  0.14332728386E+03  0.19105669152E+03  0.90718746543E+02 0.  0.
        -11    1    3    3    0    0 -0.12953563900E+02 -0.20268065033E+02  0.46265359019E+02  0.52144728622E+02  0.00000000000E+00 0.  1.
         11    1    3    3    0    0 -0.17679331493E+03  0.34053479833E+02  0.12223523827E+03  0.21761656455E+03  0.00000000000E+00 0. -1.
        -13    1    4    4    0    0  0.18667454463E+02 -0.18504066220E+02 -0.59681487004E+01  0.26953536348E+02  0.00000000000E+00 0.  1.
         13    1    4    4    0    0  0.68016322836E+02  0.38077791190E+01  0.14929543256E+03  0.16410315517E+03  0.00000000000E+00 0. -1.
         21    1    1    2  502  501  0.10306310154E+03  0.91087230011E+00 -0.96690931504E+02  0.14132221631E+03  0.00000000000E+00 0.  1.
<scales pt_clust_5="13000.00000" pt_clust_6="13000.00000" pt_clust_7="13000.00000" pt_clust_8="13000.00000" pt_clust_9="103.06713"></scales>
<clustering>
<clus scale="   90.470">  5  6 -1 -1</clus>
<clus scale="   90.719">  7  8 -1 -1</clus>
<clus scale="  103.067">  2  9  1 -1</clus>
<clus scale="  150.733">  2  5  1 -1</clus>
<clus scale="  150.883">  1  5  2 -1</clus>
</clustering>
</event>
<event>
 9    1  0.2423659E-006  0.1757177E+03  0.7546771E-02  0.1196111E+00
         -2   -1    0    0    0  501 -0.00000000000E+00  0.00000000000E+00  0.41292724152E+03  0.41292724152E+03  0.00000000000E+00 0.  1.
          2   -1    0    0  502    0  0.00000000000E+00 -0.00000000000E+00 -0.18668344767E+03  0.18668344767E+03  0.00000000000E+00 0. -1.
         23    2    1    2    0    0 -0.52366823265E+02  0.12564908646E+03  0.14723709657E+03  0.22229922260E+03  0.95959390669E+02 0.  0.
         23    2    1    2    0    0  0.42693296811E+02  0.34137967247E+02 -0.95732488103E+02  0.14033201061E+03  0.86834587138E+02 0.  0.
        -13    1    3    3    0    0 -0.11936818248E+02  0.11621551000E+03  0.74535214818E+02  0.13857860817E+03  0.00000000000E+00 0. -1.
         13    1    3    3    0    0 -0.40430005017E+02  0.94335764540E+01  0.72701881755E+02  0.83720614433E+02  0.00000000000E+00 0.  1.
        -13    1    4    4    0    0  0.69080231043E+02  0.31131124157E+02 -0.66222341261E+02  0.10063112687E+03  0.00000000000E+00 0. -1.
         13    1    4    4    0    0 -0.26386934232E+02  0.30068430902E+01 -0.29510146842E+02  0.39700883745E+02  0.00000000000E+00 0.  1.
         21    1    1    2  502  501  0.96735264537E+01 -0.15978705370E+03  0.17473918538E+03  0.23697945597E+03  0.00000000000E+00 0.  1.
<scales pt_clust_5="13000.00000" pt_clust_6="13000.00000" pt_clust_7="13000.00000" pt_clust_8="13000.00000" pt_clust_9="147.20230"></scales>
<clustering>
<clus scale="   86.835">  7  8 -1 -1</clus>
<clus scale="   95.959">  5  6 -1 -1</clus>
<clus scale="  102.608">  2  7  1 -1</clus>
<clus scale="  147.202">  1  9  2 -1</clus>
<clus scale="  102.608">  2  5  1 -1</clus>
</clustering>
</event>
<event>
 9    1  0.2423659E-006  0.9783245E+02  0.7546771E-02  0.1290982E+00
          3   -1    0    0  502    0  0.00000000000E+00  0.00000000000E+00  0.66802097586E+02  0.66802097586E+02  0.00000000000E+00 0. -1.
         -3   -1    0    0    0  501 -0.00000000000E+00 -0.00000000000E+00 -0.55613096375E+03  0.55613096375E+03  0.00000000000E+00 0.  1.
         23    2    1    2    0    0  0.11814351684E+01 -0.47787155415E+02 -0.30839583487E+03  0.32532932001E+03  0.91903033042E+02 0.  0.
         23    2    1    2    0    0  0.38146455320E+02  0.77712492749E+01 -0.21435774546E+03  0.23229549353E+03  0.80600303370E+02 0.  0.
        -11    1    4    4    0    0  0.62512191108E+02  0.14184394596E+02 -0.16086034596E+03  0.17316183757E+03  0.00000000000E+00 0. -1.
         11    1    4    4    0    0 -0.24365735788E+02 -0.64131453209E+01 -0.53497399504E+02  0.59133655959E+02  0.00000000000E+00 0.  1.
        -13    1    3    3    0    0  0.37621381700E+02 -0.54324778684E+02 -0.18208255376E+03  0.19370236530E+03  0.00000000000E+00 0.  1.
         13    1    3    3    0    0 -0.36439946531E+02  0.65376232686E+01 -0.12631328111E+03  0.13162695471E+03  0.00000000000E+00 0. -1.
         21    1    1    2  502  501 -0.39327890488E+02  0.40015906140E+02  0.33424714163E+02  0.65308247805E+02  0.00000000000E+00 0. -1.
<scales pt_clust_5="13000.00000" pt_clust_6="13000.00000" pt_clust_7="13000.00000" pt_clust_8="13000.00000" pt_clust_9="56.10665"></scales>
<clustering>
<clus scale="   56.107">  1  9  2 -1</clus>
<clus scale="   80.600">  5  6 -1 -1</clus>
<clus scale="   87.301">  1  5  2 -1</clus>
<clus scale="   91.903">  7  8 -1 -1</clus>
<clus scale="   56.107">  1  5  2 -1</clus>
</clustering>
</event>
<event>
 9    1  0.2423659E-006  0.1113682E+03  0.7546771E-02  0.1258163E+00
         -1   -1    0    0    0  501 -0.00000000000E+00  0.00000000000E+00  0.81149236490E+02  0.81149236490E+02  0.00000000000E+00 0.  1.
          1   -1    0    0  502    0  0.00000000000E+00 -0.00000000000E+00 -0.36294573991E+03  0.36294573991E+03  0.00000000000E+00 0. -1.
         23    2    1    2    0    0 -0.39953100918E+02  0.48272144764E+02 -0.50823788077E+01  0.11068098402E+03  0.91093355495E+02 0.  0.
         23    2    1    2    0    0  0.80872460156E+02 -0.13421089498E+02 -0.13676531870E+03  0.18349848855E+03  0.90810034943E+02 0.  0.
        -13    1    3    3    0    0  0.19227758505E+02  0.25623875652E+02  0.24904391031E+02  0.40577313775E+02  0.00000000000E+00 0.  1.
         13    1    3    3    0    0 -0.59180859424E+02  0.22648269113E+02 -0.29986769839E+02  0.70103670241E+02  0.00000000000E+00 0. -1.
        -13    1    4    4    0    0  0.68731329756E+02  0.42779833926E+01 -0.30899669272E+02  0.75479046053E+02  0.00000000000E+00 0.  1.
         13    1    4    4    0    0  0.12141130400E+02 -0.17699072890E+02 -0.10586564943E+03  0.10801944250E+03  0.00000000000E+00 0. -1.
         21    1    1    2  502  501 -0.40919359237E+02 -0.34851055267E+02 -0.13994880591E+03  0.14991550383E+03  0.00000000000E+00 0. -1.
<scales pt_clust_5="13000.00000" pt_clust_6="13000.00000" pt_clust_7="13000.00000" pt_clust_8="13000.00000" pt_clust_9="53.74933"></scales>
<clustering>
<clus scale="   53.749">  2  9  1 -1</clus>
<clus scale="   90.810">  7  8 -1 -1</clus>
<clus scale="   91.093">  5  6 -1 -1</clus>
<clus scale="  111.137">  2  7  1 -1</clus>
<clus scale="   53.749">  2  5  1 -1</clus>
</clustering>
</event>
<event>
 9    1  0.2423659E-006  0.1463901E+03  0.7546771E-02  0.1205428E+00
          3   -1    0    0  502    0  0.00000000000E+00  0.00000000000E+00  0.62080701798E+03  0.62080701798E+03  0.00000000000E+00 0. -1.
         -3   -1    0    0    0  501 -0.00000000000E+00 -0.00000000000E+00 -0.10310082997E+03  0.10310082997E+03  0.00000000000E+00 0.  1.
         23    2    1    2    0    0 -0.22900490324E+02  0.95637036810E+02  0.71710764059E+02  0.15290139589E+03  0.92550137312E+02 0.  0.
         23    2    1    2    0    0 -0.48345731601E+02 -0.11269862309E+03  0.46988402666E+03  0.49394941341E+03  0.90314644925E+02 0.  0.
        -11    1    3    3    0    0  0.30185902172E+02  0.10565880223E+02  0.31420807410E+02  0.44834067997E+02  0.00000000000E+00 0.  1.
         11    1    3    3    0    0 -0.53086392496E+02  0.85071156587E+02  0.40289956649E+02  0.10806732789E+03  0.00000000000E+00 0. -1.
        -11    1    4    4    0    0  0.16048522204E+02 -0.12968739325E+02  0.20258298122E+02  0.28916118471E+02  0.00000000000E+00 0.  1.
         11    1    4    4    0    0 -0.64394253805E+02 -0.99729883767E+02  0.44962572854E+03  0.46503329494E+03  0.00000000000E+00 0. -1.
         21    1    1    2  502  501  0.71246221925E+02  0.17061586282E+02 -0.23888602719E+02  0.77057038646E+02  0.00000000000E+00 0.  1.
<scales pt_clust_5="13000.00000" pt_clust_6="13000.00000" pt_clust_7="13000.00000" pt_clust_8="13000.00000" pt_clust_9="73.26064"></scales>
<clustering>
<clus scale="   73.261">  2  9  1 -1</clus>
<clus scale="   90.315">  7  8 -1 -1</clus>
<clus scale="   92.550">  5  6 -1 -1</clus>
<clus scale="  144.987">  1  7  2 -1</clus>
<clus scale="  144.987">  1  5  2 -1</clus>
</clustering>
</event>
<event>
 9    1  0.2423659E-006  0.9324959E+02  0.7546771E-02  0.1295637E+00
          1   -1    0    0  502    0  0.00000000000E+00  0.00000000000E+00  0.46010931442E+03  0.46010931442E+03  0.00000000000E+00 0. -1.
         -1   -1    0    0    0  501 -0.00000000000E+00 -0.00000000000E+00 -0.24352133139E+03  0.24352133139E+03  0.00000000000E+00 0.  1.
         23    2    1    2    0    0 -0.62196022648E+00  0.19861104550E+02 -0.17638572759E+03  0.19938466844E+03  0.90815586783E+02 0.  0.
         23    2    1    2    0    0 -0.85504906626E+02 -0.79306585286E+01  0.25946993877E+02  0.12706063362E+03  0.89984297092E+02 0.  0.
        -11    1    4    4    0    0 -0.10961063750E+02  0.20971925911E+02 -0.23259433978E+02  0.33180835793E+02  0.00000000000E+00 0.  1.
         11    1    4    4    0    0 -0.74543842876E+02 -0.28902584440E+02  0.49206427855E+02  0.93879797828E+02  0.00000000000E+00 0. -1.
        -13    1    3    3    0    0  0.44185996874E+02  0.19107974436E+02 -0.92749963672E+02  0.10449915200E+03  0.00000000000E+00 0.  1.
         13    1    3    3    0    0 -0.44807957100E+02  0.75313011456E+00 -0.83635763923E+02  0.94885516447E+02  0.00000000000E+00 0. -1.
         21    1    1    2  502  501  0.86126866852E+02 -0.11930446022E+02  0.36702671674E+03  0.37718534374E+03  0.00000000000E+00 0. -1.
<scales pt_clust_5="13000.00000" pt_clust_6="13000.00000" pt_clust_7="13000.00000" pt_clust_8="13000.00000" pt_clust_9="86.94925"></scales>
<clustering>
<clus scale="   86.949">  1  9  2 -1</clus>
<clus scale="   89.984">  5  6 -1 -1</clus>
<clus scale="   90.816">  7  8 -1 -1</clus>
<clus scale="   92.440">  1  5  2 -1</clus>
<clus scale="   86.949">  1  5  2 -1</clus>
</clustering>
</event>
<event>
 9    1  0.2423659E-006  0.1294238E+03  0.7546771E-02  0.1241516E+00
         -2   -1    0    0    0  501 -0.00000000000E+00  0.00000000000E+00  0.95427368024E+02  0.95427368024E+02  0.00000000000E+00 0.  1.
          2   -1    0    0  502    0  0.00000000000E+00 -0.00000000000E+00 -0.42270064466E+03  0.42270064466E+03  0.00000000000E+00 0. -1.
         23    2    1    2    0    0  0.84827215607E+02  0.15858746488E+02 -0.38156863342E+01  0.12638733550E+03  0.92260732523E+02 0.  0.
         23    2    1    2    0    0  0.10634097188E+01  0.41164245105E+02 -0.23853906892E+03  0.25817430281E+03  0.89763340588E+02 0.  0.
        -13    1    3    3    0    0  0.65363486603E+02 -0.14793732387E+02  0.32980472716E+02  0.74692378991E+02  0.00000000000E+00 0.  1.
         13    1    3    3    0    0  0.19463729004E+02  0.30652478875E+02 -0.36796159050E+02  0.51694956512E+02  0.00000000000E+00 0. -1.
        -13    1    4    4    0    0  0.40502424687E+02  0.16370196914E+02 -0.63737066359E+02  0.77271232555E+02  0.00000000000E+00 0.  1.
         13    1    4    4    0    0 -0.39439014968E+02  0.24794048191E+02 -0.17480200256E+03  0.18090307026E+03  0.00000000000E+00 0. -1.
         21    1    1    2  502  501 -0.85890625326E+02 -0.57022991593E+02 -0.84918521373E+02  0.13356637437E+03  0.00000000000E+00 0. -1.
<scales pt_clust_5="13000.00000" pt_clust_6="13000.00000" pt_clust_7="13000.00000" pt_clust_8="13000.00000" pt_clust_9="90.76609"></scales>
<clustering>
<clus scale="   89.763">  7  8 -1 -1</clus>
<clus scale="   92.261">  5  6 -1 -1</clus>
<clus scale="   98.758">  2  7  1 -1</clus>
<clus scale="   90.766">  2  9  1 -1</clus>
<clus scale="   98.758">  2  5  1 -1</clus>
</clustering>
</event>
<event>
 9    1  0.2423659E-006  0.9360066E+02  0.7546771E-02  0.1295016E+00
         -1   -1    0    0    0  501 -0.00000000000E+00  0.00000000000E+00  0.10378874349E+03  0.10378874349E+03  0.00000000000E+00 0.  1.
          1   -1    0    0  502    0  0.00000000000E+00 -0.00000000000E+00 -0.39880433527E+03  0.39880433527E+03  0.00000000000E+00 0. -1.
         23    2    1    2    0    0 -0.24060529021E+02  0.97546589300E+00  0.56951878203E+02  0.11062271327E+03  0.91727900174E+02 0.  0.
         23    2    1    2    0    0 -0.39285908807E+02 -0.55487146813E+01 -0.27468326092E+03  0.29193769703E+03  0.90567953777E+02 0.  0.
        -11    1    4    4    0    0  0.25217271957E+02  0.16252521244E+02 -0.67881837114E+02  0.74215894940E+02  0.00000000000E+00 0.  1.
         11    1    4    4    0    0 -0.64503180765E+02 -0.21801235925E+02 -0.20680142380E+03  0.21772180209E+03  0.00000000000E+00 0. -1.
        -13    1    3    3    0    0 -0.37263948097E+02  0.30741590430E+02  0.40176435434E+01  0.48474618818E+02  0.00000000000E+00 0.  1.
         13    1    3    3    0    0  0.13203419076E+02 -0.29766124537E+02  0.52934234660E+02  0.62148094454E+02  0.00000000000E+00 0. -1.
         21    1    1    2  502  501  0.63346437828E+02  0.45732487883E+01 -0.77284209067E+02  0.10003266847E+03  0.00000000000E+00 0.  1.
<scales pt_clust_5="13000.00000" pt_clust_6="13000.00000" pt_clust_7="13000.00000" pt_clust_8="13000.00000" pt_clust_9="63.51130"></scales>
<clustering>
<clus scale="   63.511">  2  9  1 -1</clus>
<clus scale="   90.568">  5  6 -1 -1</clus>
<clus scale="   91.728">  7  8 -1 -1</clus>
<clus scale="   92.464">  2  5  1 -1</clus>
<clus scale="   63.511">  2  5  1 -1</clus>
</clustering>
</event>
<event>
 9    1  0.2423659E-006  0.1953869E+03  0.7546771E-02  0.1154738E+00
          1   -1    0    0  502    0  0.00000000000E+00  0.00000000000E+00  0.96866816934E+03  0.96866816934E+03  0.00000000000E+00 0. -1.
         -1   -1    0    0    0  501 -0.00000000000E+00 -0.00000000000E+00 -0.68934772705E+02  0.68934772705E+02  0.00000000000E+00 0.  1.
         23    2    1    2    0    0  0.19072670626E+03 -0.27270051998E+00  0.17287007628E+03  0.27452514118E+03  0.95410895718E+02 0.  0.
         23    2    1    2    0    0 -0.12235787885E+03 -0.37182409093E+02  0.50828764937E+03  0.53101637420E+03  0.85252994698E+02 0.  0.
        -11    1    4    4    0    0 -0.93464933813E+02  0.10930038055E+02  0.26115715249E+03  0.27759362003E+03  0.00000000000E+00 0. -1.
         11    1    4    4    0    0 -0.28892945035E+02 -0.48112447147E+02  0.24713049688E+03  0.25342275417E+03  0.00000000000E+00 0.  1.
        -13    1    3    3    0    0  0.18368781750E+03  0.23106643799E+02  0.16719566615E+03  0.24945845759E+03  0.00000000000E+00 0. -1.
         13    1    3    3    0    0  0.70388887589E+01 -0.23379344319E+02  0.56744101287E+01  0.25066683587E+02  0.00000000000E+00 0.  1.
         21    1    1    2  502  501 -0.68368827412E+02  0.37455109612E+02  0.21857567099E+03  0.23206142666E+03  0.00000000000E+00 0.  1.
<scales pt_clust_5="13000.00000" pt_clust_6="13000.00000" pt_clust_7="13000.00000" pt_clust_8="13000.00000" pt_clust_9="77.95628"></scales>
<clustering>
<clus scale="   77.956">  1  9  2 -1</clus>
<clus scale="   85.253">  5  6 -1 -1</clus>
<clus scale="   95.411">  7  8 -1 -1</clus>
<clus scale="  190.633">  1  5  2 -1</clus>
<clus scale="   77.956">  1  5  2 -1</clus>
</clustering>
</event>
<event>
 9    1  0.2423659E-006  0.1562346E+03  0.7546771E-02  0.1213410E+00
         -1   -1    0    0    0  501 -0.00000000000E+00  0.00000000000E+00  0.67964975850E+02  0.67964975850E+02  0.00000000000E+00 0.  1.
          1   -1    0    0  502    0  0.00000000000E+00 -0.00000000000E+00 -0.58986315414E+03  0.58986315414E+03  0.00000000000E+00 0. -1.
         23    2    1    2    0    0  0.90480354747E+02  0.82342359673E+02 -0.15604381351E+03  0.21877282871E+03  0.92438736781E+02 0.  0.
         23    2    1    2    0    0  0.24059836081E+02 -0.19277118945E+02 -0.22726547340E+03  0.24852036821E+03  0.95719877715E+02 0.  0.
        -11    1    4    4    0    0  0.10445450740E+02  0.38454780495E+02 -0.71679411339E+02  0.82011069947E+02  0.00000000000E+00 0.  1.
         11    1    4    4    0    0  0.13614385341E+02 -0.57731899439E+02 -0.15558606206E+03  0.16650929826E+03  0.00000000000E+00 0. -1.
        -13    1    3    3    0    0  0.62861219644E+01 -0.19397002508E+02 -0.29580104004E+02  0.35926892275E+02  0.00000000000E+00 0. -1.
         13    1    3    3    0    0  0.84194232783E+02  0.10173936218E+03 -0.12646370950E+03  0.18284593644E+03  0.00000000000E+00 0.  1.
         21    1    1    2  502  501 -0.11454019083E+03 -0.63065240728E+02 -0.13858889138E+03  0.19053493306E+03  0.00000000000E+00 0. -1.
<scales pt_clust_5="13000.00000" pt_clust_6="13000.00000" pt_clust_7="13000.00000" pt_clust_8="13000.00000" pt_clust_9="125.95364"></scales>
<clustering>
<clus scale="   92.439">  7  8 -1 -1</clus>
<clus scale="   95.720">  5  6 -1 -1</clus>
<clus scale="  100.562">  2  5  1 -1</clus>
<clus scale="  125.954">  2  9  1 -1</clus>
<clus scale="  100.562">  2  5  1 -1</clus>
</clustering>
</event>
<event>
 9    1  0.2423659E-006  0.9821143E+02  0.7546771E-02  0.1284237E+00
          1   -1    0    0  502    0  0.00000000000E+00  0.00000000000E+00  0.94582624497E+02  0.94582624497E+02  0.00000000000E+00 0. -1.
         -1   -1    0    0    0  501 -0.00000000000E+00 -0.00000000000E+00 -0.18778140113E+03  0.18778140113E+03  0.00000000000E+00 0.  1.
         23    2    1    2    0    0  0.41863373999E+02  0.31334761425E+02 -0.42757951360E+02  0.11388202222E+03  0.91686766898E+02 0.  0.
         23    2    1    2    0    0 -0.12402024925E+02 -0.24813204577E+02  0.14729097333E+02  0.96665427288E+02  0.91420748087E+02 0.  0.
        -11    1    3    3    0    0  0.35636374116E+02 -0.80329902363E+01  0.18384434412E+02  0.40895813000E+02  0.00000000000E+00 0.  1.
         11    1    3    3    0    0  0.62269998830E+01  0.39367751661E+02 -0.61142385772E+02  0.72986209219E+02  0.00000000000E+00 0. -1.
        -11    1    4    4    0    0 -0.93247585671E+01  0.33530047288E+02 -0.46481187599E+01  0.35111539434E+02  0.00000000000E+00 0.  1.
         11    1    4    4    0    0 -0.30772663578E+01 -0.58343251865E+02  0.19377216093E+02  0.61553887853E+02  0.00000000000E+00 0. -1.
         21    1    1    2  502  501 -0.29461349075E+02 -0.65215568477E+01 -0.65169922603E+02  0.71816576117E+02  0.00000000000E+00 0.  1.
<scales pt_clust_5="13000.00000" pt_clust_6="13000.00000" pt_clust_7="13000.00000" pt_clust_8="13000.00000" pt_clust_9="30.17452"></scales>
<clustering>
<clus scale="   30.175">  2  9  1 -1</clus>
<clus scale="   91.421">  7  8 -1 -1</clus>
<clus scale="   91.687">  5  6 -1 -1</clus>
<clus scale="   97.963">  1  7  2 -1</clus>
<clus scale="   97.963">  1  5  2 -1</clus>
</clustering>
</event>
<event>
 9    1  0.2423659E-006  0.9118053E+02  0.7546771E-02  0.1302363E+00
         -1   -1    0    0    0  501 -0.00000000000E+00  0.00000000000E+00  0.71978309693E+03  0.71978309693E+03  0.00000000000E+00 0.  1.
          1   -1    0    0  502    0  0.00000000000E+00 -0.00000000000E+00 -0.36740028295E+02  0.36740028295E+02  0.00000000000E+00 0. -1.
         23    2    1    2    0    0  0.19685040476E+02 -0.40848570604E+02  0.53444338015E+03  0.54379328454E+03  0.89584056489E+02 0.  0.
         23    2    1    2    0    0 -0.14356518208E+02  0.41591148072E+01  0.35875618565E+02  0.94065502093E+02  0.85661256269E+02 0.  0.
        -11    1    3    3    0    0 -0.33541545155E+02 -0.30200546173E+01  0.14087341101E+03  0.14484292842E+03  0.00000000000E+00 0. -1.
         11    1    3    3    0    0  0.53226585631E+02 -0.37828515987E+02  0.39356996914E+03  0.39895035612E+03  0.00000000000E+00 0.  1.
        -13    1    4    4    0    0  0.24887599694E+02 -0.54742201167E+01 -0.14630166709E+02  0.29383694157E+02  0.00000000000E+00 0. -1.
         13    1    4    4    0    0 -0.39244117902E+02  0.96333349239E+01  0.50505785274E+02  0.64681807936E+02  0.00000000000E+00 0.  1.
         21    1    1    2  502  501 -0.53285222676E+01  0.36689455797E+02  0.11272406992E+03  0.11866433860E+03  0.00000000000E+00 0.  1.
<scales pt_clust_5="13000.00000" pt_clust_6="13000.00000" pt_clust_7="13000.00000" pt_clust_8="13000.00000" pt_clust_9="37.07438"></scales>
<clustering>
<clus scale="   37.074">  1  9  2 -1</clus>
<clus scale="   85.661">  7  8 -1 -1</clus>
<clus scale="   87.329">  2  7  1 -1</clus>
<clus scale="   89.584">  5  6 -1 -1</clus>
<clus scale="   87.329">  2  5  1 -1</clus>
</clustering>
</event>
<event>
 9    1  0.2423659E-006  0.1013748E+03  0.7546771E-02  0.1277902E+00
          1   -1    0    0  502    0  0.00000000000E+00  0.00000000000E+00  0.51097860747E+03  0.51097860747E+03  0.00000000000E+00 0. -1.
         -1   -1    0    0    0  501 -0.00000000000E+00 -0.00000000000E+00 -0.10690003513E+03  0.10690003513E+03  0.00000000000E+00 0.  1.
         23    2    1    2    0    0  0.29895400648E+02  0.30464314144E+02  0.99065607374E+01  0.10264943493E+03  0.92827566646E+02 0.  0.
         23    2    1    2    0    0  0.23309164731E+02  0.47119531970E+02  0.40677626428E+03  0.42031426606E+03  0.91834555696E+02 0.  0.
        -13    1    4    4    0    0  0.20697834852E+02  0.74996083771E+02  0.30253102771E+03  0.31237451188E+03  0.00000000000E+00 0. -1.
         13    1    4    4    0    0  0.26113298791E+01 -0.27876551801E+02  0.10424523658E+03  0.10793975418E+03  0.00000000000E+00 0.  1.
        -13    1    3    3    0    0 -0.25454520757E+02  0.22068383709E+02  0.28009853924E+02  0.43812077140E+02  0.00000000000E+00 0. -1.
         13    1    3    3    0    0  0.55349921405E+02  0.83959304353E+01 -0.18103293186E+02  0.58837357789E+02  0.00000000000E+00 0.  1.
         21    1    1    2  502  501 -0.53204565379E+02 -0.77583846115E+02 -0.12604252681E+02  0.94914941610E+02  0.00000000000E+00 0.  1.
<scales pt_clust_5="13000.00000" pt_clust_6="13000.00000" pt_clust_7="13000.00000" pt_clust_8="13000.00000" pt_clust_9="94.07433"></scales>
<clustering>
<clus scale="   91.835">  5  6 -1 -1</clus>
<clus scale="   92.828">  7  8 -1 -1</clus>
<clus scale="   94.074">  2  9  1 -1</clus>
<clus scale="  100.466">  1  5  2 -1</clus>
<clus scale="  100.466">  1  5  2 -1</clus>
</clustering>
</event>
<event>
 9    1  0.2423659E-006  0.9584280E+02  0.7546771E-02  0.1289580E+00
         -1   -1    0    0    0  501 -0.00000000000E+00  0.00000000000E+00  0.70726626465E+02  0.70726626465E+02  0.00000000000E+00 0.  1.
          1   -1    0    0  502    0  0.00000000000E+00 -0.00000000000E+00 -0.24506688990E+03  0.24506688990E+03  0.00000000000E+00 0. -1.
         23    2    1    2    0    0 -0.19776587667E+02  0.32608885102E+00 -0.58873629269E+02  0.11057007227E+03  0.91479051731E+02 0.  0.
         23    2    1    2    0    0 -0.60562595255E+01  0.55315190848E+02 -0.86966385906E+02  0.13758061630E+03  0.90933080260E+02 0.  0.
        -11    1    4    4    0    0 -0.12026987327E+02  0.77931240228E+02 -0.48544233130E+02  0.92598429781E+02  0.00000000000E+00 0. -1.
         11    1    4    4    0    0  0.59707278013E+01 -0.22616049380E+02 -0.38422152776E+02  0.44982186518E+02  0.00000000000E+00 0.  1.
        -13    1    3    3    0    0  0.23352255783E+02  0.32327753414E+02 -0.25812115851E+02  0.47504492584E+02  0.00000000000E+00 0. -1.
         13    1    3    3    0    0 -0.43128843450E+02 -0.32001664563E+02 -0.33061513418E+02  0.63065579690E+02  0.00000000000E+00 0.  1.
         21    1    1    2  502  501  0.25832847192E+02 -0.55641279699E+02 -0.28500248259E+02  0.67642827790E+02  0.00000000000E+00 0.  1.
<scales pt_clust_5="13000.00000" pt_clust_6="13000.00000" pt_clust_7="13000.00000" pt_clust_8="13000.00000" pt_clust_9="61.34564"></scales>
<clustering>
<clus scale="   61.346">  1  9  2 -1</clus>
<clus scale="   90.933">  5  6 -1 -1</clus>
<clus scale="   91.479">  7  8 -1 -1</clus>
<clus scale="   95.322">  2  5  1 -1</clus>
<clus scale="   95.322">  2  5  1 -1</clus>
</clustering>
</event>
<event>
 9    1  0.2423659E-006  0.1131929E+03  0.7546771E-02  0.1257080E+00
         -2   -1    0    0    0  501 -0.00000000000E+00  0.00000000000E+00  0.73021439524E+02  0.73021439524E+02  0.00000000000E+00 0.  1.
          2   -1    0    0  502    0  0.00000000000E+00 -0.00000000000E+00 -0.59753502431E+03  0.59753502431E+03  0.00000000000E+00 0. -1.
         23    2    1    2    0    0 -0.56539755497E+02  0.29659945139E+02  0.10764079632E+02  0.11367918236E+03  0.93437865951E+02 0.  0.
         23    2    1    2    0    0  0.43881269436E+02 -0.53659578536E+02 -0.50057389954E+03  0.51282536927E+03  0.87239407895E+02 0.  0.
        -13    1    3    3    0    0  0.10844105904E+02  0.41493041968E+02 -0.58283812239E+01  0.43280910253E+02  0.00000000000E+00 0. -1.
         13    1    3    3    0    0 -0.67383861401E+02 -0.11833096829E+02  0.16592460856E+02  0.70398272104E+02  0.00000000000E+00 0.  1.
        -13    1    4    4    0    0  0.18675872351E+02  0.20559151165E+02 -0.72575570980E+02  0.77708946768E+02  0.00000000000E+00 0.  1.
         13    1    4    4    0    0  0.25205397086E+02 -0.74218729701E+02 -0.42799832856E+03  0.43511642250E+03  0.00000000000E+00 0. -1.
         21    1    1    2  502  501  0.12658486061E+02  0.23999633396E+02 -0.34703764885E+02  0.44051912214E+02  0.00000000000E+00 0.  1.
<scales pt_clust_5="13000.00000" pt_clust_6="13000.00000" pt_clust_7="13000.00000" pt_clust_8="13000.00000" pt_clust_9="27.13337"></scales>
<clustering>
<clus scale="   27.133">  2  9  1 -1</clus>
<clus scale="   87.239">  7  8 -1 -1</clus>
<clus scale="   93.438">  5  6 -1 -1</clus>
<clus scale="  108.133">  2  7  1 -1</clus>
<clus scale="   27.133">  2  5  1 -1</clus>
</clustering>
</event>
<event>
 9    1  0.2423659E-006  0.2513515E+03  0.7546771E-02  0.1148940E+00
          1   -1    0    0  502    0  0.00000000000E+00  0.00000000000E+00  0.27175010494E+03  0.27175010494E+03  0.00000000000E+00 0. -1.
         -1   -1    0    0    0  501 -0.00000000000E+00 -0.00000000000E+00 -0.35075253029E+03  0.35075253029E+03  0.00000000000E+00 0.  1.
         23    2    1    2    0    0  0.17102624297E+02  0.40832219823E+02 -0.76822596922E+02  0.12824224800E+03  0.92653077886E+02 0.  0.
         23    2    1    2    0    0  0.21970781723E+03  0.42732236029E+02  0.23260052035E+02  0.24185319436E+03  0.88624876041E+02 0.  0.
        -11    1    4    4    0    0  0.39080019456E+02 -0.10600646494E+02  0.34478287206E+02  0.53182458719E+02  0.00000000000E+00 0.  1.
         11    1    4    4    0    0  0.18062779777E+03  0.53332882523E+02 -0.11218235171E+02  0.18867073564E+03  0.00000000000E+00 0. -1.
        -11    1    3    3    0    0  0.43980478781E+01  0.70017920098E+02 -0.59578330175E+02  0.92040368244E+02  0.00000000000E+00 0.  1.
         11    1    3    3    0    0  0.12704576419E+02 -0.29185700275E+02 -0.17244266747E+02  0.36201879761E+02  0.00000000000E+00 0. -1.
         21    1    1    2  502  501 -0.23681044152E+03 -0.83564455852E+02 -0.25439880464E+02  0.25240719287E+03  0.00000000000E+00 0.  1.
<scales pt_clust_5="13000.00000" pt_clust_6="13000.00000" pt_clust_7="13000.00000" pt_clust_8="13000.00000" pt_clust_9="235.20886"></scales>
<clustering>
<clus scale="   88.625">  5  6 -1 -1</clus>
<clus scale="   92.653">  7  8 -1 -1</clus>
<clus scale="  102.686">  2  7  1 -1</clus>
<clus scale="  235.209">  2  9  1 -1</clus>
<clus scale="  251.352">  1  5  2 -1</clus>
</clustering>
</event>
<event>
 9    1  0.2423659E-006  0.2383043E+03  0.7546771E-02  0.1145976E+00
          1   -1    0    0  502    0  0.00000000000E+00  0.00000000000E+00  0.16733958766E+04  0.16733958766E+04  0.00000000000E+00 0. -1.
         -1   -1    0    0    0  501 -0.00000000000E+00 -0.00000000000E+00 -0.53851367890E+02  0.53851367890E+02  0.00000000000E+00 0.  1.
         23    2    1    2    0    0  0.48664149548E+00  0.94583724866E+02  0.26077244657E+03  0.29106754011E+03  0.88157394374E+02 0.  0.
         23    2    1    2    0    0  0.13818136131E+03 -0.21092964859E+03  0.96912478095E+03  0.10065400964E+04  0.10165982215E+03 0.  0.
        -11    1    3    3    0    0  0.42366114921E+02  0.29070510382E+02  0.11095993116E+03  0.12227873319E+03  0.00000000000E+00 0.  1.
         11    1    3    3    0    0 -0.41879473425E+02  0.65513214484E+02  0.14981251541E+03  0.16878880692E+03  0.00000000000E+00 0. -1.
        -11    1    4    4    0    0  0.13015318840E+03 -0.13485584706E+03  0.78687896821E+03  0.80889088420E+03  0.00000000000E+00 0. -1.
         11    1    4    4    0    0  0.80281729077E+01 -0.76073801528E+02  0.18224581274E+03  0.19764921224E+03  0.00000000000E+00 0.  1.
         21    1    1    2  502  501 -0.13866800281E+03  0.11634592372E+03  0.38964728116E+03  0.42963960791E+03  0.00000000000E+00 0.  1.
<scales pt_clust_5="13000.00000" pt_clust_6="13000.00000" pt_clust_7="13000.00000" pt_clust_8="13000.00000" pt_clust_9="215.53241"></scales>
<clustering>
<clus scale="   88.157">  5  6 -1 -1</clus>
<clus scale="  101.660">  7  8 -1 -1</clus>
<clus scale="  129.298">  2  5  1 -1</clus>
<clus scale="  215.532">  2  9  1 -1</clus>
<clus scale="  238.304">  1  5  2 -1</clus>
</clustering>
</event>
<event>
 9    1  0.2423659E-006  0.1683056E+03  0.7546771E-02  0.1213128E+00
          1   -1    0    0  502    0  0.00000000000E+00  0.00000000000E+00  0.51852905789E+03  0.51852905789E+03  0.00000000000E+00 0. -1.
         -1   -1    0    0    0  501 -0.00000000000E+00 -0.00000000000E+00 -0.10328657992E+03  0.10328657992E+03  0.00000000000E+00 0.  1.
         23    2    1    2    0    0  0.57261598032E+02  0.11930881088E+03  0.15682564282E+03  0.22442709338E+03  0.90883194461E+02 0.  0.
         23    2    1    2    0    0 -0.99732280748E+01  0.18935708834E+02  0.23610272911E+03  0.24958578230E+03  0.78041896999E+02 0.  0.
        -11    1    4    4    0    0 -0.40273991034E+02 -0.34994115998E+01  0.15438336353E+03  0.15958841803E+03  0.00000000000E+00 0. -1.
         11    1    4    4    0    0  0.30300762959E+02  0.22435120434E+02  0.81719365579E+02  0.89997364269E+02  0.00000000000E+00 0.  1.
        -13    1    3    3    0    0  0.52637116101E+02  0.30516744100E+02  0.25812697299E+02  0.66092609297E+02  0.00000000000E+00 0.  1.
         13    1    3    3    0    0  0.46244819308E+01  0.88792066779E+02  0.13101294553E+03  0.15833448409E+03  0.00000000000E+00 0. -1.
         21    1    1    2  502  501 -0.47288369957E+02 -0.13824451971E+03  0.22314106039E+02  0.14780276213E+03  0.00000000000E+00 0.  1.
<scales pt_clust_5="13000.00000" pt_clust_6="13000.00000" pt_clust_7="13000.00000" pt_clust_8="13000.00000" pt_clust_9="141.65811"></scales>
<clustering>
<clus scale="   78.042">  5  6 -1 -1</clus>
<clus scale="   80.923">  1  5  2 -1</clus>
<clus scale="   90.883">  7  8 -1 -1</clus>
<clus scale="  141.658">  2  9  1 -1</clus>
<clus scale="   80.923">  1  5  2 -1</clus>
</clustering>
</event>
<event>
 9    1  0.2423659E-006  0.1699414E+03  0.7546771E-02  0.1178025E+00
          1   -1    0    0  502    0  0.00000000000E+00  0.00000000000E+00  0.46233892634E+03  0.46233892634E+03  0.00000000000E+00 0. -1.
         -1   -1    0    0    0  501 -0.00000000000E+00 -0.00000000000E+00 -0.29695032199E+03  0.29695032199E+03  0.00000000000E+00 0.  1.
         23    2    1    2    0    0  0.32763395236E+00  0.13531602204E+03 -0.11553599427E+03  0.20055635963E+03  0.92540554641E+02 0.  0.
         23    2    1    2    0    0 -0.33260790277E+02 -0.13978699085E+03  0.40015751577E+03  0.43495457524E+03  0.91721110532E+02 0.  0.
        -11    1    4    4    0    0 -0.32808828175E+02 -0.20460387899E+02  0.18427813402E+03  0.18829093806E+03  0.00000000000E+00 0.  1.
         11    1    4    4    0    0 -0.45196210187E+00 -0.11932660295E+03  0.21587938175E+03  0.24666363718E+03  0.00000000000E+00 0. -1.
        -13    1    3    3    0    0 -0.20103203140E+02  0.13734646765E+03 -0.81960485464E+02  0.16120084407E+03  0.00000000000E+00 0.  1.
         13    1    3    3    0    0  0.20430837093E+02 -0.20304456085E+01 -0.33575508805E+02  0.39355515562E+02  0.00000000000E+00 0. -1.
         21    1    1    2  502  501  0.32933156324E+02  0.44709688124E+01 -0.11923291715E+03  0.12377831345E+03  0.00000000000E+00 0.  1.
<scales pt_clust_5="13000.00000" pt_clust_6="13000.00000" pt_clust_7="13000.00000" pt_clust_8="13000.00000" pt_clust_9="33.23526"></scales>
<clustering>
<clus scale="   33.235">  2  9  1 -1</clus>
<clus scale="   91.721">  5  6 -1 -1</clus>
<clus scale="   92.541">  7  8 -1 -1</clus>
<clus scale="  169.497">  1  5  2 -1</clus>
<clus scale="  169.497">  1  5  2 -1</clus>
</clustering>
</event>
<event>
 9    1  0.2423659E-006  0.1032963E+03  0.7546771E-02  0.1273734E+00
         -2   -1    0    0    0  501 -0.00000000000E+00  0.00000000000E+00  0.14045940380E+03  0.14045940380E+03  0.00000000000E+00 0.  1.
          2   -1    0    0  502    0  0.00000000000E+00 -0.00000000000E+00 -0.12984965226E+03  0.12984965226E+03  0.00000000000E+00 0. -1.
         23    2    1    2    0    0  0.53075258155E+02  0.14765706058E+02  0.70878528747E+02  0.12879768770E+03  0.92358374916E+02 0.  0.
         23    2    1    2    0    0 -0.26256959724E+02 -0.86915383069E+00 -0.33808098647E+02  0.10135538742E+03  0.91868077499E+02 0.  0.
        -11    1    4    4    0    0 -0.50134481080E+02 -0.15362007188E+02  0.59442784144E+01  0.52771127559E+02  0.00000000000E+00 0.  1.
         11    1    4    4    0    0  0.23877521356E+02  0.14492853357E+02 -0.39752377062E+02  0.48584259865E+02  0.00000000000E+00 0. -1.
        -11    1    3    3    0    0  0.60260115810E+02 -0.25898421412E+02  0.50322522739E+02  0.82670224893E+02  0.00000000000E+00 0. -1.
         11    1    3    3    0    0 -0.71848576547E+01  0.40664127470E+02  0.20556006007E+02  0.46127462811E+02  0.00000000000E+00 0.  1.
         21    1    1    2  502  501 -0.26818298431E+02 -0.13896552227E+02 -0.26460678562E+02  0.40155980930E+02  0.00000000000E+00 0.  1.
<scales pt_clust_5="13000.00000" pt_clust_6="13000.00000" pt_clust_7="13000.00000" pt_clust_8="13000.00000" pt_clust_9="30.20489"></scales>
<clustering>
<clus scale="   30.205">  2  9  1 -1</clus>
<clus scale="   91.868">  5  6 -1 -1</clus>
<clus scale="   92.358">  7  8 -1 -1</clus>
<clus scale="  102.858">  2  5  1 -1</clus>
<clus scale="   30.205">  2  5  1 -1</clus>
</clustering>
</event>
<event>
 9    1  0.2423659E-006  0.2785110E+03  0.7546771E-02  0.1097689E+00
         -2   -1    0    0    0  501 -0.00000000000E+00  0.00000000000E+00  0.23562523811E+03  0.23562523811E+03  0.00000000000E+00 0.  1.
          2   -1    0    0  502    0  0.00000000000E+00 -0.00000000000E+00 -0.79220023282E+03  0.79220023282E+03  0.00000000000E+00 0. -1.
         23    2    1    2    0    0  0.91918036771E+02 -0.20705966914E+03 -0.14691234383E+03  0.28378457854E+03  0.87337381335E+02 0.  0.
         23    2    1    2    0    0 -0.12879542414E+03  0.23923771590E+03 -0.53461542206E+03  0.60984490357E+03  0.11078903792E+03 0.  0.
        -11    1    4    4    0    0 -0.73862818256E+02  0.22457659195E+03 -0.42292460780E+03  0.48451582580E+03  0.00000000000E+00 0. -1.
         11    1    4    4    0    0 -0.54932605881E+02  0.14661123949E+02 -0.11169081426E+03  0.12532907777E+03  0.00000000000E+00 0.  1.
        -13    1    3    3    0    0  0.75372672789E+02 -0.15665134832E+03 -0.63792637419E+02  0.18517609274E+03  0.00000000000E+00 0.  1.
         13    1    3    3    0    0  0.16545363981E+02 -0.50408320817E+02 -0.83119706412E+02  0.98608485795E+02  0.00000000000E+00 0. -1.
         21    1    1    2  502  501  0.36877387366E+02 -0.32178046758E+02  0.12495277118E+03  0.13419598882E+03  0.00000000000E+00 0.  1.
<scales pt_clust_5="13000.00000" pt_clust_6="13000.00000" pt_clust_7="13000.00000" pt_clust_8="13000.00000" pt_clust_9="48.94250"></scales>
<clustering>
<clus scale="   48.943">  1  9  2 -1</clus>
<clus scale="   87.337">  7  8 -1 -1</clus>
<clus scale="  110.789">  5  6 -1 -1</clus>
<clus scale="  270.041">  1  7  2 -1</clus>
<clus scale="  278.511">  2  5  1 -1</clus>
</clustering>
</event>
<event>
 9    1  0.2423659E-006  0.2659383E+03  0.7546771E-02  0.1103639E+00
          2   -1    0    0  502    0  0.00000000000E+00  0.00000000000E+00  0.98051935309E+03  0.98051935309E+03  0.00000000000E+00 0. -1.
         -2   -1    0    0    0  501 -0.00000000000E+00 -0.00000000000E+00 -0.17143251941E+03  0.17143251941E+03  0.00000000000E+00 0.  1.
         23    2    1    2    0    0  0.24104707296E+03 -0.84864541240E+02  0.27901224051E+03  0.38942927145E+03  0.92204367373E+02 0.  0.
         23    2    1    2    0    0 -0.25362866149E+03 -0.91949389867E+02  0.50985061850E+03  0.58411163795E+03  0.91959579077E+02 0.  0.
        -11    1    4    4    0    0 -0.21973213831E+03 -0.84679439392E+02  0.49123790183E+03  0.54476370681E+03  0.00000000000E+00 0. -1.
         11    1    4    4    0    0 -0.33896523178E+02 -0.72699504750E+01  0.18612716667E+02  0.39347931143E+02  0.00000000000E+00 0.  1.
        -13    1    3    3    0    0  0.16141531678E+03 -0.99144750847E+02  0.21267374586E+03  0.28480644005E+03  0.00000000000E+00 0.  1.
         13    1    3    3    0    0  0.79631756177E+02  0.14280209606E+02  0.66338494651E+02  0.10462283140E+03  0.00000000000E+00 0. -1.
         21    1    1    2  502  501  0.12581588528E+02  0.17681393111E+03  0.20223974673E+02  0.17841096310E+03  0.00000000000E+00 0.  1.
<scales pt_clust_5="13000.00000" pt_clust_6="13000.00000" pt_clust_7="13000.00000" pt_clust_8="13000.00000" pt_clust_9="177.26100"></scales>
<clustering>
<clus scale="   91.960">  5  6 -1 -1</clus>
<clus scale="   92.204">  7  8 -1 -1</clus>
<clus scale="  177.261">  2  9  1 -1</clus>
<clus scale="  265.854">  1  5  2 -1</clus>
<clus scale="  265.854">  1  5  2 -1</clus>
</clustering>
</event>
<event>
 9    1  0.2423659E-006  0.1392578E+03  0.7546771E-02  0.1232221E+00
         -1   -1    0    0    0  501 -0.00000000000E+00  0.00000000000E+00  0.75705606642E+02  0.75705606642E+02  0.00000000000E+00 0.  1.
          1   -1    0    0  502    0  0.00000000000E+00 -0.00000000000E+00 -0.45106840555E+03  0.45106840555E+03  0.00000000000E+00 0. -1.
         23    2    1    2    0    0  0.98534522338E+02 -0.43996568613E+02 -0.59824098747E+02  0.15383989451E+03  0.91886017487E+02 0.  0.
         23    2    1    2    0    0  0.99340915216E+00  0.28155972808E+02 -0.12649789946E+03  0.15870723339E+03  0.91610707331E+02 0.  0.
        -11    1    3    3    0    0  0.81786381109E+00 -0.25757120782E+02  0.14639689594E+02  0.29638128882E+02  0.00000000000E+00 0.  1.
         11    1    3    3    0    0  0.97716658526E+02 -0.18239447830E+02 -0.74463788342E+02  0.12420176563E+03  0.00000000000E+00 0. -1.
        -13    1    4    4    0    0  0.23369100547E+02  0.38191509700E+02 -0.12649375119E+03  0.13418410995E+03  0.00000000000E+00 0.  1.
         13    1    4    4    0    0 -0.22375691395E+02 -0.10035536892E+02 -0.41482680128E-02  0.24523123441E+02  0.00000000000E+00 0. -1.
         21    1    1    2  502  501 -0.99527931490E+02  0.15840595805E+02 -0.18904080070E+03  0.21422688428E+03  0.00000000000E+00 0.  1.
<scales pt_clust_5="13000.00000" pt_clust_6="13000.00000" pt_clust_7="13000.00000" pt_clust_8="13000.00000" pt_clust_9="104.64085"></scales>
<clustering>
<clus scale="   91.611">  7  8 -1 -1</clus>
<clus scale="   91.886">  5  6 -1 -1</clus>
<clus scale="   95.845">  2  7  1 -1</clus>
<clus scale="  104.641">  2  9  1 -1</clus>
<clus scale="   95.845">  2  5  1 -1</clus>
</clustering>
</event>
<event>
 9    1  0.2423659E-006  0.1158643E+03  0.7546771E-02  0.1261845E+00
         -1   -1    0    0    0  501 -0.00000000000E+00  0.00000000000E+00  0.24321101702E+03  0.24321101702E+03  0.00000000000E+00 0.  1.
          1   -1    0    0  502    0  0.00000000000E+00 -0.00000000000E+00 -0.11531930340E+03  0.11531930340E+03  0.00000000000E+00 0. -1.
         23    2    1    2    0    0 -0.34979165612E+02 -0.35865622290E+02  0.11459204084E+02  0.10444649152E+03  0.90927835908E+02 0.  0.
         23    2    1    2    0    0 -0.15360907008E+02 -0.26579065363E+02  0.83424004785E+01  0.11948466990E+03  0.11517198668E+03 0.  0.
        -11    1    4    4    0    0  0.36464518281E+02 -0.47489366349E+02  0.18536293039E+02  0.62677708712E+02  0.00000000000E+00 0.  1.
         11    1    4    4    0    0 -0.51825425289E+02  0.20910300986E+02 -0.10193892561E+02  0.56806961186E+02  0.00000000000E+00 0. -1.
        -11    1    3    3    0    0 -0.54184217551E+02 -0.54643536136E+02  0.81622422718E+01  0.77385190263E+02  0.00000000000E+00 0.  1.
         11    1    3    3    0    0  0.19205051940E+02  0.18777913846E+02  0.32969618123E+01  0.27061301255E+02  0.00000000000E+00 0. -1.
         21    1    1    2  502  501  0.50340072619E+02  0.62444687653E+02  0.10809010906E+03  0.13459915900E+03  0.00000000000E+00 0. -1.
<scales pt_clust_5="13000.00000" pt_clust_6="13000.00000" pt_clust_7="13000.00000" pt_clust_8="13000.00000" pt_clust_9="80.20886"></scales>
<clustering>
<clus scale="   80.209">  1  9  2 -1</clus>
<clus scale="   90.928">  7  8 -1 -1</clus>
<clus scale="   91.803">  1  7  2 -1</clus>
<clus scale="  115.172">  5  6 -1 -1</clus>
<clus scale="  115.864">  2  5  1 -1</clus>
</clustering>
</event>
<event>
 9    1  0.2423659E-006  0.3370909E+03  0.7546771E-02  0.1115010E+00
         -1   -1    0    0    0  501 -0.00000000000E+00  0.00000000000E+00  0.10608407643E+04  0.10608407643E+04  0.00000000000E+00 0.  1.
          1   -1    0    0  502    0  0.00000000000E+00 -0.00000000000E+00 -0.23194952374E+03  0.23194952374E+03  0.00000000000E+00 0. -1.
         23    2    1    2    0    0 -0.27308580218E+02 -0.22333860768E+02  0.45311820535E+03  0.46352709874E+03  0.91086241352E+02 0.  0.
         23    2    1    2    0    0 -0.13731318472E+03 -0.26757611180E+03  0.38344318131E+03  0.49578613038E+03  0.91232272166E+02 0.  0.
        -11    1    4    4    0    0 -0.95126005992E+02 -0.25146260679E+03  0.32082455473E+03  0.41858188511E+03  0.00000000000E+00 0.  1.
         11    1    4    4    0    0 -0.42187178726E+02 -0.16113505008E+02  0.62618626580E+02  0.77204245267E+02  0.00000000000E+00 0. -1.
        -13    1    3    3    0    0 -0.60804711996E+02 -0.83358764290E+01  0.28307806227E+03  0.28965477586E+03  0.00000000000E+00 0.  1.
         13    1    3    3    0    0  0.33496131778E+02 -0.13997984339E+02  0.17004014307E+03  0.17387232289E+03  0.00000000000E+00 0. -1.
         21    1    1    2  502  501  0.16462176494E+03  0.28990997256E+03 -0.76701461024E+01  0.33347705892E+03  0.00000000000E+00 0. -1.
<scales pt_clust_5="13000.00000" pt_clust_6="13000.00000" pt_clust_7="13000.00000" pt_clust_8="13000.00000" pt_clust_9="324.51031"></scales>
<clustering>
<clus scale="   91.086">  7  8 -1 -1</clus>
<clus scale="   91.232">  5  6 -1 -1</clus>
<clus scale="   97.679">  1  7  2 -1</clus>
<clus scale="  324.510">  2  9  1 -1</clus>
<clus scale="  324.510">  2  5  1 -1</clus>
</clustering>
</event>
<event>
 9    1  0.2423659E-006  0.1362885E+03  0.7546771E-02  0.1218499E+00
         -2   -1    0    0    0  501 -0.00000000000E+00  0.00000000000E+00  0.60731680030E+02  0.60731680030E+02  0.00000000000E+00 0.  1.
          2   -1    0    0  502    0  0.00000000000E+00 -0.00000000000E+00 -0.11532081901E+04  0.11532081901E+04  0.00000000000E+00 0. -1.
         23    2    1    2    0    0 -0.99321620631E+02  0.11519950166E+03 -0.39362362081E+03  0.43153441851E+03  0.90259016112E+02 0.  0.
         23    2    1    2    0    0  0.99972309046E+02  0.14859464757E+02 -0.61018498895E+03  0.62499593892E+03  0.89882905285E+02 0.  0.
        -13    1    3    3    0    0 -0.16833058989E+02  0.55679034548E+02 -0.63592503927E+02  0.86183022219E+02  0.00000000000E+00 0.  1.
         13    1    3    3    0    0 -0.82488561642E+02  0.59520467109E+02 -0.33003111689E+03  0.34535139629E+03  0.00000000000E+00 0. -1.
        -13    1    4    4    0    0  0.63472981560E+02  0.52831654926E+02 -0.37048930585E+03  0.37958178157E+03  0.00000000000E+00 0.  1.
         13    1    4    4    0    0  0.36499327486E+02 -0.37972190169E+02 -0.23969568310E+03  0.24541415735E+03  0.00000000000E+00 0. -1.
         21    1    1    2  502  501 -0.65068841513E+00 -0.13005896641E+03 -0.88667900288E+02  0.15740951268E+03  0.00000000000E+00 0. -1.
<scales pt_clust_5="13000.00000" pt_clust_6="13000.00000" pt_clust_7="13000.00000" pt_clust_8="13000.00000" pt_clust_9="130.06059"></scales>
<clustering>
<clus scale="   89.883">  7  8 -1 -1</clus>
<clus scale="   90.259">  5  6 -1 -1</clus>
<clus scale="  130.061">  1  9  2 -1</clus>
<clus scale="  136.040">  2  7  1 -1</clus>
<clus scale="  136.040">  2  5  1 -1</clus>
</clustering>
</event>
<event>
 9    1  0.2423659E-006  0.1246135E+03  0.7546771E-02  0.1248147E+00
          2   -1    0    0  502    0  0.00000000000E+00  0.00000000000E+00  0.46519414947E+03  0.46519414947E+03  0.00000000000E+00 0. -1.
         -2   -1    0    0    0  501 -0.00000000000E+00 -0.00000000000E+00 -0.14103781754E+03  0.14103781754E+03  0.00000000000E+00 0.  1.
         23    2    1    2    0    0 -0.25365727076E+01  0.34275571966E+02  0.36506268715E+02  0.10345896017E+03  0.90497512390E+02 0.  0.
         23    2    1    2    0    0 -0.44395477497E+02  0.68156261444E+02  0.35218131612E+03  0.37293010010E+03  0.91809290078E+02 0.  0.
        -11    1    3    3    0    0 -0.20655134518E+02  0.56861646286E+02  0.50537782346E+01  0.60707677231E+02  0.00000000000E+00 0. -1.
         11    1    3    3    0    0  0.18118561810E+02 -0.22586074321E+02  0.31452490481E+02  0.42751282937E+02  0.00000000000E+00 0.  1.
        -13    1    4    4    0    0  0.12183635020E+02  0.60278431643E+02  0.13474957921E+03  0.14811947671E+03  0.00000000000E+00 0.  1.
         13    1    4    4    0    0 -0.56579112517E+02  0.78778298005E+01  0.21743173691E+03  0.22481062339E+03  0.00000000000E+00 0. -1.
         21    1    1    2  502  501  0.46932050204E+02 -0.10243183341E+03 -0.64531252901E+02  0.12984290675E+03  0.00000000000E+00 0.  1.
<scales pt_clust_5="13000.00000" pt_clust_6="13000.00000" pt_clust_7="13000.00000" pt_clust_8="13000.00000" pt_clust_9="84.25902"></scales>
<clustering>
<clus scale="   90.498">  5  6 -1 -1</clus>
<clus scale="   91.809">  7  8 -1 -1</clus>
<clus scale="   96.804">  2  5  1 -1</clus>
<clus scale="   84.259">  2  9  1 -1</clus>
<clus scale="  124.614">  1  5  2 -1</clus>
</clustering>
</event>
<event>
 9    1  0.2423659E-006  0.1277095E+03  0.7546771E-02  0.1240719E+00
          1   -1    0    0  502    0  0.00000000000E+00  0.00000000000E+00  0.54564534674E+02  0.54564534674E+02  0.00000000000E+00 0. -1.
         -1   -1    0    0    0  501 -0.00000000000E+00 -0.00000000000E+00 -0.51269262456E+03  0.51269262456E+03  0.00000000000E+00 0.  1.
         23    2    1    2    0    0 -0.37532696358E+02 -0.22805523631E+02 -0.31294291034E+03  0.33708816462E+03  0.11733017683E+03 0.  0.
         23    2    1    2    0    0  0.27117383164E+02  0.74659814675E+02 -0.75758650035E+02  0.14289133854E+03  0.91482901016E+02 0.  0.
        -11    1    4    4    0    0  0.53201675314E+02  0.68622289437E+02 -0.33921922037E+02  0.93220886385E+02  0.00000000000E+00 0. -1.
         11    1    4    4    0    0 -0.26084292149E+02  0.60375252382E+01 -0.41836727999E+02  0.49670452158E+02  0.00000000000E+00 0.  1.
        -11    1    3    3    0    0 -0.20241162152E+01 -0.64801135139E+02 -0.11919420441E+03  0.13568545437E+03  0.00000000000E+00 0.  1.
         11    1    3    3    0    0 -0.35508580143E+02  0.41995611508E+02 -0.19374870593E+03  0.20140271026E+03  0.00000000000E+00 0. -1.
         21    1    1    2  502  501  0.10415313194E+02 -0.51854291045E+02 -0.69426529515E+02  0.87277656071E+02  0.00000000000E+00 0.  1.
<scales pt_clust_5="13000.00000" pt_clust_6="13000.00000" pt_clust_7="13000.00000" pt_clust_8="13000.00000" pt_clust_9="52.88994"></scales>
<clustering>
<clus scale="   52.890">  1  9  2 -1</clus>
<clus scale="   91.483">  5  6 -1 -1</clus>
<clus scale="  104.463">  1  5  2 -1</clus>
<clus scale="  117.330">  7  8 -1 -1</clus>
<clus scale="   52.890">  1  5  2 -1</clus>
</clustering>
</event>
<event>
 9    1  0.2423659E-006  0.1192066E+03  0.7546771E-02  0.1244564E+00
          3   -1    0    0  502    0  0.00000000000E+00  0.00000000000E+00  0.48721651311E+03  0.48721651311E+03  0.00000000000E+00 0. -1.
         -3   -1    0    0    0  501 -0.00000000000E+00 -0.00000000000E+00 -0.49351544734E+02  0.49351544734E+02  0.00000000000E+00 0.  1.
         23    2    1    2    0    0  0.52497520908E+02 -0.71708996064E+02  0.13720299535E+03  0.18701162338E+03  0.90832348460E+02 0.  0.
         23    2    1    2    0    0 -0.71937976594E+02  0.14616242698E+02  0.18204629050E+03  0.21648805376E+03  0.91310013183E+02 0.  0.
        -11    1    4    4    0    0  0.12911379809E+02  0.26582919118E+02  0.31005121374E+02  0.42833081477E+02  0.00000000000E+00 0. -1.
         11    1    4    4    0    0 -0.84849356403E+02 -0.11966676420E+02  0.15104116913E+03  0.17365497228E+03  0.00000000000E+00 0.  1.
        -13    1    3    3    0    0  0.28632739502E+02 -0.91035762295E+02  0.93536068312E+02  0.13362761639E+03  0.00000000000E+00 0.  1.
         13    1    3    3    0    0  0.23864781406E+02  0.19326766231E+02  0.43666927040E+02  0.53384006984E+02  0.00000000000E+00 0. -1.
         21    1    1    2  502  501  0.19440455686E+02  0.57092753366E+02  0.11861568252E+03  0.13306838071E+03  0.00000000000E+00 0.  1.
<scales pt_clust_5="13000.00000" pt_clust_6="13000.00000" pt_clust_7="13000.00000" pt_clust_8="13000.00000" pt_clust_9="60.31180"></scales>
<clustering>
<clus scale="   60.312">  1  9  2 -1</clus>
<clus scale="   90.832">  7  8 -1 -1</clus>
<clus scale="   91.310">  5  6 -1 -1</clus>
<clus scale="  118.841">  2  7  1 -1</clus>
<clus scale="   60.312">  1  5  2 -1</clus>
</clustering>
</event>
<event>
 9    1  0.2423659E-006  0.9483031E+02  0.7546771E-02  0.1291963E+00
          1   -1    0    0  502    0  0.00000000000E+00  0.00000000000E+00  0.38613928149E+03  0.38613928149E+03  0.00000000000E+00 0. -1.
         -1   -1    0    0    0  501 -0.00000000000E+00 -0.00000000000E+00 -0.40295617437E+02  0.40295617437E+02  0.00000000000E+00 0.  1.
         23    2    1    2    0    0 -0.29521210426E+02 -0.15773569229E+02  0.97180899872E+02  0.13831862430E+03  0.92561369787E+02 0.  0.
         23    2    1    2    0    0  0.55634548492E+00 -0.21751108941E+02  0.14077754650E+03  0.17027619203E+03  0.93285817319E+02 0.  0.
        -11    1    3    3    0    0 -0.59004547716E+02  0.82182949338E+01  0.50339100902E+02  0.77994244034E+02  0.00000000000E+00 0.  1.
         11    1    3    3    0    0  0.29483337289E+02 -0.23991864163E+02  0.46841798970E+02  0.60324380266E+02  0.00000000000E+00 0. -1.
        -13    1    4    4    0    0  0.26181359811E+02 -0.33893890505E+02  0.13460695067E+03  0.14125611697E+03  0.00000000000E+00 0. -1.
         13    1    4    4    0    0 -0.25625014326E+02  0.12142781564E+02  0.61705958374E+01  0.29020075057E+02  0.00000000000E+00 0.  1.
         21    1    1    2  502  501  0.28964864941E+02  0.37524678170E+02  0.10788521768E+03  0.11784008260E+03  0.00000000000E+00 0. -1.
<scales pt_clust_5="13000.00000" pt_clust_6="13000.00000" pt_clust_7="13000.00000" pt_clust_8="13000.00000" pt_clust_9="47.40322"></scales>
<clustering>
<clus scale="   47.403">  1  9  2 -1</clus>
<clus scale="   92.561">  5  6 -1 -1</clus>
<clus scale="   93.286">  7  8 -1 -1</clus>
<clus scale="   94.118">  2  5  1 -1</clus>
<clus scale="   47.403">  1  5  2 -1</clus>
</clustering>
</event>
<event>
 9    1  0.2423659E-006  0.1563613E+03  0.7546771E-02  0.1193225E+00
         -1   -1    0    0    0  501 -0.00000000000E+00  0.00000000000E+00  0.66275885665E+02  0.66275885665E+02  0.00000000000E+00 0.  1.
          1   -1    0    0  502    0  0.00000000000E+00 -0.00000000000E+00 -0.63567022853E+03  0.63567022853E+03  0.00000000000E+00 0. -1.
         23    2    1    2    0    0 -0.14607796179E+03 -0.81005592370E+02 -0.26544819280E+03  0.32651519062E+03  0.90822627824E+02 0.  0.
         23    2    1    2    0    0  0.74430029197E+02  0.75607914276E+02 -0.24957509038E+03  0.28532668781E+03  0.88697277803E+02 0.  0.
        -13    1    4    4    0    0 -0.93582463129E+01  0.23203285377E+02 -0.11881953653E+03  0.12142508591E+03  0.00000000000E+00 0. -1.
         13    1    4    4    0    0  0.83788275510E+02  0.52404628899E+02 -0.13075555385E+03  0.16390160190E+03  0.00000000000E+00 0.  1.
        -13    1    3    3    0    0 -0.65635266752E+02 -0.77862672731E+02 -0.19296556062E+03  0.21818866064E+03  0.00000000000E+00 0. -1.
         13    1    3    3    0    0 -0.80442695034E+02 -0.31429196389E+01 -0.72482632184E+02  0.10832652998E+03  0.00000000000E+00 0.  1.
         21    1    1    2  502  501  0.71647932588E+02  0.53976780941E+01 -0.54371059678E+02  0.90104235769E+02  0.00000000000E+00 0.  1.
<scales pt_clust_5="13000.00000" pt_clust_6="13000.00000" pt_clust_7="13000.00000" pt_clust_8="13000.00000" pt_clust_9="71.85097"></scales>
<clustering>
<clus scale="   71.851">  1  9  2 -1</clus>
<clus scale="   88.697">  5  6 -1 -1</clus>
<clus scale="   90.823">  7  8 -1 -1</clus>
<clus scale="  155.136">  2  5  1 -1</clus>
<clus scale="  155.136">  2  5  1 -1</clus>
</clustering>
</event>
<event>
 9    1  0.2423659E-006  0.1396815E+03  0.7546771E-02  0.1233959E+00
         -1   -1    0    0    0  501 -0.00000000000E+00  0.00000000000E+00  0.26651514083E+03  0.26651514083E+03  0.00000000000E+00 0.  1.
          1   -1    0    0  502    0  0.00000000000E+00 -0.00000000000E+00 -0.23630442683E+03  0.23630442683E+03  0.00000000000E+00 0. -1.
         23    2    1    2    0    0 -0.41127469148E+02 -0.95709397402E+02  0.19481078013E+03  0.23909816098E+03  0.91460007994E+02 0.  0.
         23    2    1    2    0    0 -0.66011520979E+00 -0.10017737593E+02 -0.62587556717E+02  0.11097658236E+03  0.91092308999E+02 0.  0.
        -11    1    3    3    0    0 -0.29047545578E+02  0.10846543418E+02  0.51367580723E+02  0.60000297979E+02  0.00000000000E+00 0. -1.
         11    1    3    3    0    0 -0.12079923570E+02 -0.10655594082E+03  0.14344319940E+03  0.17909786300E+03  0.00000000000E+00 0.  1.
        -13    1    4    4    0    0  0.34859576166E+02 -0.75619634016E+01  0.35681004925E+01  0.35848356755E+02  0.00000000000E+00 0.  1.
         13    1    4    4    0    0 -0.35519691375E+02 -0.24557741910E+01 -0.66155657209E+02  0.75128225609E+02  0.00000000000E+00 0. -1.
         21    1    1    2  502  501  0.41787584358E+02  0.10572713499E+03 -0.10201250941E+03  0.15274482432E+03  0.00000000000E+00 0. -1.
<scales pt_clust_5="13000.00000" pt_clust_6="13000.00000" pt_clust_7="13000.00000" pt_clust_8="13000.00000" pt_clust_9="105.57460"></scales>
<clustering>
<clus scale="   91.092">  7  8 -1 -1</clus>
<clus scale="   91.460">  5  6 -1 -1</clus>
<clus scale="   91.644">  2  7  1 -1</clus>
<clus scale="  105.575">  2  9  1 -1</clus>
<clus scale="   91.644">  2  5  1 -1</clus>
</clustering>
</event>
<event>
 9    1  0.2423659E-006  0.1282299E+03  0.7546771E-02  0.1231387E+00
          3   -1    0    0  502    0  0.00000000000E+00  0.00000000000E+00  0.67778236617E+03  0.67778236617E+03  0.00000000000E+00 0. -1.
         -3   -1    0    0    0  501 -0.00000000000E+00 -0.00000000000E+00 -0.38184199915E+02  0.38184199915E+02  0.00000000000E+00 0.  1.
         23    2    1    2    0    0 -0.53959126018E+02 -0.72024216288E+01  0.10927985569E+03  0.15554287961E+03  0.96374469550E+02 0.  0.
         23    2    1    2    0    0  0.95508027309E+02  0.19534107095E+02  0.44503508127E+03  0.46475963437E+03  0.91879973664E+02 0.  0.
        -13    1    3    3    0    0  0.30128389385E+01  0.32938997612E+02  0.65114706135E+02  0.73034099688E+02  0.00000000000E+00 0. -1.
         13    1    3    3    0    0 -0.56971964957E+02 -0.40141419241E+02  0.44165149555E+02  0.82508779926E+02  0.00000000000E+00 0.  1.
        -13    1    4    4    0    0  0.17646764795E+02  0.23774159992E+02  0.28873359021E+02  0.41355650790E+02  0.00000000000E+00 0.  1.
         13    1    4    4    0    0  0.77861262513E+02 -0.42400528967E+01  0.41616172225E+03  0.42340398358E+03  0.00000000000E+00 0. -1.
         21    1    1    2  502  501 -0.41548901290E+02 -0.12331685466E+02  0.85283229290E+02  0.95664052094E+02  0.00000000000E+00 0.  1.
<scales pt_clust_5="13000.00000" pt_clust_6="13000.00000" pt_clust_7="13000.00000" pt_clust_8="13000.00000" pt_clust_9="43.34030"></scales>
<clustering>
<clus scale="   43.340">  2  9  1 -1</clus>
<clus scale="   91.880">  7  8 -1 -1</clus>
<clus scale="   96.374">  5  6 -1 -1</clus>
<clus scale="  124.887">  1  7  2 -1</clus>
<clus scale="  124.887">  1  5  2 -1</clus>
</clustering>
</event>
<event>
 9    1  0.2423659E-006  0.1305721E+03  0.7546771E-02  0.1236658E+00
         -1   -1    0    0    0  501 -0.00000000000E+00  0.00000000000E+00  0.79688804718E+02  0.79688804718E+02  0.00000000000E+00 0.  1.
          1   -1    0    0  502    0  0.00000000000E+00 -0.00000000000E+00 -0.39028679510E+03  0.39028679510E+03  0.00000000000E+00 0. -1.
         23    2    1    2    0    0 -0.21558121797E+02 -0.46263779253E+02 -0.75954270095E+02  0.13053786084E+03  0.93091310447E+02 0.  0.
         23    2    1    2    0    0  0.33386146838E+02 -0.64587396317E+02 -0.17322525892E+03  0.21215807565E+03  0.98579369893E+02 0.  0.
        -11    1    3    3    0    0 -0.48625738815E+02  0.28303406939E+00 -0.53222203832E+02  0.72091230842E+02  0.00000000000E+00 0. -1.
         11    1    3    3    0    0  0.27067617018E+02 -0.46546813323E+02 -0.22732066263E+02  0.58446629998E+02  0.00000000000E+00 0.  1.
        -13    1    4    4    0    0 -0.10509360925E+01 -0.37686376930E+02 -0.46212560327E+01  0.37983199972E+02  0.00000000000E+00 0.  1.
         13    1    4    4    0    0  0.34437082930E+02 -0.26901019387E+02 -0.16860400289E+03  0.17417487567E+03  0.00000000000E+00 0. -1.
         21    1    1    2  502  501 -0.11828025041E+02  0.11085117557E+03 -0.61418461362E+02  0.12727966333E+03  0.00000000000E+00 0. -1.
<scales pt_clust_5="13000.00000" pt_clust_6="13000.00000" pt_clust_7="13000.00000" pt_clust_8="13000.00000" pt_clust_9="85.62226"></scales>
<clustering>
<clus scale="   93.091">  5  6 -1 -1</clus>
<clus scale="   98.579">  7  8 -1 -1</clus>
<clus scale="  106.165">  1  5  2 -1</clus>
<clus scale="   85.622">  1  9  2 -1</clus>
<clus scale="  130.572">  2  5  1 -1</clus>
</clustering>
</event>
<event>
 9    1  0.2423659E-006  0.2065326E+03  0.7546771E-02  0.1161985E+00
         -1   -1    0    0    0  501 -0.00000000000E+00  0.00000000000E+00  0.42609806913E+03  0.42609806913E+03  0.00000000000E+00 0.  1.
          1   -1    0    0  502    0  0.00000000000E+00 -0.00000000000E+00 -0.22814216794E+03  0.22814216794E+03  0.00000000000E+00 0. -1.
         23    2    1    2    0    0 -0.99674442352E+02 -0.33465281232E+02  0.12515702674E+03  0.18503181487E+03  0.86703931089E+02 0.  0.
         23    2    1    2    0    0 -0.70592785664E+01 -0.13970435227E+03  0.17475281400E+03  0.24166850277E+03  0.91093247704E+02 0.  0.
        -13    1    4    4    0    0 -0.14820686147E+02 -0.99783449124E+02  0.17384056896E+03  0.20098988251E+03  0.00000000000E+00 0.  1.
         13    1    4    4    0    0  0.77614075809E+01 -0.39920903143E+02  0.91224503913E+00  0.40678620262E+02  0.00000000000E+00 0. -1.
        -13    1    3    3    0    0 -0.77931335389E+01 -0.24480428027E+02 -0.42798613943E+01  0.26044989927E+02  0.00000000000E+00 0. -1.
         13    1    3    3    0    0 -0.91881308813E+02 -0.89848532046E+01  0.12943688813E+03  0.15898682494E+03  0.00000000000E+00 0.  1.
         21    1    1    2  502  501  0.10673372092E+03  0.17316963350E+03 -0.10195393954E+03  0.22753991943E+03  0.00000000000E+00 0. -1.
<scales pt_clust_5="13000.00000" pt_clust_6="13000.00000" pt_clust_7="13000.00000" pt_clust_8="13000.00000" pt_clust_9="185.35836"></scales>
<clustering>
<clus scale="   86.704">  7  8 -1 -1</clus>
<clus scale="   91.093">  5  6 -1 -1</clus>
<clus scale="  136.281">  1  7  2 -1</clus>
<clus scale="  185.358">  2  9  1 -1</clus>
<clus scale="  185.358">  2  5  1 -1</clus>
</clustering>
</event>
<event>
 9    1  0.2423659E-006  0.1168566E+03  0.7546771E-02  0.1248614E+00
         -1   -1    0    0    0  501 -0.00000000000E+00  0.00000000000E+00  0.28188870643E+02  0.28188870643E+02  0.00000000000E+00 0.  1.
          1   -1    0    0  502    0  0.00000000000E+00 -0.00000000000E+00 -0.66482338588E+03  0.66482338588E+03  0.00000000000E+00 0. -1.
         23    2    1    2    0    0 -0.42032781792E+02  0.33914169867E+02 -0.22384081843E+03  0.24808134021E+03  0.92318544737E+02 0.  0.
         23    2    1    2    0    0  0.58746836738E+02 -0.66038472467E+02 -0.35017507193E+03  0.37259542964E+03  0.91610602642E+02 0.  0.
        -13    1    3    3    0    0  0.77998661074E+01 -0.23728359171E+02 -0.96539475902E+02  0.99718320020E+02  0.00000000000E+00 0. -1.
         13    1    3    3    0    0 -0.49832647899E+02  0.57642529038E+02 -0.12730134253E+03  0.14836302019E+03  0.00000000000E+00 0.  1.
        -13    1    4    4    0    0  0.71978856327E+02 -0.14237450053E+02 -0.21800432954E+03  0.23002075655E+03  0.00000000000E+00 0.  1.
         13    1    4    4    0    0 -0.13232019589E+02 -0.51801022414E+02 -0.13217074239E+03  0.14257467310E+03  0.00000000000E+00 0. -1.
         21    1    1    2  502  501 -0.16714054946E+02  0.32124302600E+02 -0.62618624878E+02  0.72335486671E+02  0.00000000000E+00 0.  1.
<scales pt_clust_5="13000.00000" pt_clust_6="13000.00000" pt_clust_7="13000.00000" pt_clust_8="13000.00000" pt_clust_9="36.21230"></scales>
<clustering>
<clus scale="   36.212">  1  9  2 -1</clus>
<clus scale="   91.611">  7  8 -1 -1</clus>
<clus scale="   92.319">  5  6 -1 -1</clus>
<clus scale="  116.298">  2  7  1 -1</clus>
<clus scale="  116.298">  2  5  1 -1</clus>
</clustering>
</event>
<event>
 9    1  0.2423659E-006  0.1840106E+03  0.7546771E-02  0.1191594E+00
         -4   -1    0    0    0  501 -0.00000000000E+00  0.00000000000E+00  0.52935272572E+03  0.52935272572E+03  0.00000000000E+00 0.  1.
          4   -1    0    0  502    0  0.00000000000E+00 -0.00000000000E+00 -0.42106398999E+03  0.42106398999E+03  0.00000000000E+00 0. -1.
         23    2    1    2    0    0  0.29416449878E+02 -0.10234544190E+02  0.21730099540E+03  0.23865120233E+03  0.93619444306E+02 0.  0.
         23    2    1    2    0    0  0.54923357246E+02 -0.12536490138E+03  0.26072587630E+03  0.30901658180E+03  0.93703423555E+02 0.  0.
        -11    1    4    4    0    0 -0.60606813112E+01 -0.94915162136E+02  0.17809273444E+03  0.20189760256E+03  0.00000000000E+00 0.  1.
         11    1    4    4    0    0  0.60984038557E+02 -0.30449739243E+02  0.82633141863E+02  0.10711897924E+03  0.00000000000E+00 0. -1.
        -11    1    3    3    0    0 -0.10507067726E+01 -0.39945657705E+02  0.17165550257E+03  0.17624520168E+03  0.00000000000E+00 0. -1.
         11    1    3    3    0    0  0.30467156650E+02  0.29711113515E+02  0.45645492835E+02  0.62406000648E+02  0.00000000000E+00 0.  1.
         21    1    1    2  502  501 -0.84339807124E+02  0.13559944557E+03 -0.36973813597E+03  0.40274893159E+03  0.00000000000E+00 0. -1.
<scales pt_clust_5="13000.00000" pt_clust_6="13000.00000" pt_clust_7="13000.00000" pt_clust_8="13000.00000" pt_clust_9="158.36528"></scales>
<clustering>
<clus scale="   93.619">  7  8 -1 -1</clus>
<clus scale="   93.703">  5  6 -1 -1</clus>
<clus scale="   98.664">  1  7  2 -1</clus>
<clus scale="  158.365">  2  9  1 -1</clus>
<clus scale="  158.365">  2  5  1 -1</clus>
</clustering>
</event>
<event>
 9    1  0.2423659E-006  0.1602011E+03  0.7546771E-02  0.1212761E+00
         -1   -1    0    0    0  501 -0.00000000000E+00  0.00000000000E+00  0.30531285818E+03  0.30531285818E+03  0.00000000000E+00 0.  1.
          1   -1    0    0  502    0  0.00000000000E+00 -0.00000000000E+00 -0.16939911578E+03  0.16939911578E+03  0.00000000000E+00 0. -1.
         23    2    1    2    0    0 -0.49959270243E+01  0.31294291704E+02  0.70628675806E+02  0.11803439268E+03  0.89103400766E+02 0.  0.
         23    2    1    2    0    0 -0.44108791043E+01  0.10869516901E+03  0.13989410483E+03  0.19776865863E+03  0.87795137402E+02 0.  0.
        -11    1    4    4    0    0  0.25212882351E+02  0.10083984780E+03  0.12801219473E+03  0.16489841218E+03  0.00000000000E+00 0.  1.
         11    1    4    4    0    0 -0.29623761456E+02  0.78553212048E+01  0.11881910100E+02  0.32870246449E+02  0.00000000000E+00 0. -1.
        -13    1    3    3    0    0 -0.29614967582E+02  0.47250701040E+02  0.68909288701E+02  0.88646292212E+02  0.00000000000E+00 0.  1.
         13    1    3    3    0    0  0.24619040557E+02 -0.15956409336E+02  0.17193871052E+01  0.29388100464E+02  0.00000000000E+00 0. -1.
         21    1    1    2  502  501  0.94068061286E+01 -0.13998946071E+03 -0.74609038240E+02  0.15890892265E+03  0.00000000000E+00 0. -1.
<scales pt_clust_5="13000.00000" pt_clust_6="13000.00000" pt_clust_7="13000.00000" pt_clust_8="13000.00000" pt_clust_9="134.00156"></scales>
<clustering>
<clus scale="   87.795">  5  6 -1 -1</clus>
<clus scale="   89.103">  7  8 -1 -1</clus>
<clus scale="   94.571">  1  7  2 -1</clus>
<clus scale="  134.002">  2  9  1 -1</clus>
<clus scale="  134.002">  2  5  1 -1</clus>
</clustering>
</event>
<event>
 9    1  0.2423659E-006  0.9429544E+02  0.7546771E-02  0.1293473E+00
          1   -1    0    0  502    0  0.00000000000E+00  0.00000000000E+00  0.70614877689E+02  0.70614877689E+02  0.00000000000E+00 0. -1.
         -1   -1    0    0    0  501 -0.00000000000E+00 -0.00000000000E+00 -0.24925691092E+03  0.24925691092E+03  0.00000000000E+00 0.  1.
         23    2    1    2    0    0  0.26229863876E+02  0.72494526413E+01 -0.18403291697E+03  0.20671389228E+03  0.90121908621E+02 0.  0.
         23    2    1    2    0    0 -0.68862066498E+01  0.17743566830E+01  0.52085942465E+01  0.91812183897E+02  0.91388070744E+02 0.  0.
        -11    1    3    3    0    0  0.57955870881E+02  0.13726922604E+02 -0.13923419218E+03  0.15143801256E+03  0.00000000000E+00 0.  1.
         11    1    3    3    0    0 -0.31726007005E+02 -0.64774699623E+01 -0.44798724781E+02  0.55275879727E+02  0.00000000000E+00 0. -1.
        -13    1    4    4    0    0  0.41709770223E+02  0.82924355195E+01  0.46321685372E+01  0.42777639069E+02  0.00000000000E+00 0.  1.
         13    1    4    4    0    0 -0.48595976873E+02 -0.65180788365E+01  0.57642570927E+00  0.49034544829E+02  0.00000000000E+00 0. -1.
         21    1    1    2  502  501 -0.19343657227E+02 -0.90238093243E+01  0.18228948898E+00  0.21345712428E+02  0.00000000000E+00 0.  1.
<scales pt_clust_5="13000.00000" pt_clust_6="13000.00000" pt_clust_7="13000.00000" pt_clust_8="13000.00000" pt_clust_9="21.34493"></scales>
<clustering>
<clus scale="   21.345">  1  9  2 -1</clus>
<clus scale="   90.122">  5  6 -1 -1</clus>
<clus scale="   91.388">  7  8 -1 -1</clus>
<clus scale="   93.069">  2  5  1 -1</clus>
<clus scale="   21.345">  1  5  2 -1</clus>
</clustering>
</event>
<event>
 9    1  0.2423659E-006  0.2315647E+03  0.7546771E-02  0.1141172E+00
         -2   -1    0    0    0  501 -0.00000000000E+00  0.00000000000E+00  0.23130934372E+03  0.23130934372E+03  0.00000000000E+00 0.  1.
          2   -1    0    0  502    0  0.00000000000E+00 -0.00000000000E+00 -0.67827048317E+03  0.67827048317E+03  0.00000000000E+00 0. -1.
         23    2    1    2    0    0  0.40074188453E+02 -0.16251333206E+03 -0.91412073429E+02  0.21146765556E+03  0.91355779801E+02 0.  0.
         23    2    1    2    0    0  0.12498429737E+03 -0.27541247253E+02 -0.41098901811E+03  0.44035524097E+03  0.92850257705E+02 0.  0.
        -11    1    3    3    0    0 -0.17707698005E+02 -0.76560038256E+02 -0.89697029088E+01  0.79091450845E+02  0.00000000000E+00 0.  1.
         11    1    3    3    0    0  0.57781886458E+02 -0.85953293799E+02 -0.82442370520E+02  0.13237620471E+03  0.00000000000E+00 0. -1.
        -13    1    4    4    0    0  0.39745038570E+02 -0.17760372594E+02 -0.38507695281E+02  0.58120061265E+02  0.00000000000E+00 0.  1.
         13    1    4    4    0    0  0.85239258802E+02 -0.97808746591E+01 -0.37248132283E+03  0.38223517971E+03  0.00000000000E+00 0. -1.
         21    1    1    2  502  501 -0.16505848582E+03  0.19005457931E+03  0.55439952093E+02  0.25775693036E+03  0.00000000000E+00 0.  1.
<scales pt_clust_5="13000.00000" pt_clust_6="13000.00000" pt_clust_7="13000.00000" pt_clust_8="13000.00000" pt_clust_9="212.78233"></scales>
<clustering>
<clus scale="   91.356">  5  6 -1 -1</clus>
<clus scale="   92.850">  7  8 -1 -1</clus>
<clus scale="  158.116">  2  7  1 -1</clus>
<clus scale="  212.782">  1  9  2 -1</clus>
<clus scale="  158.116">  2  5  1 -1</clus>
</clustering>
</event>
<event>
 9    1  0.2423659E-006  0.9426746E+02  0.7546771E-02  0.1294997E+00
          1   -1    0    0  502    0  0.00000000000E+00  0.00000000000E+00  0.14667495177E+03  0.14667495177E+03  0.00000000000E+00 0. -1.
         -1   -1    0    0    0  501 -0.00000000000E+00 -0.00000000000E+00 -0.34865840402E+03  0.34865840402E+03  0.00000000000E+00 0.  1.
         23    2    1    2    0    0 -0.66215417856E+02 -0.13828058832E+02 -0.17006720272E+03  0.20481027367E+03  0.91916799258E+02 0.  0.
         23    2    1    2    0    0 -0.13786037518E+02  0.20316608736E+02  0.10037203039E+03  0.13578936523E+03  0.88098738938E+02 0.  0.
        -13    1    3    3    0    0 -0.52609152909E+02 -0.49031487167E+02 -0.13657041813E+03  0.15434794722E+03  0.00000000000E+00 0.  1.
         13    1    3    3    0    0 -0.13606264947E+02  0.35203428335E+02 -0.33496784590E+02  0.50462326445E+02  0.00000000000E+00 0. -1.
        -13    1    4    4    0    0 -0.56742549856E+01 -0.32763726446E+02  0.18999482221E+02  0.38296726556E+02  0.00000000000E+00 0. -1.
         13    1    4    4    0    0 -0.81117825326E+01  0.53080335182E+02  0.81372548172E+02  0.97492638670E+02  0.00000000000E+00 0.  1.
         21    1    1    2  502  501  0.80001455374E+02 -0.64885499035E+01 -0.13228827992E+03  0.15473371690E+03  0.00000000000E+00 0. -1.
<scales pt_clust_5="13000.00000" pt_clust_6="13000.00000" pt_clust_7="13000.00000" pt_clust_8="13000.00000" pt_clust_9="80.26415"></scales>
<clustering>
<clus scale="   80.264">  2  9  1 -1</clus>
<clus scale="   88.099">  7  8 -1 -1</clus>
<clus scale="   90.549">  1  7  2 -1</clus>
<clus scale="   91.917">  5  6 -1 -1</clus>
<clus scale="   90.549">  1  5  2 -1</clus>
</clustering>
</event>
<event>
 9    1  0.2423659E-006  0.1475245E+03  0.7546771E-02  0.1219308E+00
         -1   -1    0    0    0  501 -0.00000000000E+00  0.00000000000E+00  0.39162537903E+03  0.39162537903E+03  0.00000000000E+00 0.  1.
          1   -1    0    0  502    0  0.00000000000E+00 -0.00000000000E+00 -0.12271255471E+03  0.12271255471E+03  0.00000000000E+00 0. -1.
         23    2    1    2    0    0 -0.97337290628E+02  0.52570930805E+02  0.13166108617E+03  0.19418684132E+03  0.90197765044E+02 0.  0.
         23    2    1    2    0    0 -0.26753226141E+02 -0.41850963381E+02 -0.31824935394E+02  0.11015038862E+03  0.93021735935E+02 0.  0.
        -13    1    3    3    0    0 -0.45547368602E+02  0.37110077739E+02  0.12700810504E+03  0.13993848435E+03  0.00000000000E+00 0.  1.
         13    1    3    3    0    0 -0.51789922026E+02  0.15460853066E+02  0.46529811308E+01  0.54248356974E+02  0.00000000000E+00 0. -1.
        -13    1    4    4    0    0  0.19405359628E+02  0.13453013317E+02 -0.29886265663E+02  0.38088586543E+02  0.00000000000E+00 0.  1.
         13    1    4    4    0    0 -0.46158585769E+02 -0.55303976698E+02 -0.19386697314E+01  0.72061802081E+02  0.00000000000E+00 0. -1.
         21    1    1    2  502  501  0.12409051677E+03 -0.10719967424E+02  0.16907667355E+03  0.21000070379E+03  0.00000000000E+00 0.  1.
<scales pt_clust_5="13000.00000" pt_clust_6="13000.00000" pt_clust_7="13000.00000" pt_clust_8="13000.00000" pt_clust_9="116.73835"></scales>
<clustering>
<clus scale="   90.198">  5  6 -1 -1</clus>
<clus scale="   93.022">  7  8 -1 -1</clus>
<clus scale="  105.453">  2  7  1 -1</clus>
<clus scale="  116.738">  1  9  2 -1</clus>
<clus scale="  105.453">  2  5  1 -1</clus>
</clustering>
</event>
<event>
 9    1  0.2423659E-006  0.9066193E+02  0.7546771E-02  0.1301919E+00
         -2   -1    0    0    0  501 -0.00000000000E+00  0.00000000000E+00  0.32139314870E+02  0.32139314870E+02  0.00000000000E+00 0.  1.
          2   -1    0    0  502    0  0.00000000000E+00 -0.00000000000E+00 -0.38084201288E+03  0.38084201288E+03  0.00000000000E+00 0. -1.
         23    2    1    2    0    0 -0.33864498963E+01  0.20234114525E+02 -0.13865689781E+03  0.16625949992E+03  0.89418110969E+02 0.  0.
         23    2    1    2    0    0 -0.68043740014E+01  0.72491013767E+01 -0.19146514350E+03  0.21201706085E+03  0.90517865301E+02 0.  0.
        -11    1    4    4    0    0 -0.47898753787E+02  0.82397966568E+01 -0.85347498585E+02  0.98215988403E+02  0.00000000000E+00 0. -1.
         11    1    4    4    0    0  0.41094379786E+02 -0.99069528005E+00 -0.10611764492E+03  0.11380107245E+03  0.00000000000E+00 0.  1.
        -11    1    3    3    0    0  0.14355715800E+02 -0.28676130308E+02 -0.23077004657E+02  0.39508925188E+02  0.00000000000E+00 0.  1.
         11    1    3    3    0    0 -0.17742165696E+02  0.48910244832E+02 -0.11557989315E+03  0.12675057473E+03  0.00000000000E+00 0. -1.
         21    1    1    2  502  501  0.10190823898E+02 -0.27483215901E+02 -0.18580656698E+02  0.34704766982E+02  0.00000000000E+00 0.  1.
<scales pt_clust_5="13000.00000" pt_clust_6="13000.00000" pt_clust_7="13000.00000" pt_clust_8="13000.00000" pt_clust_9="29.31177"></scales>
<clustering>
<clus scale="   29.312">  1  9  2 -1</clus>
<clus scale="   89.418">  7  8 -1 -1</clus>
<clus scale="   89.564">  1  7  2 -1</clus>
<clus scale="   90.518">  5  6 -1 -1</clus>
<clus scale="   90.662">  2  5  1 -1</clus>
</clustering>
</event>
<event>
 9    1  0.2423659E-006  0.1360401E+03  0.7546771E-02  0.1236393E+00
         -1   -1    0    0    0  501 -0.00000000000E+00  0.00000000000E+00  0.38801076525E+03  0.38801076525E+03  0.00000000000E+00 0.  1.
          1   -1    0    0  502    0  0.00000000000E+00 -0.00000000000E+00 -0.90505361277E+02  0.90505361277E+02  0.00000000000E+00 0. -1.
         23    2    1    2    0    0 -0.69499570983E+02 -0.95985116810E+02  0.49428522699E+02  0.15766721821E+03  0.91501037300E+02 0.  0.
         23    2    1    2    0    0  0.88245247008E+01  0.20691091251E+02  0.67576635138E+02  0.11607832844E+03  0.91660150686E+02 0.  0.
        -11    1    3    3    0    0 -0.67010788297E+02 -0.59607100660E+02  0.71802372978E+02  0.11488704436E+03  0.00000000000E+00 0.  1.
         11    1    3    3    0    0 -0.24887826860E+01 -0.36378016150E+02 -0.22373850279E+02  0.42780173850E+02  0.00000000000E+00 0. -1.
        -11    1    4    4    0    0 -0.40993193109E+02  0.15451972400E+02  0.25724470428E+02  0.50803087614E+02  0.00000000000E+00 0.  1.
         11    1    4    4    0    0  0.49817717810E+02  0.52391188513E+01  0.41852164709E+02  0.65275240827E+02  0.00000000000E+00 0. -1.
         21    1    1    2  502  501  0.60675046282E+02  0.75294025559E+02  0.18050024614E+03  0.20477057987E+03  0.00000000000E+00 0.  1.
<scales pt_clust_5="13000.00000" pt_clust_6="13000.00000" pt_clust_7="13000.00000" pt_clust_8="13000.00000" pt_clust_9="100.67005"></scales>
<clustering>
<clus scale="   91.501">  5  6 -1 -1</clus>
<clus scale="   91.660">  7  8 -1 -1</clus>
<clus scale="   94.380">  2  7  1 -1</clus>
<clus scale="  100.670">  1  9  2 -1</clus>
<clus scale="   94.380">  2  5  1 -1</clus>
</clustering>
</event>
<event>
 9    1  0.2423659E-006  0.1373024E+03  0.7546771E-02  0.1217057E+00
          1   -1    0    0  502    0  0.00000000000E+00  0.00000000000E+00  0.11655658431E+03  0.11655658431E+03  0.00000000000E+00 0. -1.
         -1   -1    0    0    0  501 -0.00000000000E+00 -0.00000000000E+00 -0.44014359946E+03  0.44014359946E+03  0.00000000000E+00 0.  1.
         23    2    1    2    0    0  0.52192609486E+02  0.10867610843E+03 -0.33319496046E+03  0.36621153707E+03  0.92506449410E+02 0.  0.
         23    2    1    2    0    0 -0.42349087970E+02 -0.35397670695E+02 -0.22537681340E+02  0.10986628215E+03  0.92283327478E+02 0.  0.
        -11    1    3    3    0    0  0.26535562575E+02 -0.11017053435E+02 -0.79372566102E+02  0.84412770344E+02  0.00000000000E+00 0. -1.
         11    1    3    3    0    0  0.25657046911E+02  0.11969316186E+03 -0.25382239436E+03  0.28179876673E+03  0.00000000000E+00 0.  1.
        -11    1    4    4    0    0 -0.21378154014E+02  0.28288694858E+02 -0.23971368464E+02  0.42800727001E+02  0.00000000000E+00 0.  1.
         11    1    4    4    0    0 -0.20970933956E+02 -0.63686365553E+02  0.14336871236E+01  0.67065555147E+02  0.00000000000E+00 0. -1.
         21    1    1    2  502  501 -0.98435215164E+01 -0.73278437733E+02  0.32145626655E+02  0.80622364549E+02  0.00000000000E+00 0. -1.
<scales pt_clust_5="13000.00000" pt_clust_6="13000.00000" pt_clust_7="13000.00000" pt_clust_8="13000.00000" pt_clust_9="73.93662"></scales>
<clustering>
<clus scale="   73.937">  1  9  2 -1</clus>
<clus scale="   92.283">  7  8 -1 -1</clus>
<clus scale="   92.506">  5  6 -1 -1</clus>
<clus scale="  137.152">  1  7  2 -1</clus>
<clus scale="   73.937">  1  5  2 -1</clus>
</clustering>
</event>
<event>
 9    1  0.2423659E-006  0.1013295E+03  0.7546771E-02  0.1279932E+00
         -1   -1    0    0    0  501 -0.00000000000E+00  0.00000000000E+00  0.20280345858E+03  0.20280345858E+03  0.00000000000E+00 0.  1.
          1   -1    0    0  502    0  0.00000000000E+00 -0.00000000000E+00 -0.82188834185E+02  0.82188834185E+02  0.00000000000E+00 0. -1.
         23    2    1    2    0    0  0.79377075983E+01  0.25619384788E+02  0.59899550318E+02  0.11641112977E+03  0.96146944445E+02 0.  0.
         23    2    1    2    0    0 -0.48128569074E+02  0.53407166403E+01  0.24499173361E+02  0.10624798811E+03  0.91342996818E+02 0.  0.
        -11    1    3    3    0    0  0.25762120389E+02 -0.23344877716E+02  0.53650612425E+02  0.63930105397E+02  0.00000000000E+00 0.  1.
         11    1    3    3    0    0 -0.17824412790E+02  0.48964262504E+02  0.62489378924E+01  0.52481024368E+02  0.00000000000E+00 0. -1.
        -13    1    4    4    0    0  0.25492172448E+02 -0.10872669997E+02  0.10120280523E+02  0.29503997811E+02  0.00000000000E+00 0.  1.
         13    1    4    4    0    0 -0.73620741522E+02  0.16213386637E+02  0.14378892838E+02  0.76743990303E+02  0.00000000000E+00 0. -1.
         21    1    1    2  502  501  0.40190861476E+02 -0.30960101429E+02  0.36215900716E+02  0.62333174886E+02  0.00000000000E+00 0. -1.
<scales pt_clust_5="13000.00000" pt_clust_6="13000.00000" pt_clust_7="13000.00000" pt_clust_8="13000.00000" pt_clust_9="50.73296"></scales>
<clustering>
<clus scale="   50.733">  1  9  2 -1</clus>
<clus scale="   91.343">  7  8 -1 -1</clus>
<clus scale="   96.147">  5  6 -1 -1</clus>
<clus scale="   96.783">  2  7  1 -1</clus>
<clus scale="   96.783">  2  5  1 -1</clus>
</clustering>
</event>
<event>
 9    1  0.2423659E-006  0.1479829E+03  0.7546771E-02  0.1225693E+00
          3   -1    0    0  502    0  0.00000000000E+00  0.00000000000E+00  0.17157841372E+04  0.17157841372E+04  0.00000000000E+00 0. -1.
         -3   -1    0    0    0  501 -0.00000000000E+00 -0.00000000000E+00 -0.19928707715E+02  0.19928707715E+02  0.00000000000E+00 0.  1.
         23    2    1    2    0    0 -0.47260249240E+02  0.10726205995E+03  0.48731886346E+03  0.50972312102E+03  0.92732436329E+02 0.  0.
         23    2    1    2    0    0 -0.24532277658E+01 -0.63263207208E+01  0.45425737054E+03  0.46336494199E+03  0.91166167589E+02 0.  0.
        -11    1    3    3    0    0 -0.44246836767E+02  0.42932084993E+02  0.10296598336E+03  0.12001225027E+03  0.00000000000E+00 0.  1.
         11    1    3    3    0    0 -0.30134124734E+01  0.64329974960E+02  0.38435288011E+03  0.38971087075E+03  0.00000000000E+00 0. -1.
        -13    1    4    4    0    0  0.32187042359E+02 -0.33431163362E+02  0.19847025940E+03  0.20382367931E+03  0.00000000000E+00 0. -1.
         13    1    4    4    0    0 -0.34640270125E+02  0.27104842641E+02  0.25578711114E+03  0.25954126268E+03  0.00000000000E+00 0.  1.
         21    1    1    2  502  501  0.49713477006E+02 -0.10093573923E+03  0.75427919547E+03  0.76262478190E+03  0.00000000000E+00 0.  1.
<scales pt_clust_5="13000.00000" pt_clust_6="13000.00000" pt_clust_7="13000.00000" pt_clust_8="13000.00000" pt_clust_9="115.32405"></scales>
<clustering>
<clus scale="   91.166">  7  8 -1 -1</clus>
<clus scale="   91.418">  1  7  2 -1</clus>
<clus scale="   92.732">  5  6 -1 -1</clus>
<clus scale="  115.324">  1  9  2 -1</clus>
<clus scale="   91.418">  1  5  2 -1</clus>
</clustering>
</event>
<event>
 9    1  0.2423659E-006  0.1045514E+03  0.7546771E-02  0.1272621E+00
         -1   -1    0    0    0  501 -0.00000000000E+00  0.00000000000E+00  0.93557542751E+02  0.93557542751E+02  0.00000000000E+00 0.  1.
          1   -1    0    0  502    0  0.00000000000E+00 -0.00000000000E+00 -0.50312544257E+03  0.50312544257E+03  0.00000000000E+00 0. -1.
         23    2    1    2    0    0  0.36796252098E+02  0.47875904094E+02  0.24125807688E+02  0.11086795616E+03  0.89797454003E+02 0.  0.
         23    2    1    2    0    0  0.30450798633E+02 -0.30298865718E+02 -0.94716758548E+02  0.13978542055E+03  0.93399288257E+02 0.  0.
        -13    1    3    3    0    0  0.50994980390E+02  0.18742845241E+02  0.46478223330E+02  0.71498304292E+02  0.00000000000E+00 0.  1.
         13    1    3    3    0    0 -0.14198728292E+02  0.29133058853E+02 -0.22352415642E+02  0.39369651869E+02  0.00000000000E+00 0. -1.
        -13    1    4    4    0    0 -0.12003950086E+02 -0.28893573975E+02 -0.92051919474E+02  0.97223913281E+02  0.00000000000E+00 0. -1.
         13    1    4    4    0    0  0.42454748718E+02 -0.14052917428E+01 -0.26648390739E+01  0.42561507268E+02  0.00000000000E+00 0.  1.
         21    1    1    2  502  501 -0.67247050731E+02 -0.17577038376E+02 -0.33897694896E+03  0.34602960861E+03  0.00000000000E+00 0. -1.
<scales pt_clust_5="13000.00000" pt_clust_6="13000.00000" pt_clust_7="13000.00000" pt_clust_8="13000.00000" pt_clust_9="69.50625"></scales>
<clustering>
<clus scale="   69.506">  2  9  1 -1</clus>
<clus scale="   89.797">  5  6 -1 -1</clus>
<clus scale="   93.399">  7  8 -1 -1</clus>
<clus scale="  101.347">  1  5  2 -1</clus>
<clus scale="   69.506">  2  5  1 -1</clus>
</clustering>
</event>
<event>
 9    1  0.2423659E-006  0.9450486E+02  0.7546771E-02  0.1292539E+00
         -1   -1    0    0    0  501 -0.00000000000E+00  0.00000000000E+00  0.11340507063E+03  0.11340507063E+03  0.00000000000E+00 0.  1.
          1   -1    0    0  502    0  0.00000000000E+00 -0.00000000000E+00 -0.29645129175E+03  0.29645129175E+03  0.00000000000E+00 0. -1.
         23    2    1    2    0    0 -0.48494687818E+02 -0.96913668687E+01  0.41332724548E+02  0.11155522309E+03  0.91052272575E+02 0.  0.
         23    2    1    2    0    0  0.21406726069E+02 -0.94547257872E+01 -0.24290441645E+03  0.26030740819E+03  0.90607678843E+02 0.  0.
        -11    1    4    4    0    0 -0.15566079032E+02  0.22508642522E+02 -0.25258624829E+02  0.37241642457E+02  0.00000000000E+00 0.  1.
         11    1    4    4    0    0  0.36972805101E+02 -0.31963368309E+02 -0.21764579162E+03  0.22306576573E+03  0.00000000000E+00 0. -1.
        -13    1    3    3    0    0  0.26660183345E+02  0.36797359337E+01  0.67185707593E+01  0.27738872104E+02  0.00000000000E+00 0. -1.
         13    1    3    3    0    0 -0.75154871163E+02 -0.13371102802E+02  0.34614153788E+02  0.83816350983E+02  0.00000000000E+00 0.  1.
         21    1    1    2  502  501  0.27087961749E+02  0.19146092656E+02  0.18525470785E+02  0.37993731108E+02  0.00000000000E+00 0.  1.
<scales pt_clust_5="13000.00000" pt_clust_6="13000.00000" pt_clust_7="13000.00000" pt_clust_8="13000.00000" pt_clust_9="33.17123"></scales>
<clustering>
<clus scale="   33.171">  1  9  2 -1</clus>
<clus scale="   90.608">  5  6 -1 -1</clus>
<clus scale="   91.052">  7  8 -1 -1</clus>
<clus scale="   94.077">  2  5  1 -1</clus>
<clus scale="   94.077">  2  5  1 -1</clus>
</clustering>
</event>
<event>
 9    1  0.2423659E-006  0.9423659E+02  0.7546771E-02  0.1292967E+00
         -2   -1    0    0    0  501 -0.00000000000E+00  0.00000000000E+00  0.42852385161E+02  0.42852385161E+02  0.00000000000E+00 0.  1.
          2   -1    0    0  502    0  0.00000000000E+00 -0.00000000000E+00 -0.48944208404E+03  0.48944208404E+03  0.00000000000E+00 0. -1.
         23    2    1    2    0    0  0.28939300691E+02 -0.15913296602E+02 -0.57139441176E+02  0.11303522330E+03  0.91767803918E+02 0.  0.
         23    2    1    2    0    0  0.20502866240E+02 -0.61248570627E+01 -0.30279925907E+03  0.31708976097E+03  0.91655026138E+02 0.  0.
        -11    1    4    4    0    0  0.46234400842E+02 -0.31638693953E+02 -0.15193711744E+03  0.16193676059E+03  0.00000000000E+00 0.  1.
         11    1    4    4    0    0 -0.25731534602E+02  0.25513836891E+02 -0.15086214164E+03  0.15515300037E+03  0.00000000000E+00 0. -1.
        -11    1    3    3    0    0  0.56775247250E+02 -0.31498011208E+02 -0.44537380497E+02  0.78734564658E+02  0.00000000000E+00 0.  1.
         11    1    3    3    0    0 -0.27835946558E+02  0.15584714606E+02 -0.12602060680E+02  0.34300658646E+02  0.00000000000E+00 0. -1.
         21    1    1    2  502  501 -0.49442166931E+02  0.22038153665E+02 -0.86650998632E+02  0.10216948493E+03  0.00000000000E+00 0. -1.
<scales pt_clust_5="13000.00000" pt_clust_6="13000.00000" pt_clust_7="13000.00000" pt_clust_8="13000.00000" pt_clust_9="54.13140"></scales>
<clustering>
<clus scale="   54.131">  2  9  1 -1</clus>
<clus scale="   91.655">  5  6 -1 -1</clus>
<clus scale="   91.768">  7  8 -1 -1</clus>
<clus scale="   94.127">  2  5  1 -1</clus>
<clus scale="   54.131">  2  5  1 -1</clus>
</clustering>
</event>
<event>
 9    1  0.2423659E-006  0.1041817E+03  0.7546771E-02  0.1273789E+00
          1   -1    0    0  502    0  0.00000000000E+00  0.00000000000E+00  0.84955248043E+02  0.84955248043E+02  0.00000000000E+00 0. -1.
         -1   -1    0    0    0  501 -0.00000000000E+00 -0.00000000000E+00 -0.22895902637E+03  0.22895902637E+03  0.00000000000E+00 0.  1.
         23    2    1    2    0    0 -0.70182291767E+02 -0.11612838588E+02 -0.10208257612E+03  0.15548254281E+03  0.93239244274E+02 0.  0.
         23    2    1    2    0    0  0.12980577405E+02  0.21836892615E+02 -0.39198768190E+02  0.10025975336E+03  0.88713750042E+02 0.  0.
        -11    1    3    3    0    0 -0.51323339057E+02  0.27271062608E+02 -0.95462300180E+02  0.11176245677E+03  0.00000000000E+00 0.  1.
         11    1    3    3    0    0 -0.18858952710E+02 -0.38883901196E+02 -0.66202759402E+01  0.43720086037E+02  0.00000000000E+00 0. -1.
        -11    1    4    4    0    0 -0.30573425599E+02  0.29627485738E+02 -0.36250776042E+02  0.55916375309E+02  0.00000000000E+00 0.  1.
         11    1    4    4    0    0  0.43554003004E+02 -0.77905931233E+01 -0.29479921477E+01  0.44343378047E+02  0.00000000000E+00 0. -1.
         21    1    1    2  502  501  0.57201714362E+02 -0.10224054027E+02 -0.27224340178E+01  0.58171978251E+02  0.00000000000E+00 0. -1.
<scales pt_clust_5="13000.00000" pt_clust_6="13000.00000" pt_clust_7="13000.00000" pt_clust_8="13000.00000" pt_clust_9="58.10824"></scales>
<clustering>
<clus scale="   58.108">  1  9  2 -1</clus>
<clus scale="   88.714">  7  8 -1 -1</clus>
<clus scale="   93.239">  5  6 -1 -1</clus>
<clus scale="  100.152">  1  7  2 -1</clus>
<clus scale="   58.108">  1  5  2 -1</clus>
</clustering>
</event>
<event>
 9    1  0.2423659E-006  0.9547844E+02  0.7546771E-02  0.1290967E+00
         -4   -1    0    0    0  501 -0.00000000000E+00  0.00000000000E+00  0.12057133587E+03  0.12057133587E+03  0.00000000000E+00 0.  1.
          4   -1    0    0  502    0  0.00000000000E+00 -0.00000000000E+00 -0.27891999113E+03  0.27891999113E+03  0.00000000000E+00 0. -1.
         23    2    1    2    0    0 -0.62154597080E+01 -0.40681514790E+02  0.64299363911E+02  0.11875987498E+03  0.90971875437E+02 0.  0.
         23    2    1    2    0    0 -0.28600635688E+02 -0.18590518495E+02 -0.90032119162E+02  0.13135839099E+03  0.89362411915E+02 0.  0.
        -11    1    3    3    0    0 -0.25978664250E+02 -0.31763006189E+01 -0.14028978923E+02  0.29694984955E+02  0.00000000000E+00 0. -1.
         11    1    3    3    0    0  0.19763204542E+02 -0.37505214171E+02  0.78328342834E+02  0.89064890023E+02  0.00000000000E+00 0.  1.
        -13    1    4    4    0    0  0.39771173161E+01 -0.41912707539E+02 -0.12222271961E+02  0.43839211299E+02  0.00000000000E+00 0.  1.
         13    1    4    4    0    0 -0.32577753005E+02  0.23322189044E+02 -0.77809847201E+02  0.87519179692E+02  0.00000000000E+00 0. -1.
         21    1    1    2  502  501  0.34816095396E+02  0.59272033285E+02 -0.13261590000E+03  0.14937306103E+03  0.00000000000E+00 0. -1.
<scales pt_clust_5="13000.00000" pt_clust_6="13000.00000" pt_clust_7="13000.00000" pt_clust_8="13000.00000" pt_clust_9="68.74107"></scales>
<clustering>
<clus scale="   68.741">  2  9  1 -1</clus>
<clus scale="   89.362">  7  8 -1 -1</clus>
<clus scale="   90.972">  5  6 -1 -1</clus>
<clus scale="   93.946">  2  7  1 -1</clus>
<clus scale="   68.741">  2  5  1 -1</clus>
</clustering>
</event>
<event>
 9    1  0.2423659E-006  0.1024288E+03  0.7546771E-02  0.1276484E+00
          4   -1    0    0  502    0  0.00000000000E+00  0.00000000000E+00  0.56635458615E+03  0.56635458615E+03  0.00000000000E+00 0. -1.
         -4   -1    0    0    0  501 -0.00000000000E+00 -0.00000000000E+00 -0.39766225715E+02  0.39766225715E+02  0.00000000000E+00 0.  1.
         23    2    1    2    0    0  0.11796651084E+02  0.74056088751E+02  0.20276546532E+03  0.23464192619E+03  0.91211481411E+02 0.  0.
         23    2    1    2    0    0  0.31061795910E+02 -0.16544372071E+02  0.24615981756E+03  0.26576229450E+03  0.93789071781E+02 0.  0.
        -11    1    4    4    0    0 -0.19085206357E+02 -0.40370962308E+02  0.10984712328E+03  0.11857676919E+03  0.00000000000E+00 0.  1.
         11    1    4    4    0    0  0.50147002266E+02  0.23826590238E+02  0.13631269428E+03  0.14718552531E+03  0.00000000000E+00 0. -1.
        -11    1    3    3    0    0 -0.37712379672E+02  0.48755409422E+02  0.12050444936E+03  0.13535374337E+03  0.00000000000E+00 0.  1.
         11    1    3    3    0    0  0.49509030756E+02  0.25300679328E+02  0.82261015962E+02  0.99288182821E+02  0.00000000000E+00 0. -1.
         21    1    1    2  502  501 -0.42858446994E+02 -0.57511716680E+02  0.77663077553E+02  0.10571659117E+03  0.00000000000E+00 0. -1.
<scales pt_clust_5="13000.00000" pt_clust_6="13000.00000" pt_clust_7="13000.00000" pt_clust_8="13000.00000" pt_clust_9="71.72478"></scales>
<clustering>
<clus scale="   71.725">  2  9  1 -1</clus>
<clus scale="   91.211">  7  8 -1 -1</clus>
<clus scale="   93.789">  5  6 -1 -1</clus>
<clus scale="  100.074">  2  7  1 -1</clus>
<clus scale="  102.429">  1  5  2 -1</clus>
</clustering>
</event>
<event>
 9    1  0.2423659E-006  0.1578809E+03  0.7546771E-02  0.1215779E+00
          1   -1    0    0  502    0  0.00000000000E+00  0.00000000000E+00  0.28278392180E+03  0.28278392180E+03  0.00000000000E+00 0. -1.
         -1   -1    0    0    0  501 -0.00000000000E+00 -0.00000000000E+00 -0.26079735417E+03  0.26079735417E+03  0.00000000000E+00 0.  1.
         23    2    1    2    0    0  0.12249618737E+03 -0.76982106855E+02 -0.49561380547E+02  0.17859357695E+03  0.92237598571E+02 0.  0.
         23    2    1    2    0    0 -0.28426546254E+02  0.13897616704E+00  0.17980253241E+03  0.20228238527E+03  0.88210684642E+02 0.  0.
        -11    1    3    3    0    0  0.59380901264E+02 -0.71581855696E+02 -0.64907485313E+02  0.11341532149E+03  0.00000000000E+00 0.  1.
         11    1    3    3    0    0  0.63115286109E+02 -0.54002511589E+01  0.15346104765E+02  0.65178255459E+02  0.00000000000E+00 0. -1.
        -13    1    4    4    0    0 -0.47701171978E+02 -0.24719507028E+02  0.14843866381E+03  0.15786225879E+03  0.00000000000E+00 0. -1.
         13    1    4    4    0    0  0.19274625723E+02  0.24858483195E+02  0.31363868597E+02  0.44420126485E+02  0.00000000000E+00 0.  1.
         21    1    1    2  502  501 -0.94069641119E+02  0.76843130688E+02 -0.10825458424E+03  0.16270531375E+03  0.00000000000E+00 0. -1.
<scales pt_clust_5="13000.00000" pt_clust_6="13000.00000" pt_clust_7="13000.00000" pt_clust_8="13000.00000" pt_clust_9="128.13507"></scales>
<clustering>
<clus scale="   88.211">  7  8 -1 -1</clus>
<clus scale="   92.238">  5  6 -1 -1</clus>
<clus scale="   92.678">  1  7  2 -1</clus>
<clus scale="  128.135">  2  9  1 -1</clus>
<clus scale="   92.678">  1  5  2 -1</clus>
</clustering>
</event>
<event>
 9    1  0.2423659E-006  0.1760435E+03  0.7546771E-02  0.1172358E+00
         -1   -1    0    0    0  501 -0.00000000000E+00  0.00000000000E+00  0.12902557450E+03  0.12902557450E+03  0.00000000000E+00 0.  1.
          1   -1    0    0  502    0  0.00000000000E+00 -0.00000000000E+00 -0.53165445890E+03  0.53165445890E+03  0.00000000000E+00 0. -1.
         23    2    1    2    0    0 -0.75472078438E+02  0.16991554628E+03 -0.99667300214E+02  0.23001314285E+03  0.91679592387E+02 0.  0.
         23    2    1    2    0    0 -0.13634124259E+02 -0.13868386312E+03 -0.28919639677E+03  0.33524774270E+03  0.96630170485E+02 0.  0.
        -11    1    4    4    0    0  0.40448082826E+02 -0.77849559631E+02 -0.13780527408E+03  0.16336124052E+03  0.00000000000E+00 0. -1.
         11    1    4    4    0    0 -0.54082207085E+02 -0.60834303492E+02 -0.15139112268E+03  0.17188650218E+03  0.00000000000E+00 0.  1.
        -13    1    3    3    0    0 -0.24898504688E+02  0.70513938504E+02  0.77341377566E+01  0.75179571333E+02  0.00000000000E+00 0. -1.
         13    1    3    3    0    0 -0.50573573751E+02  0.99401607773E+02 -0.10740143797E+03  0.15483357151E+03  0.00000000000E+00 0.  1.
         21    1    1    2  502  501  0.89106202697E+02 -0.31231683154E+02 -0.13765187414E+02  0.95419147849E+02  0.00000000000E+00 0. -1.
<scales pt_clust_5="13000.00000" pt_clust_6="13000.00000" pt_clust_7="13000.00000" pt_clust_8="13000.00000" pt_clust_9="94.42104"></scales>
<clustering>
<clus scale="   91.680">  7  8 -1 -1</clus>
<clus scale="   94.421">  1  9  2 -1</clus>
<clus scale="   96.630">  5  6 -1 -1</clus>
<clus scale="  173.376">  1  7  2 -1</clus>
<clus scale="  176.044">  2  5  1 -1</clus>
</clustering>
</event>
<event>
 9    1  0.2423659E-006  0.1891457E+03  0.7546771E-02  0.1161272E+00
          1   -1    0    0  502    0  0.00000000000E+00  0.00000000000E+00  0.95701329440E+03  0.95701329440E+03  0.00000000000E+00 0. -1.
         -1   -1    0    0    0  501 -0.00000000000E+00 -0.00000000000E+00 -0.66937724578E+02  0.66937724578E+02  0.00000000000E+00 0.  1.
         23    2    1    2    0    0 -0.12711797813E+03 -0.93858355718E+02  0.14469556072E+03  0.23990821904E+03  0.10793876491E+03 0.  0.
         23    2    1    2    0    0  0.15046132290E+03  0.40972400691E+02  0.49357747002E+03  0.52568964111E+03  0.91725310316E+02 0.  0.
        -11    1    4    4    0    0  0.14094383491E+03  0.22100236406E+02  0.47955107739E+03  0.50032271672E+03  0.00000000000E+00 0. -1.
         11    1    4    4    0    0  0.95174879922E+01  0.18872164284E+02  0.14026392630E+02  0.25366924383E+02  0.00000000000E+00 0.  1.
        -13    1    3    3    0    0 -0.13880154626E+02 -0.47655472810E+02  0.96378405148E+02  0.10840894686E+03  0.00000000000E+00 0. -1.
         13    1    3    3    0    0 -0.11323782350E+03 -0.46202882908E+02  0.48317155567E+02  0.13149927218E+03  0.00000000000E+00 0.  1.
         21    1    1    2  502  501 -0.23343344772E+02  0.52885955028E+02  0.25180253909E+03  0.25835315883E+03  0.00000000000E+00 0. -1.
<scales pt_clust_5="13000.00000" pt_clust_6="13000.00000" pt_clust_7="13000.00000" pt_clust_8="13000.00000" pt_clust_9="57.80862"></scales>
<clustering>
<clus scale="   57.809">  1  9  2 -1</clus>
<clus scale="   91.725">  5  6 -1 -1</clus>
<clus scale="  107.939">  7  8 -1 -1</clus>
<clus scale="  180.385">  1  5  2 -1</clus>
<clus scale="   57.809">  1  5  2 -1</clus>
</clustering>
</event>
<event>
 9    1  0.2423659E-006  0.1650565E+03  0.7546771E-02  0.1198213E+00
         -1   -1    0    0    0  501 -0.00000000000E+00  0.00000000000E+00  0.21055240060E+03  0.21055240060E+03  0.00000000000E+00 0.  1.
          1   -1    0    0  502    0  0.00000000000E+00 -0.00000000000E+00 -0.27117866939E+03  0.27117866939E+03  0.00000000000E+00 0. -1.
         23    2    1    2    0    0  0.24978314284E+02  0.12999212538E+03  0.62970414814E+02  0.17335369333E+03  0.92543832882E+02 0.  0.
         23    2    1    2    0    0 -0.72236589895E+02  0.18206338954E+02 -0.91577566601E+02  0.14956505566E+03  0.91834957796E+02 0.  0.
        -11    1    3    3    0    0 -0.53837446655E+01  0.69112540722E+02  0.77299460123E+02  0.10383031603E+03  0.00000000000E+00 0.  1.
         11    1    3    3    0    0  0.30362058949E+02  0.60879584660E+02 -0.14329045309E+02  0.69523377302E+02  0.00000000000E+00 0. -1.
        -13    1    4    4    0    0  0.14590981765E+02  0.27100968663E+02 -0.27664064395E+02  0.41384293038E+02  0.00000000000E+00 0.  1.
         13    1    4    4    0    0 -0.86827571661E+02 -0.88946297096E+01 -0.63913502206E+02  0.10818076263E+03  0.00000000000E+00 0. -1.
         21    1    1    2  502  501  0.47258275611E+02 -0.14819846434E+03 -0.32019117004E+02  0.15881232099E+03  0.00000000000E+00 0. -1.
<scales pt_clust_5="13000.00000" pt_clust_6="13000.00000" pt_clust_7="13000.00000" pt_clust_8="13000.00000" pt_clust_9="136.67219"></scales>
<clustering>
<clus scale="   91.835">  7  8 -1 -1</clus>
<clus scale="   92.544">  5  6 -1 -1</clus>
<clus scale="  118.251">  2  7  1 -1</clus>
<clus scale="  136.672">  2  9  1 -1</clus>
<clus scale="  118.251">  2  5  1 -1</clus>
</clustering>
</event>
<event>
 9    1  0.2423659E-006  0.1008764E+03  0.7546771E-02  0.1280592E+00
          1   -1    0    0  502    0  0.00000000000E+00  0.00000000000E+00  0.78616909102E+03  0.78616909102E+03  0.00000000000E+00 0. -1.
         -1   -1    0    0    0  501 -0.00000000000E+00 -0.00000000000E+00 -0.16940374877E+02  0.16940374877E+02  0.00000000000E+00 0.  1.
         23    2    1    2    0    0 -0.34914618388E+02  0.17339335961E+01  0.34571901747E+03  0.36015882551E+03  0.94713797542E+02 0.  0.
         23    2    1    2    0    0  0.58901691578E+01 -0.52151666909E+01  0.35218407769E+03  0.36586703744E+03  0.98808767040E+02 0.  0.
        -11    1    3    3    0    0  0.11426891059E+02  0.36671585735E+02  0.88538961232E+02  0.96511795629E+02  0.00000000000E+00 0.  1.
         11    1    3    3    0    0 -0.46341509447E+02 -0.34937652139E+02  0.25718005624E+03  0.26364702988E+03  0.00000000000E+00 0. -1.
        -13    1    4    4    0    0  0.10770783518E+02 -0.48626256380E+02  0.12567774307E+03  0.13518660322E+03  0.00000000000E+00 0. -1.
         13    1    4    4    0    0 -0.48806143598E+01  0.43411089689E+02  0.22650633462E+03  0.23068043421E+03  0.00000000000E+00 0.  1.
         21    1    1    2  502  501  0.29024449230E+02  0.34812330948E+01  0.71325620971E+02  0.77083602951E+02  0.00000000000E+00 0.  1.
<scales pt_clust_5="13000.00000" pt_clust_6="13000.00000" pt_clust_7="13000.00000" pt_clust_8="13000.00000" pt_clust_9="29.23248"></scales>
<clustering>
<clus scale="   29.232">  2  9  1 -1</clus>
<clus scale="   94.714">  5  6 -1 -1</clus>
<clus scale="   96.869">  2  5  1 -1</clus>
<clus scale="   98.809">  7  8 -1 -1</clus>
<clus scale="  100.876">  1  5  2 -1</clus>
</clustering>
</event>
<event>
 9    1  0.2423659E-006  0.1475769E+03  0.7546771E-02  0.1220222E+00
          1   -1    0    0  502    0  0.00000000000E+00  0.00000000000E+00  0.72304352839E+03  0.72304352839E+03  0.00000000000E+00 0. -1.
         -1   -1    0    0    0  501 -0.00000000000E+00 -0.00000000000E+00 -0.87006155908E+02  0.87006155908E+02  0.00000000000E+00 0.  1.
         23    2    1    2    0    0  0.50560202192E+02 -0.74497275666E+01 -0.13706406886E+02  0.10424257689E+03  0.89815459479E+02 0.  0.
         23    2    1    2    0    0 -0.88555817676E+02 -0.98389365607E+02  0.32685855902E+03  0.36390003529E+03  0.89800434141E+02 0.  0.
        -11    1    3    3    0    0  0.33971946897E+02  0.34732095257E+02  0.14689355755E+02  0.50756169964E+02  0.00000000000E+00 0. -1.
         11    1    3    3    0    0  0.16588255295E+02 -0.42181822824E+02 -0.28395762641E+02  0.53486406931E+02  0.00000000000E+00 0.  1.
        -13    1    4    4    0    0 -0.88268758347E+02 -0.67135578133E+02  0.16339533100E+03  0.19747555227E+03  0.00000000000E+00 0.  1.
         13    1    4    4    0    0 -0.28705932939E+00 -0.31253787474E+02  0.16346322802E+03  0.16642448303E+03  0.00000000000E+00 0. -1.
         21    1    1    2  502  501  0.37995615484E+02  0.10583909317E+03  0.32288522034E+03  0.34190707211E+03  0.00000000000E+00 0. -1.
<scales pt_clust_5="13000.00000" pt_clust_6="13000.00000" pt_clust_7="13000.00000" pt_clust_8="13000.00000" pt_clust_9="117.11026"></scales>
<clustering>
<clus scale="   89.800">  7  8 -1 -1</clus>
<clus scale="   89.815">  5  6 -1 -1</clus>
<clus scale="  103.338">  2  5  1 -1</clus>
<clus scale="  117.110">  1  9  2 -1</clus>
<clus scale="  117.110">  1  5  2 -1</clus>
</clustering>
</event>
<event>
 9    1  0.2423659E-006  0.1588646E+03  0.7546771E-02  0.1211964E+00
         -1   -1    0    0    0  501 -0.00000000000E+00  0.00000000000E+00  0.85438291209E+02  0.85438291209E+02  0.00000000000E+00 0.  1.
          1   -1    0    0  502    0  0.00000000000E+00 -0.00000000000E+00 -0.96678031373E+03  0.96678031373E+03  0.00000000000E+00 0. -1.
         23    2    1    2    0    0 -0.52936716183E+02  0.13145530372E+03 -0.71045537912E+03  0.73232560337E+03  0.10710345856E+03 0.  0.
         23    2    1    2    0    0  0.37904439954E+02 -0.16627018564E+02 -0.17838973490E+03  0.20384214727E+03  0.89529431863E+02 0.  0.
        -13    1    4    4    0    0  0.29628442919E+02  0.35277916207E+02 -0.82357775670E+02  0.94367257113E+02  0.00000000000E+00 0. -1.
         13    1    4    4    0    0  0.82759970351E+01 -0.51904934771E+02 -0.96031959235E+02  0.10947489016E+03  0.00000000000E+00 0.  1.
        -13    1    3    3    0    0 -0.66824907876E+01  0.10298700020E+03 -0.60464880042E+03  0.61339314452E+03  0.00000000000E+00 0. -1.
         13    1    3    3    0    0 -0.46254225395E+02  0.28468303519E+02 -0.10580657870E+03  0.11893245885E+03  0.00000000000E+00 0.  1.
         21    1    1    2  502  501  0.15032276229E+02 -0.11482828516E+03  0.75030915050E+01  0.11605085430E+03  0.00000000000E+00 0.  1.
<scales pt_clust_5="13000.00000" pt_clust_6="13000.00000" pt_clust_7="13000.00000" pt_clust_8="13000.00000" pt_clust_9="117.33206"></scales>
<clustering>
<clus scale="   89.529">  5  6 -1 -1</clus>
<clus scale="   98.634">  2  5  1 -1</clus>
<clus scale="  107.103">  7  8 -1 -1</clus>
<clus scale="  117.332">  1  9  2 -1</clus>
<clus scale="   98.634">  2  5  1 -1</clus>
</clustering>
</event>
<event>
 9    1  0.2423659E-006  0.2147269E+03  0.7546771E-02  0.1159633E+00
         -1   -1    0    0    0  501 -0.00000000000E+00  0.00000000000E+00  0.16097322717E+04  0.16097322717E+04  0.00000000000E+00 0.  1.
          1   -1    0    0  502    0  0.00000000000E+00 -0.00000000000E+00 -0.80510938849E+02  0.80510938849E+02  0.00000000000E+00 0. -1.
         23    2    1    2    0    0 -0.15665875785E+03  0.11032677364E+03  0.16809614244E+03  0.27050007459E+03  0.90553927874E+02 0.  0.
         23    2    1    2    0    0  0.57671669802E+02  0.60740492298E+02  0.17279320684E+03  0.21508743566E+03  0.96900380542E+02 0.  0.
        -11    1    4    4    0    0 -0.22385779496E+02  0.66050180979E+01  0.70941300324E+02  0.74682109500E+02  0.00000000000E+00 0.  1.
         11    1    4    4    0    0  0.80057449298E+02  0.54135474200E+02  0.10185190651E+03  0.14040532617E+03  0.00000000000E+00 0. -1.
        -11    1    3    3    0    0 -0.10244087980E+03  0.93808968356E+02  0.66134427911E+02  0.15384413851E+03  0.00000000000E+00 0. -1.
         11    1    3    3    0    0 -0.54217878048E+02  0.16517805288E+02  0.10196171453E+03  0.11665593608E+03  0.00000000000E+00 0.  1.
         21    1    1    2  502  501  0.98987088050E+02 -0.17106726594E+03  0.11883319835E+04  0.12046557003E+04  0.00000000000E+00 0.  1.
<scales pt_clust_5="13000.00000" pt_clust_6="13000.00000" pt_clust_7="13000.00000" pt_clust_8="13000.00000" pt_clust_9="194.69883"></scales>
<clustering>
<clus scale="   90.554">  7  8 -1 -1</clus>
<clus scale="   96.900">  5  6 -1 -1</clus>
<clus scale="  128.082">  2  5  1 -1</clus>
<clus scale="  194.699">  1  9  2 -1</clus>
<clus scale="  128.082">  2  5  1 -1</clus>
</clustering>
</event>
<event>
 9    1  0.2423659E-006  0.1406372E+03  0.7546771E-02  0.1228609E+00
          2   -1    0    0  502    0  0.00000000000E+00  0.00000000000E+00  0.11362153215E+03  0.11362153215E+03  0.00000000000E+00 0. -1.
         -2   -1    0    0    0  501 -0.00000000000E+00 -0.00000000000E+00 -0.61481668399E+03  0.61481668399E+03  0.00000000000E+00 0.  1.
         23    2    1    2    0    0 -0.70966548105E+02 -0.11819666946E+03 -0.21981325634E+03  0.27405595318E+03  0.88216178734E+02 0.  0.
         23    2    1    2    0    0  0.36561653263E+02  0.22183640356E+02  0.46857310285E+02  0.11066264647E+03  0.90673840810E+02 0.  0.
        -11    1    4    4    0    0  0.23526801154E+02  0.57393329664E+02  0.35347835758E+02  0.71393095992E+02  0.00000000000E+00 0.  1.
         11    1    4    4    0    0  0.13034852109E+02 -0.35209689308E+02  0.11509474527E+02  0.39269550476E+02  0.00000000000E+00 0. -1.
        -13    1    3    3    0    0 -0.50625348434E+02 -0.87396293086E+01 -0.83727003940E+02  0.98231961262E+02  0.00000000000E+00 0.  1.
         13    1    3    3    0    0 -0.20341199671E+02 -0.10945704015E+03 -0.13608625240E+03  0.17582399192E+03  0.00000000000E+00 0. -1.
         21    1    1    2  502  501  0.34404894842E+02  0.96013029101E+02 -0.32823920579E+03  0.34371961650E+03  0.00000000000E+00 0.  1.
<scales pt_clust_5="13000.00000" pt_clust_6="13000.00000" pt_clust_7="13000.00000" pt_clust_8="13000.00000" pt_clust_9="109.52958"></scales>
<clustering>
<clus scale="   88.216">  7  8 -1 -1</clus>
<clus scale="   90.674">  5  6 -1 -1</clus>
<clus scale="  100.253">  1  5  2 -1</clus>
<clus scale="  109.530">  2  9  1 -1</clus>
<clus scale="  100.253">  1  5  2 -1</clus>
</clustering>
</event>
<event>
 9    1  0.2423659E-006  0.1859226E+03  0.7546771E-02  0.1194219E+00
          2   -1    0    0  502    0  0.00000000000E+00  0.00000000000E+00  0.16147372538E+04  0.16147372538E+04  0.00000000000E+00 0. -1.
         -2   -1    0    0    0  501 -0.00000000000E+00 -0.00000000000E+00 -0.95219605142E+02  0.95219605142E+02  0.00000000000E+00 0.  1.
         23    2    1    2    0    0  0.31543609882E+01 -0.21626870257E+02 -0.25189670222E+02  0.93735543421E+02  0.87602289377E+02 0.  0.
         23    2    1    2    0    0  0.34374151105E+02  0.17628421966E+03  0.29980750607E+03  0.36119030838E+03  0.91193145627E+02 0.  0.
        -11    1    3    3    0    0  0.19487863607E+02  0.26045635292E+02  0.78680587891E+01  0.33467271996E+02  0.00000000000E+00 0.  1.
         11    1    3    3    0    0 -0.16333502619E+02 -0.47672505549E+02 -0.33057729011E+02  0.60268271425E+02  0.00000000000E+00 0. -1.
        -11    1    4    4    0    0  0.63478374330E+02  0.14674333925E+03  0.24199357375E+03  0.29004137870E+03  0.00000000000E+00 0.  1.
         11    1    4    4    0    0 -0.29104223224E+02  0.29540880406E+02  0.57813932317E+02  0.71148929680E+02  0.00000000000E+00 0. -1.
         21    1    1    2  502  501 -0.37528512094E+02 -0.15465734940E+03  0.12448998128E+04  0.12550310071E+04  0.00000000000E+00 0. -1.
<scales pt_clust_5="13000.00000" pt_clust_6="13000.00000" pt_clust_7="13000.00000" pt_clust_8="13000.00000" pt_clust_9="162.02165"></scales>
<clustering>
<clus scale="   87.602">  5  6 -1 -1</clus>
<clus scale="   90.287">  2  5  1 -1</clus>
<clus scale="   91.193">  7  8 -1 -1</clus>
<clus scale="  162.022">  1  9  2 -1</clus>
<clus scale="  162.022">  1  5  2 -1</clus>
</clustering>
</event>
<event>
 9    1  0.2423659E-006  0.2246641E+03  0.7546771E-02  0.1130662E+00
          2   -1    0    0  502    0  0.00000000000E+00  0.00000000000E+00  0.51817524519E+03  0.51817524519E+03  0.00000000000E+00 0. -1.
         -2   -1    0    0    0  501 -0.00000000000E+00 -0.00000000000E+00 -0.23129787883E+03  0.23129787883E+03  0.00000000000E+00 0.  1.
         23    2    1    2    0    0 -0.15336772912E+03  0.14391396632E+03 -0.11946018009E+03  0.25740415844E+03  0.88052689446E+02 0.  0.
         23    2    1    2    0    0  0.14298871204E+03 -0.12113652340E+03  0.21592689057E+03  0.30002013383E+03  0.90927606162E+02 0.  0.
        -11    1    4    4    0    0  0.10012804150E+03 -0.71540300951E+02  0.73767195763E+02  0.14347556769E+03  0.00000000000E+00 0.  1.
         11    1    4    4    0    0  0.42860670545E+02 -0.49596222445E+02  0.14215969481E+03  0.15654456614E+03  0.00000000000E+00 0. -1.
        -13    1    3    3    0    0 -0.88813964273E+02  0.26649652885E+02 -0.63128728008E+02  0.11217557911E+03  0.00000000000E+00 0. -1.
         13    1    3    3    0    0 -0.64553764851E+02  0.11726431343E+03 -0.56331452082E+02  0.14522857933E+03  0.00000000000E+00 0.  1.
         21    1    1    2  502  501  0.10379017081E+02 -0.22777442923E+02  0.19041065588E+03  0.19204883174E+03  0.00000000000E+00 0.  1.
<scales pt_clust_5="13000.00000" pt_clust_6="13000.00000" pt_clust_7="13000.00000" pt_clust_8="13000.00000" pt_clust_9="25.03070"></scales>
<clustering>
<clus scale="   25.031">  1  9  2 -1</clus>
<clus scale="   88.053">  7  8 -1 -1</clus>
<clus scale="   90.928">  5  6 -1 -1</clus>
<clus scale="  223.516">  2  7  1 -1</clus>
<clus scale="   25.031">  1  5  2 -1</clus>
</clustering>
</event>
<event>
 9    1  0.2423659E-006  0.9345805E+02  0.7546771E-02  0.1294951E+00
         -2   -1    0    0    0  501 -0.00000000000E+00  0.00000000000E+00  0.18008887472E+03  0.18008887472E+03  0.00000000000E+00 0.  1.
          2   -1    0    0  502    0  0.00000000000E+00 -0.00000000000E+00 -0.40659301030E+03  0.40659301030E+03  0.00000000000E+00 0. -1.
         23    2    1    2    0    0 -0.33230912015E+02 -0.47435863987E+02  0.12914786400E+03  0.16751838474E+03  0.89603480641E+02 0.  0.
         23    2    1    2    0    0  0.14120326840E+02  0.18938488731E+02 -0.37031866859E+03  0.38184827494E+03  0.90078514558E+02 0.  0.
        -13    1    4    4    0    0 -0.23752272995E+02  0.42050303113E+02 -0.21190682126E+03  0.21734051477E+03  0.00000000000E+00 0.  1.
         13    1    4    4    0    0  0.37872599835E+02 -0.23111814382E+02 -0.15841184733E+03  0.16450776017E+03  0.00000000000E+00 0. -1.
        -13    1    3    3    0    0  0.16805530218E+02 -0.41328931823E+02  0.23419180722E+02  0.50388138259E+02  0.00000000000E+00 0. -1.
         13    1    3    3    0    0 -0.50036442232E+02 -0.61069321638E+01  0.10572868328E+03  0.11713024648E+03  0.00000000000E+00 0.  1.
         21    1    1    2  502  501  0.19110585175E+02  0.28497375257E+02  0.14666669004E+02  0.37315225337E+02  0.00000000000E+00 0.  1.
<scales pt_clust_5="13000.00000" pt_clust_6="13000.00000" pt_clust_7="13000.00000" pt_clust_8="13000.00000" pt_clust_9="34.31202"></scales>
<clustering>
<clus scale="   34.312">  1  9  2 -1</clus>
<clus scale="   89.603">  7  8 -1 -1</clus>
<clus scale="   90.079">  5  6 -1 -1</clus>
<clus scale="   93.000">  1  7  2 -1</clus>
<clus scale="   93.458">  2  5  1 -1</clus>
</clustering>
</event>
<event>
 9    1  0.2423659E-006  0.2154439E+03  0.7546771E-02  0.1158607E+00
         -2   -1    0    0    0  501 -0.00000000000E+00  0.00000000000E+00  0.11565914201E+03  0.11565914201E+03  0.00000000000E+00 0.  1.
          2   -1    0    0  502    0  0.00000000000E+00 -0.00000000000E+00 -0.67654881579E+03  0.67654881579E+03  0.00000000000E+00 0. -1.
         23    2    1    2    0    0 -0.40699016547E+02 -0.25109528797E+02 -0.12713833560E+03  0.18174756025E+03  0.12075231216E+03 0.  0.
         23    2    1    2    0    0  0.12428947007E+03 -0.15269380308E+03 -0.14383073891E+03  0.26023854982E+03  0.90959064896E+02 0.  0.
        -11    1    4    4    0    0  0.52063961214E+01 -0.68869225642E+02 -0.64027973708E+02  0.94178862906E+02  0.00000000000E+00 0. -1.
         11    1    4    4    0    0  0.11908307395E+03 -0.83824577442E+02 -0.79802765205E+02  0.16605968692E+03  0.00000000000E+00 0.  1.
        -13    1    3    3    0    0 -0.81035769563E+02 -0.20132586231E+02 -0.10882956381E+03  0.13717139256E+03  0.00000000000E+00 0. -1.
         13    1    3    3    0    0  0.40336753016E+02 -0.49769425655E+01 -0.18308771791E+02  0.44576167687E+02  0.00000000000E+00 0.  1.
         21    1    1    2  502  501 -0.83590453523E+02  0.17780333188E+03 -0.28992059926E+03  0.35022184773E+03  0.00000000000E+00 0. -1.
<scales pt_clust_5="13000.00000" pt_clust_6="13000.00000" pt_clust_7="13000.00000" pt_clust_8="13000.00000" pt_clust_9="195.30116"></scales>
<clustering>
<clus scale="   90.959">  5  6 -1 -1</clus>
<clus scale="  120.752">  7  8 -1 -1</clus>
<clus scale="  129.877">  1  7  2 -1</clus>
<clus scale="  195.301">  2  9  1 -1</clus>
<clus scale="  195.301">  2  5  1 -1</clus>
</clustering>
</event>
<event>
 9    1  0.2423659E-006  0.1063642E+03  0.7546771E-02  0.1272117E+00
         -1   -1    0    0    0  501 -0.00000000000E+00  0.00000000000E+00  0.80276074065E+02  0.80276074065E+02  0.00000000000E+00 0.  1.
          1   -1    0    0  502    0  0.00000000000E+00 -0.00000000000E+00 -0.17490904026E+03  0.17490904026E+03  0.00000000000E+00 0. -1.
         23    2    1    2    0    0 -0.24337267873E+02  0.32704008994E+02 -0.17011409994E+02  0.10856748780E+03  0.99174878496E+02 0.  0.
         23    2    1    2    0    0 -0.89116478248E+00 -0.40316196084E+02 -0.58977263755E+02  0.11433715492E+03  0.89266329111E+02 0.  0.
        -11    1    4    4    0    0 -0.41111268585E+02 -0.28515287155E+01 -0.14691829385E+02  0.43750628240E+02  0.00000000000E+00 0. -1.
         11    1    4    4    0    0  0.40220103803E+02 -0.37464667369E+02 -0.44285434370E+02  0.70586526677E+02  0.00000000000E+00 0.  1.
        -11    1    3    3    0    0 -0.28041657921E+02  0.63397101526E+02 -0.29351670288E+02  0.75279795494E+02  0.00000000000E+00 0.  1.
         11    1    3    3    0    0  0.37043900476E+01 -0.30693092532E+02  0.12340260293E+02  0.33287692304E+02  0.00000000000E+00 0. -1.
         21    1    1    2  502  501  0.25228432655E+02  0.76121870896E+01 -0.18644292442E+02  0.32280471607E+02  0.00000000000E+00 0.  1.
<scales pt_clust_5="13000.00000" pt_clust_6="13000.00000" pt_clust_7="13000.00000" pt_clust_8="13000.00000" pt_clust_9="26.35183"></scales>
<clustering>
<clus scale="   26.352">  2  9  1 -1</clus>
<clus scale="   89.266">  5  6 -1 -1</clus>
<clus scale="   97.191">  2  5  1 -1</clus>
<clus scale="   99.175">  7  8 -1 -1</clus>
<clus scale="   26.352">  2  5  1 -1</clus>
</clustering>
</event>
<event>
 9    1  0.2423659E-006  0.1108850E+03  0.7546771E-02  0.1261613E+00
          1   -1    0    0  502    0  0.00000000000E+00  0.00000000000E+00  0.17094941547E+03  0.17094941547E+03  0.00000000000E+00 0. -1.
         -1   -1    0    0    0  501 -0.00000000000E+00 -0.00000000000E+00 -0.20739312076E+03  0.20739312076E+03  0.00000000000E+00 0.  1.
         23    2    1    2    0    0 -0.21385387807E+02  0.12216978255E+02 -0.13061890479E+03  0.15844785678E+03  0.86242887589E+02 0.  0.
         23    2    1    2    0    0  0.38644351200E+02 -0.53692594972E+02  0.12195803221E+03  0.16707437661E+03  0.93079563080E+02 0.  0.
        -13    1    3    3    0    0  0.96321460302E+00  0.28600380945E+02 -0.12737274922E+03  0.13054779514E+03  0.00000000000E+00 0.  1.
         13    1    3    3    0    0 -0.22348602410E+02 -0.16383402691E+02 -0.32461555723E+01  0.27900061638E+02  0.00000000000E+00 0. -1.
        -13    1    4    4    0    0 -0.38023177162E+00 -0.59195981162E+02  0.11159491189E+03  0.12632392141E+03  0.00000000000E+00 0. -1.
         13    1    4    4    0    0  0.39024582972E+02  0.55033861901E+01  0.10363120324E+02  0.40750455194E+02  0.00000000000E+00 0.  1.
         21    1    1    2  502  501 -0.17258963393E+02  0.41475616717E+02 -0.27782832713E+02  0.52820302849E+02  0.00000000000E+00 0.  1.
<scales pt_clust_5="13000.00000" pt_clust_6="13000.00000" pt_clust_7="13000.00000" pt_clust_8="13000.00000" pt_clust_9="44.92325"></scales>
<clustering>
<clus scale="   44.923">  2  9  1 -1</clus>
<clus scale="   86.243">  5  6 -1 -1</clus>
<clus scale="   93.080">  7  8 -1 -1</clus>
<clus scale="  105.212">  2  5  1 -1</clus>
<clus scale="  110.885">  1  5  2 -1</clus>
</clustering>
</event>
<event>
 9    1  0.2423659E-006  0.1312549E+03  0.7546771E-02  0.1228430E+00
          1   -1    0    0  502    0  0.00000000000E+00  0.00000000000E+00  0.80892228940E+03  0.80892228940E+03  0.00000000000E+00 0. -1.
         -1   -1    0    0    0  501 -0.00000000000E+00 -0.00000000000E+00 -0.65294684413E+02  0.65294684413E+02  0.00000000000E+00 0.  1.
         23    2    1    2    0    0 -0.10979614558E+03 -0.18966326929E+02  0.12702690684E+03  0.19308734472E+03  0.93445023889E+02 0.  0.
         23    2    1    2    0    0  0.19757040933E+01  0.93816821285E+02  0.18236782353E+03  0.22749317387E+03  0.98435876266E+02 0.  0.
        -11    1    4    4    0    0  0.36506458756E+02  0.88735074158E+02  0.15825558715E+03  0.18507151531E+03  0.00000000000E+00 0. -1.
         11    1    4    4    0    0 -0.34530754662E+02  0.50817471265E+01  0.24112236379E+02  0.42421658556E+02  0.00000000000E+00 0.  1.
        -13    1    3    3    0    0 -0.41264451264E+02  0.33953033689E+02  0.74944018700E+02  0.92044388062E+02  0.00000000000E+00 0. -1.
         13    1    3    3    0    0 -0.68531694314E+02 -0.52919360618E+02  0.52082888143E+02  0.10104295666E+03  0.00000000000E+00 0.  1.
         21    1    1    2  502  501  0.10782044148E+03 -0.74850494356E+02  0.43423287462E+03  0.45363645523E+03  0.00000000000E+00 0. -1.
<scales pt_clust_5="13000.00000" pt_clust_6="13000.00000" pt_clust_7="13000.00000" pt_clust_8="13000.00000" pt_clust_9="131.25488"></scales>
<clustering>
<clus scale="   93.445">  7  8 -1 -1</clus>
<clus scale="   98.436">  5  6 -1 -1</clus>
<clus scale="  131.255">  1  9  2 -1</clus>
<clus scale="  123.783">  2  7  1 -1</clus>
<clus scale="  131.255">  1  5  2 -1</clus>
</clustering>
</event>
<event>
 9    1  0.2423659E-006  0.1229743E+03  0.7546771E-02  0.1243126E+00
          1   -1    0    0  502    0  0.00000000000E+00  0.00000000000E+00  0.43586149027E+03  0.43586149027E+03  0.00000000000E+00 0. -1.
         -1   -1    0    0    0  501 -0.00000000000E+00 -0.00000000000E+00 -0.39976146839E+03  0.39976146839E+03  0.00000000000E+00 0.  1.
         23    2    1    2    0    0 -0.40330192475E+02  0.10659116542E+03 -0.15383252911E+03  0.21171586908E+03  0.90393369430E+02 0.  0.
         23    2    1    2    0    0  0.44903742915E+02 -0.44447023426E+02  0.39300696083E+03  0.41148762796E+03  0.10428668508E+03 0.  0.
        -13    1    3    3    0    0 -0.30923675171E+02 -0.21985583554E+00 -0.66816310946E+02  0.73625684589E+02  0.00000000000E+00 0.  1.
         13    1    3    3    0    0 -0.94065173042E+01  0.10681102125E+03 -0.87016218163E+02  0.13809018449E+03  0.00000000000E+00 0. -1.
        -13    1    4    4    0    0  0.45981464651E+02  0.15110758836E+02  0.85363209549E+02  0.98130054869E+02  0.00000000000E+00 0.  1.
         13    1    4    4    0    0 -0.10777217359E+01 -0.59557782262E+02  0.30764375128E+03  0.31335757309E+03  0.00000000000E+00 0. -1.
         21    1    1    2  502  501 -0.45735504392E+01 -0.62144141990E+02 -0.20307440983E+03  0.21241946162E+03  0.00000000000E+00 0.  1.
<scales pt_clust_5="13000.00000" pt_clust_6="13000.00000" pt_clust_7="13000.00000" pt_clust_8="13000.00000" pt_clust_9="62.31221"></scales>
<clustering>
<clus scale="   62.312">  2  9  1 -1</clus>
<clus scale="   90.393">  5  6 -1 -1</clus>
<clus scale="  104.287">  7  8 -1 -1</clus>
<clus scale="  111.436">  2  5  1 -1</clus>
<clus scale="  122.974">  1  5  2 -1</clus>
</clustering>
</event>
<event>
 9    1  0.2423659E-006  0.9599026E+02  0.7546771E-02  0.1289259E+00
         -2   -1    0    0    0  501 -0.00000000000E+00  0.00000000000E+00  0.41797175733E+02  0.41797175733E+02  0.00000000000E+00 0.  1.
          2   -1    0    0  502    0  0.00000000000E+00 -0.00000000000E+00 -0.46869519517E+03  0.46869519517E+03  0.00000000000E+00 0. -1.
         23    2    1    2    0    0  0.19918053087E+02  0.87369677525E+01 -0.91812985838E+02  0.13195484882E+03  0.92246378321E+02 0.  0.
         23    2    1    2    0    0  0.78889058006E+01 -0.46060580374E+02 -0.11823711417E+03  0.15675091478E+03  0.91689815230E+02 0.  0.
        -11    1    4    4    0    0 -0.29015521241E+02 -0.50201120924E+02 -0.40890580118E+02  0.70951339362E+02  0.00000000000E+00 0.  1.
         11    1    4    4    0    0  0.36904427042E+02  0.41405405502E+01 -0.77346534055E+02  0.85799575417E+02  0.00000000000E+00 0. -1.
        -13    1    3    3    0    0  0.26120681714E+02 -0.27787206559E+02 -0.86493215317E+02  0.94527748082E+02  0.00000000000E+00 0. -1.
         13    1    3    3    0    0 -0.62026286270E+01  0.36524174311E+02 -0.53197705210E+01  0.37427100734E+02  0.00000000000E+00 0.  1.
         21    1    1    2  502  501 -0.27806958888E+02  0.37323612621E+02 -0.21684791942E+03  0.22178660730E+03  0.00000000000E+00 0. -1.
<scales pt_clust_5="13000.00000" pt_clust_6="13000.00000" pt_clust_7="13000.00000" pt_clust_8="13000.00000" pt_clust_9="46.54330"></scales>
<clustering>
<clus scale="   46.543">  2  9  1 -1</clus>
<clus scale="   91.690">  5  6 -1 -1</clus>
<clus scale="   92.246">  7  8 -1 -1</clus>
<clus scale="   95.456">  2  5  1 -1</clus>
<clus scale="   46.543">  2  5  1 -1</clus>
</clustering>
</event>
<event>
 9    1  0.2423659E-006  0.9691334E+02  0.7546771E-02  0.1288329E+00
         -1   -1    0    0    0  501 -0.00000000000E+00  0.00000000000E+00  0.35242635729E+02  0.35242635729E+02  0.00000000000E+00 0.  1.
          1   -1    0    0  502    0  0.00000000000E+00 -0.00000000000E+00 -0.52267016703E+03  0.52267016703E+03  0.00000000000E+00 0. -1.
         23    2    1    2    0    0  0.28401652542E+01  0.26020259403E+02 -0.72006913287E+02  0.11966576022E+03  0.91922674945E+02 0.  0.
         23    2    1    2    0    0 -0.36144202703E+02 -0.38680720286E+02 -0.31893329620E+03  0.33539156407E+03  0.89254984821E+02 0.  0.
        -11    1    3    3    0    0  0.14176126694E+01 -0.20696079223E+02 -0.69863882649E+02  0.72878662307E+02  0.00000000000E+00 0. -1.
         11    1    3    3    0    0  0.14225525848E+01  0.46716338626E+02 -0.21430306382E+01  0.46787097910E+02  0.00000000000E+00 0.  1.
        -13    1    4    4    0    0 -0.61174703911E+02 -0.58543031019E+01 -0.21337666041E+03  0.22205003146E+03  0.00000000000E+00 0. -1.
         13    1    4    4    0    0  0.25030501208E+02 -0.32826417184E+02 -0.10555663579E+03  0.11334153262E+03  0.00000000000E+00 0.  1.
         21    1    1    2  502  501  0.33304037449E+02  0.12660460883E+02 -0.96487321819E+02  0.10285547847E+03  0.00000000000E+00 0.  1.
<scales pt_clust_5="13000.00000" pt_clust_6="13000.00000" pt_clust_7="13000.00000" pt_clust_8="13000.00000" pt_clust_9="35.62929"></scales>
<clustering>
<clus scale="   35.629">  2  9  1 -1</clus>
<clus scale="   89.255">  7  8 -1 -1</clus>
<clus scale="   91.923">  5  6 -1 -1</clus>
<clus scale="   94.387">  2  7  1 -1</clus>
<clus scale="   35.629">  2  5  1 -1</clus>
</clustering>
</event>
<event>
 9    1  0.2423659E-006  0.1033795E+03  0.7546771E-02  0.1273793E+00
          4   -1    0    0  502    0  0.00000000000E+00  0.00000000000E+00  0.34017374712E+03  0.34017374712E+03  0.00000000000E+00 0. -1.
         -4   -1    0    0    0  501 -0.00000000000E+00 -0.00000000000E+00 -0.62140702407E+02  0.62140702407E+02  0.00000000000E+00 0.  1.
         23    2    1    2    0    0  0.86576114488E+01 -0.49213141419E+02  0.91698245717E+02  0.13866133981E+03  0.91222318356E+02 0.  0.
         23    2    1    2    0    0  0.58643203828E+02  0.30025467310E+02  0.90759122823E+02  0.14519519968E+03  0.92216449681E+02 0.  0.
        -13    1    3    3    0    0 -0.13324868141E+02 -0.66584796927E+02  0.86820515309E+02  0.11022199949E+03  0.00000000000E+00 0.  1.
         13    1    3    3    0    0  0.21982479590E+02  0.17371655509E+02  0.48777304084E+01  0.28439340322E+02  0.00000000000E+00 0. -1.
        -13    1    4    4    0    0  0.27494226935E+02  0.15835591453E+02 -0.14225472302E+02  0.34771576519E+02  0.00000000000E+00 0.  1.
         13    1    4    4    0    0  0.31148976893E+02  0.14189875857E+02  0.10498459512E+03  0.11042362316E+03  0.00000000000E+00 0. -1.
         21    1    1    2  502  501 -0.67300815277E+02  0.19187674109E+02  0.95575676176E+02  0.11845791004E+03  0.00000000000E+00 0.  1.
<scales pt_clust_5="13000.00000" pt_clust_6="13000.00000" pt_clust_7="13000.00000" pt_clust_8="13000.00000" pt_clust_9="69.98262"></scales>
<clustering>
<clus scale="   69.983">  1  9  2 -1</clus>
<clus scale="   91.222">  5  6 -1 -1</clus>
<clus scale="   92.216">  7  8 -1 -1</clus>
<clus scale="  102.494">  2  5  1 -1</clus>
<clus scale="   69.983">  1  5  2 -1</clus>
</clustering>
</event>
<event>
 9    1  0.2423659E-006  0.1011862E+03  0.7546771E-02  0.1278374E+00
         -1   -1    0    0    0  501 -0.00000000000E+00  0.00000000000E+00  0.25387699608E+02  0.25387699608E+02  0.00000000000E+00 0.  1.
          1   -1    0    0  502    0  0.00000000000E+00 -0.00000000000E+00 -0.73150200344E+03  0.73150200344E+03  0.00000000000E+00 0. -1.
         23    2    1    2    0    0  0.37325710247E+02 -0.27344622082E+02 -0.31507177745E+03  0.33199258848E+03  0.93850502700E+02 0.  0.
         23    2    1    2    0    0 -0.14960816979E+01  0.32589328556E+02 -0.36918345370E+03  0.38259949895E+03  0.94982374776E+02 0.  0.
        -11    1    3    3    0    0 -0.27320531069E+02  0.10187555115E+02 -0.71787527341E+02  0.77483203205E+02  0.00000000000E+00 0. -1.
         11    1    3    3    0    0  0.64646241316E+02 -0.37532177197E+02 -0.24328425011E+03  0.25450938528E+03  0.00000000000E+00 0.  1.
        -13    1    4    4    0    0  0.46416817326E+02  0.17783451393E+02 -0.16336822919E+03  0.17076284837E+03  0.00000000000E+00 0.  1.
         13    1    4    4    0    0 -0.47912899024E+02  0.14805877163E+02 -0.20581522451E+03  0.21183665058E+03  0.00000000000E+00 0. -1.
         21    1    1    2  502  501 -0.35829628549E+02 -0.52447064733E+01 -0.21859072678E+02  0.42297615610E+02  0.00000000000E+00 0.  1.
<scales pt_clust_5="13000.00000" pt_clust_6="13000.00000" pt_clust_7="13000.00000" pt_clust_8="13000.00000" pt_clust_9="36.21145"></scales>
<clustering>
<clus scale="   36.211">  1  9  2 -1</clus>
<clus scale="   93.851">  5  6 -1 -1</clus>
<clus scale="   94.982">  7  8 -1 -1</clus>
<clus scale="  100.124">  1  5  2 -1</clus>
<clus scale="  101.186">  2  5  1 -1</clus>
</clustering>
</event>
<event>
 9    1  0.2423659E-006  0.9800377E+02  0.7546771E-02  0.1294148E+00
         -2   -1    0    0    0  501 -0.00000000000E+00  0.00000000000E+00  0.59673398982E+02  0.59673398982E+02  0.00000000000E+00 0.  1.
          2   -1    0    0  502    0  0.00000000000E+00 -0.00000000000E+00 -0.52976143575E+03  0.52976143575E+03  0.00000000000E+00 0. -1.
         23    2    1    2    0    0  0.11087140751E+02 -0.12134454593E+02 -0.16409691412E+03  0.18833629219E+03  0.90953790765E+02 0.  0.
         23    2    1    2    0    0  0.60440503058E+01  0.47704764167E+02 -0.33868268961E+03  0.34983975617E+03  0.73277661595E+02 0.  0.
        -11    1    4    4    0    0 -0.26298277640E+02  0.25699226920E+01 -0.58253943292E+02  0.63966599242E+02  0.00000000000E+00 0.  1.
         11    1    4    4    0    0  0.32342327946E+02  0.45134841475E+02 -0.28042874632E+03  0.28587315693E+03  0.00000000000E+00 0. -1.
        -13    1    3    3    0    0 -0.33008413689E+02 -0.25436804309E+02 -0.48750736500E+02  0.64134395584E+02  0.00000000000E+00 0.  1.
         13    1    3    3    0    0  0.44095554440E+02  0.13302349715E+02 -0.11534617762E+03  0.12420189661E+03  0.00000000000E+00 0. -1.
         21    1    1    2  502  501 -0.17131191057E+02 -0.35570309574E+02  0.32691566957E+02  0.51258786372E+02  0.00000000000E+00 0.  1.
<scales pt_clust_5="13000.00000" pt_clust_6="13000.00000" pt_clust_7="13000.00000" pt_clust_8="13000.00000" pt_clust_9="39.48069"></scales>
<clustering>
<clus scale="   39.481">  1  9  2 -1</clus>
<clus scale="   73.278">  5  6 -1 -1</clus>
<clus scale="   81.864">  2  5  1 -1</clus>
<clus scale="   90.954">  7  8 -1 -1</clus>
<clus scale="   81.864">  2  5  1 -1</clus>
</clustering>
</event>
<event>
 9    1  0.2423659E-006  0.1495035E+03  0.7546771E-02  0.1214551E+00
          2   -1    0    0  502    0  0.00000000000E+00  0.00000000000E+00  0.17142721852E+03  0.17142721852E+03  0.00000000000E+00 0. -1.
         -2   -1    0    0    0  501 -0.00000000000E+00 -0.00000000000E+00 -0.34801467804E+03  0.34801467804E+03  0.00000000000E+00 0.  1.
         23    2    1    2    0    0  0.62622109850E+02 -0.20302987215E+02 -0.21278483000E+03  0.24047060718E+03  0.90636577108E+02 0.  0.
         23    2    1    2    0    0 -0.10135800044E+03 -0.86399712418E+02  0.37120717323E+02  0.16545130039E+03  0.90872606354E+02 0.  0.
        -13    1    4    4    0    0 -0.29433835505E+02 -0.22421606123E+02  0.56229473117E+02  0.67311460694E+02  0.00000000000E+00 0. -1.
         13    1    4    4    0    0 -0.71924164940E+02 -0.63978106295E+02 -0.19108755794E+02  0.98139839695E+02  0.00000000000E+00 0.  1.
        -13    1    3    3    0    0  0.55629187237E+02  0.28366142018E+02 -0.12913764283E+03  0.14344258531E+03  0.00000000000E+00 0. -1.
         13    1    3    3    0    0  0.69929226132E+01 -0.48669129233E+02 -0.83647187167E+02  0.97028021869E+02  0.00000000000E+00 0.  1.
         21    1    1    2  502  501  0.38735890595E+02  0.10670269963E+03 -0.92334684653E+00  0.11351998898E+03  0.00000000000E+00 0. -1.
<scales pt_clust_5="13000.00000" pt_clust_6="13000.00000" pt_clust_7="13000.00000" pt_clust_8="13000.00000" pt_clust_9="118.71592"></scales>
<clustering>
<clus scale="   90.637">  7  8 -1 -1</clus>
<clus scale="   90.873">  5  6 -1 -1</clus>
<clus scale="  112.021">  2  7  1 -1</clus>
<clus scale="  118.716">  2  9  1 -1</clus>
<clus scale="  149.504">  1  5  2 -1</clus>
</clustering>
</event>
<event>
 9    1  0.2423659E-006  0.9563567E+02  0.7546771E-02  0.1303940E+00
         -1   -1    0    0    0  501 -0.00000000000E+00  0.00000000000E+00  0.72281609414E+02  0.72281609414E+02  0.00000000000E+00 0.  1.
          1   -1    0    0  502    0  0.00000000000E+00 -0.00000000000E+00 -0.16441623117E+03  0.16441623117E+03  0.00000000000E+00 0. -1.
         23    2    1    2    0    0 -0.20617781185E+02  0.41836320885E+01 -0.12385558407E+02  0.70934896913E+02  0.66601515483E+02 0.  0.
         23    2    1    2    0    0  0.39537075413E+02 -0.33210660603E+02 -0.36478433932E+02  0.11032960128E+03  0.90420221560E+02 0.  0.
        -11    1    3    3    0    0 -0.43216015569E+02 -0.72202352018E+01 -0.29264971651E+01  0.43912642640E+02  0.00000000000E+00 0.  1.
         11    1    3    3    0    0  0.22598234383E+02  0.11403867290E+02 -0.94590612420E+01  0.27022254273E+02  0.00000000000E+00 0. -1.
        -13    1    4    4    0    0  0.31518401080E+02 -0.11499276991E+02 -0.65270288635E+02  0.73388374805E+02  0.00000000000E+00 0. -1.
         13    1    4    4    0    0  0.80186743324E+01 -0.21711383612E+02  0.28791854703E+02  0.36941226477E+02  0.00000000000E+00 0.  1.
         21    1    1    2  502  501 -0.18919294228E+02  0.29027028514E+02 -0.43270629419E+02  0.55433342392E+02  0.00000000000E+00 0.  1.
<scales pt_clust_5="13000.00000" pt_clust_6="13000.00000" pt_clust_7="13000.00000" pt_clust_8="13000.00000" pt_clust_9="34.64835"></scales>
<clustering>
<clus scale="   34.648">  2  9  1 -1</clus>
<clus scale="   66.602">  5  6 -1 -1</clus>
<clus scale="   73.526">  1  5  2 -1</clus>
<clus scale="   90.420">  7  8 -1 -1</clus>
<clus scale="   34.648">  2  5  1 -1</clus>
</clustering>
</event>
<event>
 9    1  0.2423659E-006  0.1054374E+03  0.7546771E-02  0.1270284E+00
          1   -1    0    0  502    0  0.00000000000E+00  0.00000000000E+00  0.41049309761E+03  0.41049309761E+03  0.00000000000E+00 0. -1.
         -1   -1    0    0    0  501 -0.00000000000E+00 -0.00000000000E+00 -0.11747451984E+03  0.11747451984E+03  0.00000000000E+00 0.  1.
         23    2    1    2    0    0 -0.48064375792E+02  0.40814723844E+01 -0.70596151948E+02  0.12893810171E+03  0.96511008514E+02 0.  0.
         23    2    1    2    0    0 -0.11318202064E+02  0.15568881603E+02  0.26831040698E+03  0.28503240659E+03  0.94247050570E+02 0.  0.
        -11    1    3    3    0    0  0.50009998357E+01  0.25815274551E+02  0.11580107272E+02  0.28732164623E+02  0.00000000000E+00 0.  1.
         11    1    3    3    0    0 -0.53065375628E+02 -0.21733802167E+02 -0.82176259220E+02  0.10020593708E+03  0.00000000000E+00 0. -1.
        -13    1    4    4    0    0 -0.27501043579E+02  0.50569152218E+02  0.15535943808E+03  0.16568072174E+03  0.00000000000E+00 0. -1.
         13    1    4    4    0    0  0.16182841515E+02 -0.35000270616E+02  0.11295096890E+03  0.11935168485E+03  0.00000000000E+00 0.  1.
         21    1    1    2  502  501  0.59382577856E+02 -0.19650353987E+02  0.95304322734E+02  0.11399710916E+03  0.00000000000E+00 0.  1.
<scales pt_clust_5="13000.00000" pt_clust_6="13000.00000" pt_clust_7="13000.00000" pt_clust_8="13000.00000" pt_clust_9="62.54940"></scales>
<clustering>
<clus scale="   62.549">  1  9  2 -1</clus>
<clus scale="   94.247">  7  8 -1 -1</clus>
<clus scale="   96.511">  5  6 -1 -1</clus>
<clus scale="  103.369">  1  7  2 -1</clus>
<clus scale="   62.549">  1  5  2 -1</clus>
</clustering>
</event>
<event>
 9    1  0.2423659E-006  0.1166827E+03  0.7546771E-02  0.1248771E+00
         -1   -1    0    0    0  501 -0.00000000000E+00  0.00000000000E+00  0.35231733922E+03  0.35231733922E+03  0.00000000000E+00 0.  1.
          1   -1    0    0  502    0  0.00000000000E+00 -0.00000000000E+00 -0.11588278321E+03  0.11588278321E+03  0.00000000000E+00 0. -1.
         23    2    1    2    0    0  0.68232494651E+02  0.30445213766E+02  0.28451361765E+03  0.30858811884E+03  0.93252582221E+02 0.  0.
         23    2    1    2    0    0 -0.45077472657E+02  0.75198561485E+01 -0.50159907114E+02  0.11509423753E+03  0.92963113401E+02 0.  0.
        -11    1    4    4    0    0  0.27582504642E+02 -0.91044877909E+01 -0.13551507950E+02  0.32051983214E+02  0.00000000000E+00 0.  1.
         11    1    4    4    0    0 -0.72659977299E+02  0.16624343939E+02 -0.36608399163E+02  0.83042254315E+02  0.00000000000E+00 0. -1.
        -13    1    3    3    0    0  0.88979880548E+02  0.31889451493E+02  0.25877262775E+03  0.27549524339E+03  0.00000000000E+00 0.  1.
         13    1    3    3    0    0 -0.20747385897E+02 -0.14442377279E+01  0.25740989905E+02  0.33092875449E+02  0.00000000000E+00 0. -1.
         21    1    1    2  502  501 -0.23155021995E+02 -0.37965069914E+02  0.20808454645E+01  0.44517766060E+02  0.00000000000E+00 0.  1.
<scales pt_clust_5="13000.00000" pt_clust_6="13000.00000" pt_clust_7="13000.00000" pt_clust_8="13000.00000" pt_clust_9="44.46911"></scales>
<clustering>
<clus scale="   44.469">  2  9  1 -1</clus>
<clus scale="   92.963">  5  6 -1 -1</clus>
<clus scale="   93.253">  7  8 -1 -1</clus>
<clus scale="  116.451">  2  5  1 -1</clus>
<clus scale="   44.469">  2  5  1 -1</clus>
</clustering>
</event>
<event>
 9    1  0.2423659E-006  0.2699430E+03  0.7546771E-02  0.1127185E+00
         -2   -1    0    0    0  501 -0.00000000000E+00  0.00000000000E+00  0.34439900883E+03  0.34439900883E+03  0.00000000000E+00 0.  1.
          2   -1    0    0  502    0  0.00000000000E+00 -0.00000000000E+00 -0.69087285735E+03  0.69087285735E+03  0.00000000000E+00 0. -1.
         23    2    1    2    0    0  0.67912161739E+02 -0.23123831859E+03  0.17806578149E+03  0.31592036843E+03  0.10007514654E+03 0.  0.
         23    2    1    2    0    0 -0.52773084134E+02 -0.98850290859E+02 -0.68505903528E+02  0.15618683138E+03  0.84527445642E+02 0.  0.
        -11    1    4    4    0    0 -0.67149360990E+01 -0.80525468679E+02 -0.69537676476E+02  0.10660642533E+03  0.00000000000E+00 0. -1.
         11    1    4    4    0    0 -0.46058148035E+02 -0.18324822180E+02  0.10317729487E+01  0.49580406047E+02  0.00000000000E+00 0.  1.
        -13    1    3    3    0    0 -0.23666786856E+02 -0.86031630658E+02  0.57814745769E+02  0.10632075574E+03  0.00000000000E+00 0.  1.
         13    1    3    3    0    0  0.91578948594E+02 -0.14520668793E+03  0.12025103572E+03  0.20959961269E+03  0.00000000000E+00 0. -1.
         21    1    1    2  502  501 -0.15139077605E+02  0.33008860945E+03 -0.45603372648E+03  0.56316466637E+03  0.00000000000E+00 0.  1.
<scales pt_clust_5="13000.00000" pt_clust_6="13000.00000" pt_clust_7="13000.00000" pt_clust_8="13000.00000" pt_clust_9="250.70738"></scales>
<clustering>
<clus scale="   84.527">  5  6 -1 -1</clus>
<clus scale="  100.075">  7  8 -1 -1</clus>
<clus scale="  140.361">  2  5  1 -1</clus>
<clus scale="  250.707">  2  9  1 -1</clus>
<clus scale="  140.361">  2  5  1 -1</clus>
</clustering>
</event>
<event>
 9    1  0.2423659E-006  0.9550406E+02  0.7546771E-02  0.1291188E+00
          3   -1    0    0  502    0  0.00000000000E+00  0.00000000000E+00  0.32178709755E+02  0.32178709755E+02  0.00000000000E+00 0. -1.
         -3   -1    0    0    0  501 -0.00000000000E+00 -0.00000000000E+00 -0.58023534756E+03  0.58023534756E+03  0.00000000000E+00 0.  1.
         23    2    1    2    0    0 -0.17686609772E+02  0.41502157354E+02 -0.30100002073E+03  0.31786222851E+03  0.91652270053E+02 0.  0.
         23    2    1    2    0    0  0.25473992110E+02 -0.35546877360E+01 -0.79188953247E+02  0.12227238623E+03  0.89543766052E+02 0.  0.
        -11    1    3    3    0    0 -0.41795032894E+02  0.46166290255E+02 -0.27554173620E+03  0.28249141494E+03  0.00000000000E+00 0.  1.
         11    1    3    3    0    0  0.24108423123E+02 -0.46641329007E+01 -0.25458284530E+02  0.35370813567E+02  0.00000000000E+00 0. -1.
        -11    1    4    4    0    0 -0.30415063421E+02  0.24761453461E+01 -0.50888976241E+02  0.59337132401E+02  0.00000000000E+00 0.  1.
         11    1    4    4    0    0  0.55889055531E+02 -0.60308330821E+01 -0.28299977005E+02  0.62935253828E+02  0.00000000000E+00 0. -1.
         21    1    1    2  502  501 -0.77873823387E+01 -0.37947469618E+02 -0.16786766383E+03  0.17227944258E+03  0.00000000000E+00 0.  1.
<scales pt_clust_5="13000.00000" pt_clust_6="13000.00000" pt_clust_7="13000.00000" pt_clust_8="13000.00000" pt_clust_9="38.73827"></scales>
<clustering>
<clus scale="   38.738">  2  9  1 -1</clus>
<clus scale="   89.544">  7  8 -1 -1</clus>
<clus scale="   91.652">  5  6 -1 -1</clus>
<clus scale="   93.482">  1  7  2 -1</clus>
<clus scale="   93.482">  1  5  2 -1</clus>
</clustering>
</event>
<event>
 9    1  0.2423659E-006  0.1848140E+03  0.7546771E-02  0.1190517E+00
         -2   -1    0    0    0  501 -0.00000000000E+00  0.00000000000E+00  0.10186359215E+03  0.10186359215E+03  0.00000000000E+00 0.  1.
          2   -1    0    0  502    0  0.00000000000E+00 -0.00000000000E+00 -0.53846883668E+03  0.53846883668E+03  0.00000000000E+00 0. -1.
         23    2    1    2    0    0 -0.11127933251E+03 -0.10095978431E+03 -0.18130666589E+03  0.25240787521E+03  0.90893676759E+02 0.  0.
         23    2    1    2    0    0  0.16091476205E+02 -0.38989178810E+02 -0.17309291540E+03  0.19976448523E+03  0.90363712461E+02 0.  0.
        -11    1    3    3    0    0 -0.10525887404E+03 -0.61859642039E+02 -0.17339156099E+03  0.21206291354E+03  0.00000000000E+00 0. -1.
         11    1    3    3    0    0 -0.60204584712E+01 -0.39100142275E+02 -0.79151049082E+01  0.40344961666E+02  0.00000000000E+00 0.  1.
        -13    1    4    4    0    0 -0.19718973651E+02 -0.30513528707E+02 -0.18341898479E+02  0.40698139955E+02  0.00000000000E+00 0. -1.
         13    1    4    4    0    0  0.35810449857E+02 -0.84756501036E+01 -0.15475101692E+03  0.15906634528E+03  0.00000000000E+00 0.  1.
         21    1    1    2  502  501  0.95187856306E+02  0.13994896312E+03 -0.82205663246E+02  0.18816006839E+03  0.00000000000E+00 0.  1.
<scales pt_clust_5="13000.00000" pt_clust_6="13000.00000" pt_clust_7="13000.00000" pt_clust_8="13000.00000" pt_clust_9="160.91785"></scales>
<clustering>
<clus scale="   90.364">  7  8 -1 -1</clus>
<clus scale="   90.894">  5  6 -1 -1</clus>
<clus scale="   99.723">  2  7  1 -1</clus>
<clus scale="  160.918">  1  9  2 -1</clus>
<clus scale="   99.723">  2  5  1 -1</clus>
</clustering>
</event>
<event>
 9    1  0.2423659E-006  0.1231413E+03  0.7546771E-02  0.1253202E+00
         -2   -1    0    0    0  501 -0.00000000000E+00  0.00000000000E+00  0.18623629278E+02  0.18623629278E+02  0.00000000000E+00 0.  1.
          2   -1    0    0  502    0  0.00000000000E+00 -0.00000000000E+00 -0.78825809866E+03  0.78825809866E+03  0.00000000000E+00 0. -1.
         23    2    1    2    0    0  0.56825442298E+01  0.49473021632E+01 -0.28284264179E+03  0.29689306561E+03  0.89937563251E+02 0.  0.
         23    2    1    2    0    0 -0.16973435819E+02  0.16503874493E+02 -0.43888391042E+03  0.45629689629E+03  0.12258586926E+03 0.  0.
        -11    1    3    3    0    0  0.40289891185E+02  0.24083021197E+02 -0.11021934428E+03  0.11979804295E+03  0.00000000000E+00 0.  1.
         11    1    3    3    0    0 -0.34607346955E+02 -0.19135719034E+02 -0.17262329751E+03  0.17709502265E+03  0.00000000000E+00 0. -1.
        -13    1    4    4    0    0 -0.56593182988E+02  0.47093052264E+02 -0.29111306331E+03  0.30027880305E+03  0.00000000000E+00 0. -1.
         13    1    4    4    0    0  0.39619747169E+02 -0.30589177772E+02 -0.14777084711E+03  0.15601809324E+03  0.00000000000E+00 0.  1.
         21    1    1    2  502  501  0.11290891590E+02 -0.21451176656E+02 -0.47907917181E+02  0.53691766049E+02  0.00000000000E+00 0. -1.
<scales pt_clust_5="13000.00000" pt_clust_6="13000.00000" pt_clust_7="13000.00000" pt_clust_8="13000.00000" pt_clust_9="24.24123"></scales>
<clustering>
<clus scale="   24.241">  1  9  2 -1</clus>
<clus scale="   89.938">  5  6 -1 -1</clus>
<clus scale="   90.693">  1  5  2 -1</clus>
<clus scale="  122.586">  7  8 -1 -1</clus>
<clus scale="  123.141">  2  5  1 -1</clus>
</clustering>
</event>
<event>
 9    1  0.2423659E-006  0.1032728E+03  0.7546771E-02  0.1273886E+00
         -1   -1    0    0    0  501 -0.00000000000E+00  0.00000000000E+00  0.21200748044E+02  0.21200748044E+02  0.00000000000E+00 0.  1.
          1   -1    0    0  502    0  0.00000000000E+00 -0.00000000000E+00 -0.82886640674E+03  0.82886640674E+03  0.00000000000E+00 0. -1.
         23    2    1    2    0    0 -0.39336141436E+02 -0.44485722170E+01 -0.18839492089E+03  0.21446908145E+03  0.94536865114E+02 0.  0.
         23    2    1    2    0    0  0.39968522704E+02 -0.24955402963E+02 -0.38168013770E+03  0.39619404888E+03  0.95235192598E+02 0.  0.
        -13    1    3    3    0    0  0.22029585949E+02 -0.15177857020E+02 -0.11560853206E+03  0.11866340078E+03  0.00000000000E+00 0.  1.
         13    1    3    3    0    0 -0.61365727385E+02  0.10729284803E+02 -0.72786388828E+02  0.95805680670E+02  0.00000000000E+00 0. -1.
        -13    1    4    4    0    0  0.39586063781E+02 -0.57837234552E+02 -0.20982357268E+03  0.22121965057E+03  0.00000000000E+00 0.  1.
         13    1    4    4    0    0  0.38245892300E+00  0.32881831589E+02 -0.17185656502E+03  0.17497439831E+03  0.00000000000E+00 0. -1.
         21    1    1    2  502  501 -0.63238126794E+00  0.29403975180E+02 -0.23759060012E+03  0.23940402446E+03  0.00000000000E+00 0.  1.
<scales pt_clust_5="13000.00000" pt_clust_6="13000.00000" pt_clust_7="13000.00000" pt_clust_8="13000.00000" pt_clust_9="29.41077"></scales>
<clustering>
<clus scale="   29.411">  2  9  1 -1</clus>
<clus scale="   94.537">  5  6 -1 -1</clus>
<clus scale="   95.235">  7  8 -1 -1</clus>
<clus scale="  102.629">  1  5  2 -1</clus>
<clus scale="   29.411">  2  5  1 -1</clus>
</clustering>
</event>
<event>
 9    1  0.2423659E-006  0.1356267E+03  0.7546771E-02  0.1219471E+00
          1   -1    0    0  502    0  0.00000000000E+00  0.00000000000E+00  0.26116368872E+03  0.26116368872E+03  0.00000000000E+00 0. -1.
         -1   -1    0    0    0  501 -0.00000000000E+00 -0.00000000000E+00 -0.13250665006E+03  0.13250665006E+03  0.00000000000E+00 0.  1.
         23    2    1    2    0    0  0.94204627798E+02 -0.27350919965E+02 -0.11123550423E+01  0.13431577868E+03  0.91743699220E+02 0.  0.
         23    2    1    2    0    0 -0.10928363835E+03 -0.45524616822E+02  0.85142668268E+02  0.17258034133E+03  0.92300031992E+02 0.  0.
        -11    1    4    4    0    0 -0.34294880123E+02  0.75860717424E+01  0.71526875187E+02  0.79685514124E+02  0.00000000000E+00 0. -1.
         11    1    4    4    0    0 -0.74988758227E+02 -0.53110688565E+02  0.13615793080E+02  0.92894827205E+02  0.00000000000E+00 0.  1.
        -13    1    3    3    0    0  0.54989282448E+02  0.15694158880E+02 -0.34899661067E+02  0.66993388850E+02  0.00000000000E+00 0. -1.
         13    1    3    3    0    0  0.39215345350E+02 -0.43045078845E+02  0.33787306024E+02  0.67322389828E+02  0.00000000000E+00 0.  1.
         21    1    1    2  502  501  0.15079010552E+02  0.72875536787E+02  0.44626725426E+02  0.86774218773E+02  0.00000000000E+00 0. -1.
<scales pt_clust_5="13000.00000" pt_clust_6="13000.00000" pt_clust_7="13000.00000" pt_clust_8="13000.00000" pt_clust_9="74.41922"></scales>
<clustering>
<clus scale="   74.419">  1  9  2 -1</clus>
<clus scale="   91.744">  7  8 -1 -1</clus>
<clus scale="   92.300">  5  6 -1 -1</clus>
<clus scale="  135.249">  2  7  1 -1</clus>
<clus scale="   74.419">  1  5  2 -1</clus>
</clustering>
</event>
<event>
 9    1  0.2423659E-006  0.1128000E+03  0.7546771E-02  0.1255526E+00
          1   -1    0    0  502    0  0.00000000000E+00  0.00000000000E+00  0.16368403449E+03  0.16368403449E+03  0.00000000000E+00 0. -1.
         -1   -1    0    0    0  501 -0.00000000000E+00 -0.00000000000E+00 -0.12732196468E+03  0.12732196468E+03  0.00000000000E+00 0.  1.
         23    2    1    2    0    0 -0.16041065228E+02 -0.63805199139E+02 -0.41390922189E+02  0.12014480128E+03  0.91614112581E+02 0.  0.
         23    2    1    2    0    0 -0.12293806893E+02  0.68821914856E+02  0.36899323036E+02  0.12089065974E+03  0.91462549270E+02 0.  0.
        -11    1    4    4    0    0  0.22438607917E+02 -0.10724815774E+02 -0.35635508448E+01  0.25123926708E+02  0.00000000000E+00 0.  1.
         11    1    4    4    0    0 -0.34732414809E+02  0.79546730630E+02  0.40462873881E+02  0.95766733029E+02  0.00000000000E+00 0. -1.
        -11    1    3    3    0    0  0.21227641534E+02 -0.30010584769E+02 -0.56686304290E+02  0.67561712954E+02  0.00000000000E+00 0.  1.
         11    1    3    3    0    0 -0.37268706762E+02 -0.33794614370E+02  0.15295382102E+02  0.52583088325E+02  0.00000000000E+00 0. -1.
         21    1    1    2  502  501  0.28334872121E+02 -0.50167157165E+01  0.40853668964E+02  0.49970538145E+02  0.00000000000E+00 0.  1.
<scales pt_clust_5="13000.00000" pt_clust_6="13000.00000" pt_clust_7="13000.00000" pt_clust_8="13000.00000" pt_clust_9="28.77555"></scales>
<clustering>
<clus scale="   28.776">  1  9  2 -1</clus>
<clus scale="   91.463">  5  6 -1 -1</clus>
<clus scale="   91.614">  7  8 -1 -1</clus>
<clus scale="  112.677">  1  5  2 -1</clus>
<clus scale="   28.776">  1  5  2 -1</clus>
</clustering>
</event>
<event>
 9    1  0.2423659E-006  0.1968902E+03  0.7546771E-02  0.1177067E+00
          1   -1    0    0  502    0  0.00000000000E+00  0.00000000000E+00  0.12331326134E+03  0.12331326134E+03  0.00000000000E+00 0. -1.
         -1   -1    0    0    0  501 -0.00000000000E+00 -0.00000000000E+00 -0.58837222757E+03  0.58837222757E+03  0.00000000000E+00 0.  1.
         23    2    1    2    0    0 -0.42236153537E+02  0.46108890022E+02 -0.10369507226E+03  0.15217284943E+03  0.92162821613E+02 0.  0.
         23    2    1    2    0    0  0.47320318816E+02  0.13902983523E+03 -0.32895761982E+03  0.37149039896E+03  0.90683478264E+02 0.  0.
        -11    1    4    4    0    0  0.19415295143E+02  0.12288425934E+03 -0.31013774176E+03  0.33416001218E+03  0.00000000000E+00 0.  1.
         11    1    4    4    0    0  0.27905023673E+02  0.16145575893E+02 -0.18819878056E+02  0.37330386780E+02  0.00000000000E+00 0. -1.
        -13    1    3    3    0    0 -0.69501889628E+02  0.17265090035E+02 -0.64162336743E+02  0.96153010624E+02  0.00000000000E+00 0. -1.
         13    1    3    3    0    0  0.27265736091E+02  0.28843799987E+02 -0.39532735521E+02  0.56019838808E+02  0.00000000000E+00 0.  1.
         21    1    1    2  502  501 -0.50841652792E+01 -0.18513872525E+03 -0.32406274153E+02  0.18802224052E+03  0.00000000000E+00 0. -1.
<scales pt_clust_5="13000.00000" pt_clust_6="13000.00000" pt_clust_7="13000.00000" pt_clust_8="13000.00000" pt_clust_9="174.76348"></scales>
<clustering>
<clus scale="   90.683">  5  6 -1 -1</clus>
<clus scale="   92.163">  7  8 -1 -1</clus>
<clus scale="  111.373">  2  7  1 -1</clus>
<clus scale="  174.763">  1  9  2 -1</clus>
<clus scale="  174.763">  1  5  2 -1</clus>
</clustering>
</event>
<event>
 9    1  0.2423659E-006  0.9215258E+02  0.7546771E-02  0.1300701E+00
         -3   -1    0    0    0  501 -0.00000000000E+00  0.00000000000E+00  0.64072486437E+03  0.64072486437E+03  0.00000000000E+00 0.  1.
          3   -1    0    0  502    0  0.00000000000E+00 -0.00000000000E+00 -0.18363107717E+02  0.18363107717E+02  0.00000000000E+00 0. -1.
         23    2    1    2    0    0 -0.17136030851E+02 -0.66203501120E+01  0.34491434748E+03  0.35622854449E+03  0.87151570422E+02 0.  0.
         23    2    1    2    0    0 -0.61594947058E+01 -0.78406508581E+01  0.19306837700E+03  0.21413725939E+03  0.92086657453E+02 0.  0.
        -11    1    3    3    0    0 -0.48836134385E+02  0.13119399457E+02  0.16945229488E+03  0.17683655421E+03  0.00000000000E+00 0.  1.
         11    1    3    3    0    0  0.31700103534E+02 -0.19739749569E+02  0.17546205259E+03  0.17939199028E+03  0.00000000000E+00 0. -1.
        -11    1    4    4    0    0  0.24436520376E+02 -0.17148213843E+02  0.15357360874E+02  0.33571614485E+02  0.00000000000E+00 0. -1.
         11    1    4    4    0    0 -0.30596015082E+02  0.93075629850E+01  0.17771101612E+03  0.18056564490E+03  0.00000000000E+00 0.  1.
         21    1    1    2  502  501  0.23295525556E+02  0.14461000970E+02  0.84379032184E+02  0.88722168212E+02  0.00000000000E+00 0.  1.
<scales pt_clust_5="13000.00000" pt_clust_6="13000.00000" pt_clust_7="13000.00000" pt_clust_8="13000.00000" pt_clust_9="27.41901"></scales>
<clustering>
<clus scale="   27.419">  1  9  2 -1</clus>
<clus scale="   87.152">  5  6 -1 -1</clus>
<clus scale="   87.221">  1  5  2 -1</clus>
<clus scale="   92.087">  7  8 -1 -1</clus>
<clus scale="   92.153">  2  5  1 -1</clus>
</clustering>
</event>
<event>
 9    1  0.2423659E-006  0.1393283E+03  0.7546771E-02  0.1228312E+00
         -3   -1    0    0    0  501 -0.00000000000E+00  0.00000000000E+00  0.32614288835E+03  0.32614288835E+03  0.00000000000E+00 0.  1.
          3   -1    0    0  502    0  0.00000000000E+00 -0.00000000000E+00 -0.10365866062E+03  0.10365866062E+03  0.00000000000E+00 0. -1.
         23    2    1    2    0    0  0.76336514276E+02 -0.37041253568E+02  0.10292930087E+03  0.16161102188E+03  0.91237950108E+02 0.  0.
         23    2    1    2    0    0  0.27002591953E+02 -0.37804649017E+02  0.18396880539E+02  0.10535984709E+03  0.92757321575E+02 0.  0.
        -11    1    3    3    0    0  0.84988151583E+02 -0.10151439299E+02  0.43950765155E+02  0.96216980763E+02  0.00000000000E+00 0.  1.
         11    1    3    3    0    0 -0.86516373074E+01 -0.26889814269E+02  0.58978535712E+02  0.65394041122E+02  0.00000000000E+00 0. -1.
        -13    1    4    4    0    0 -0.29494807337E+02  0.47964816594E+01 -0.60658521929E+01  0.30491711316E+02  0.00000000000E+00 0. -1.
         13    1    4    4    0    0  0.56497399290E+02 -0.42601130676E+02  0.24462732732E+02  0.74868135773E+02  0.00000000000E+00 0.  1.
         21    1    1    2  502  501 -0.10333910623E+03  0.74845902585E+02  0.10115804632E+03  0.16283067999E+03  0.00000000000E+00 0. -1.
<scales pt_clust_5="13000.00000" pt_clust_6="13000.00000" pt_clust_7="13000.00000" pt_clust_8="13000.00000" pt_clust_9="105.29961"></scales>
<clustering>
<clus scale="   91.238">  5  6 -1 -1</clus>
<clus scale="   92.757">  7  8 -1 -1</clus>
<clus scale="  103.741">  2  7  1 -1</clus>
<clus scale="  105.300">  2  9  1 -1</clus>
<clus scale="  103.741">  2  5  1 -1</clus>
</clustering>
</event>
<event>
 9    1  0.2423659E-006  0.1040156E+03  0.7546771E-02  0.1279012E+00
          2   -1    0    0  502    0  0.00000000000E+00  0.00000000000E+00  0.18361321178E+03  0.18361321178E+03  0.00000000000E+00 0. -1.
         -2   -1    0    0    0  501 -0.00000000000E+00 -0.00000000000E+00 -0.10107412933E+03  0.10107412933E+03  0.00000000000E+00 0.  1.
         23    2    1    2    0    0 -0.23661028729E+02  0.31063251930E+02  0.25655508314E+02  0.10215843481E+03  0.90848064349E+02 0.  0.
         23    2    1    2    0    0 -0.13552499870E+02  0.23494377761E+02  0.37943180966E+02  0.11382577565E+03  0.10383143156E+03 0.  0.
        -11    1    3    3    0    0  0.21837624534E+01  0.59628353230E+02  0.96483523451E+01  0.60443362170E+02  0.00000000000E+00 0.  1.
         11    1    3    3    0    0 -0.25844791183E+02 -0.28565101300E+02  0.16007155969E+02  0.41715072645E+02  0.00000000000E+00 0. -1.
        -13    1    4    4    0    0 -0.40414080974E+02  0.80871852864E+01  0.62112957695E+02  0.74543410308E+02  0.00000000000E+00 0. -1.
         13    1    4    4    0    0  0.26861581105E+02  0.15407192475E+02 -0.24169776729E+02  0.39282365338E+02  0.00000000000E+00 0.  1.
         21    1    1    2  502  501  0.37213528599E+02 -0.54557629691E+02  0.18940393172E+02  0.68703130655E+02  0.00000000000E+00 0. -1.
<scales pt_clust_5="13000.00000" pt_clust_6="13000.00000" pt_clust_7="13000.00000" pt_clust_8="13000.00000" pt_clust_9="66.04076"></scales>
<clustering>
<clus scale="   66.041">  2  9  1 -1</clus>
<clus scale="   90.848">  5  6 -1 -1</clus>
<clus scale="   91.058">  2  5  1 -1</clus>
<clus scale="  103.831">  7  8 -1 -1</clus>
<clus scale="  104.016">  1  5  2 -1</clus>
</clustering>
</event>
<event>
 9    1  0.2423659E-006  0.1839493E+03  0.7546771E-02  0.1187899E+00
          1   -1    0    0  502    0  0.00000000000E+00  0.00000000000E+00  0.24167139899E+03  0.24167139899E+03  0.00000000000E+00 0. -1.
         -1   -1    0    0    0  501 -0.00000000000E+00 -0.00000000000E+00 -0.22116306194E+03  0.22116306194E+03  0.00000000000E+00 0.  1.
         23    2    1    2    0    0 -0.53872100941E+02 -0.22437888496E+02 -0.17766604629E+02  0.10863120705E+03  0.89885620686E+02 0.  0.
         23    2    1    2    0    0 -0.86482685408E+02 -0.92290764756E+02 -0.32644496974E+02  0.15954535729E+03  0.91609048212E+02 0.  0.
        -13    1    4    4    0    0 -0.19292726959E+02 -0.76494061141E+02 -0.42845734145E+02  0.89773646678E+02  0.00000000000E+00 0.  1.
         13    1    4    4    0    0 -0.67189958449E+02 -0.15796703615E+02  0.10201237171E+02  0.69771710609E+02  0.00000000000E+00 0. -1.
        -13    1    3    3    0    0 -0.34989608152E+02 -0.12344449025E+02  0.35420729859E+02  0.51296064217E+02  0.00000000000E+00 0. -1.
         13    1    3    3    0    0 -0.18882492789E+02 -0.10093439471E+02 -0.53187334488E+02  0.57335142837E+02  0.00000000000E+00 0.  1.
         21    1    1    2  502  501  0.14035478635E+03  0.11472865325E+03  0.70919438648E+02  0.19465789659E+03  0.00000000000E+00 0.  1.
<scales pt_clust_5="13000.00000" pt_clust_6="13000.00000" pt_clust_7="13000.00000" pt_clust_8="13000.00000" pt_clust_9="159.51526"></scales>
<clustering>
<clus scale="   89.886">  7  8 -1 -1</clus>
<clus scale="   91.609">  5  6 -1 -1</clus>
<clus scale="  107.168">  2  7  1 -1</clus>
<clus scale="  159.515">  1  9  2 -1</clus>
<clus scale="  159.515">  1  5  2 -1</clus>
</clustering>
</event>
<event>
 9    1  0.2423659E-006  0.1058793E+03  0.7546771E-02  0.1272648E+00
          2   -1    0    0  502    0  0.00000000000E+00  0.00000000000E+00  0.68965085022E+03  0.68965085022E+03  0.00000000000E+00 0. -1.
         -2   -1    0    0    0  501 -0.00000000000E+00 -0.00000000000E+00 -0.23589890459E+02  0.23589890459E+02  0.00000000000E+00 0.  1.
         23    2    1    2    0    0  0.34813006896E+02 -0.52562536373E+02  0.23216292316E+03  0.25783105913E+03  0.92749482385E+02 0.  0.
         23    2    1    2    0    0 -0.42654979446E+02  0.13138251211E+02  0.25075277301E+03  0.26790512595E+03  0.83091169339E+02 0.  0.
        -13    1    4    4    0    0 -0.28739081864E+01  0.29514931141E+02  0.27164208630E+02  0.40215478849E+02  0.00000000000E+00 0.  1.
         13    1    4    4    0    0 -0.39781071260E+02 -0.16376679930E+02  0.22358856438E+03  0.22768964710E+03  0.00000000000E+00 0. -1.
        -13    1    3    3    0    0 -0.23283970637E+02 -0.26827871224E+02  0.14897542592E+03  0.15315206656E+03  0.00000000000E+00 0. -1.
         13    1    3    3    0    0  0.58096977533E+02 -0.25734665149E+02  0.83187497241E+02  0.10467899257E+03  0.00000000000E+00 0.  1.
         21    1    1    2  502  501  0.78419725506E+01  0.39424285162E+02  0.18314526359E+03  0.18750455560E+03  0.00000000000E+00 0. -1.
<scales pt_clust_5="13000.00000" pt_clust_6="13000.00000" pt_clust_7="13000.00000" pt_clust_8="13000.00000" pt_clust_9="40.19665"></scales>
<clustering>
<clus scale="   40.197">  1  9  2 -1</clus>
<clus scale="   83.091">  5  6 -1 -1</clus>
<clus scale="   92.749">  7  8 -1 -1</clus>
<clus scale="   97.530">  1  5  2 -1</clus>
<clus scale="   40.197">  1  5  2 -1</clus>
</clustering>
</event>
<event>
 9    1  0.2423659E-006  0.1915707E+03  0.7546771E-02  0.1187136E+00
         -2   -1    0    0    0  501 -0.00000000000E+00  0.00000000000E+00  0.14571776247E+04  0.14571776247E+04  0.00000000000E+00 0.  1.
          2   -1    0    0  502    0  0.00000000000E+00 -0.00000000000E+00 -0.14286318798E+03  0.14286318798E+03  0.00000000000E+00 0. -1.
         23    2    1    2    0    0  0.23198078131E+02  0.15861798418E+02  0.18441954224E+03  0.20814092476E+03  0.92316463988E+02 0.  0.
         23    2    1    2    0    0  0.11814219125E+02  0.16763775314E+03 -0.50154641227E+02  0.19715520678E+03  0.90070502794E+02 0.  0.
        -11    1    4    4    0    0  0.47929260507E+02  0.12740869192E+03 -0.29522662641E+02  0.13929025952E+03  0.00000000000E+00 0. -1.
         11    1    4    4    0    0 -0.36115041382E+02  0.40229061223E+02 -0.20631978586E+02  0.57864947259E+02  0.00000000000E+00 0.  1.
        -13    1    3    3    0    0 -0.33691834287E+02  0.18760311056E+02  0.89272033889E+02  0.97244974180E+02  0.00000000000E+00 0.  1.
         13    1    3    3    0    0  0.56889912418E+02 -0.28985126383E+01  0.95147508349E+02  0.11089595058E+03  0.00000000000E+00 0. -1.
         21    1    1    2  502  501 -0.35012297256E+02 -0.18349955156E+03  0.11800495357E+04  0.11947446811E+04  0.00000000000E+00 0.  1.
<scales pt_clust_5="13000.00000" pt_clust_6="13000.00000" pt_clust_7="13000.00000" pt_clust_8="13000.00000" pt_clust_9="169.07581"></scales>
<clustering>
<clus scale="   90.071">  5  6 -1 -1</clus>
<clus scale="   92.316">  7  8 -1 -1</clus>
<clus scale="   96.499">  1  7  2 -1</clus>
<clus scale="  169.076">  1  9  2 -1</clus>
<clus scale="  191.571">  2  5  1 -1</clus>
</clustering>
</event>
<event>
 9    1  0.2423659E-006  0.1040998E+03  0.7546771E-02  0.1274327E+00
          1   -1    0    0  502    0  0.00000000000E+00  0.00000000000E+00  0.22601733697E+03  0.22601733697E+03  0.00000000000E+00 0. -1.
         -1   -1    0    0    0  501 -0.00000000000E+00 -0.00000000000E+00 -0.13077990234E+03  0.13077990234E+03  0.00000000000E+00 0.  1.
         23    2    1    2    0    0 -0.10167250208E+02  0.34636780114E+02 -0.82097845870E+02  0.13205236687E+03  0.96926218257E+02 0.  0.
         23    2    1    2    0    0 -0.40221360041E+01 -0.54452097042E+02  0.16706639811E+03  0.19829803120E+03  0.91813503086E+02 0.  0.
        -11    1    4    4    0    0 -0.31924581825E+02  0.84648791226E+01  0.84996887583E+02  0.91188288733E+02  0.00000000000E+00 0.  1.
         11    1    4    4    0    0  0.27902445821E+02 -0.62916976164E+02  0.82069510525E+02  0.10710974246E+03  0.00000000000E+00 0. -1.
        -13    1    3    3    0    0  0.39946470588E+02  0.18853988676E+02 -0.14613554686E+02  0.46526867313E+02  0.00000000000E+00 0. -1.
         13    1    3    3    0    0 -0.50113720795E+02  0.15782791437E+02 -0.67484291184E+02  0.85525499555E+02  0.00000000000E+00 0.  1.
         21    1    1    2  502  501  0.14189386212E+02  0.19815316928E+02  0.10268882390E+02  0.26446841240E+02  0.00000000000E+00 0. -1.
<scales pt_clust_5="13000.00000" pt_clust_6="13000.00000" pt_clust_7="13000.00000" pt_clust_8="13000.00000" pt_clust_9="24.37182"></scales>
<clustering>
<clus scale="   24.372">  1  9  2 -1</clus>
<clus scale="   91.814">  5  6 -1 -1</clus>
<clus scale="   96.926">  7  8 -1 -1</clus>
<clus scale="   99.357">  1  5  2 -1</clus>
<clus scale="   24.372">  1  5  2 -1</clus>
</clustering>
</event>
<event>
 9    1  0.2423659E-006  0.1009842E+03  0.7546771E-02  0.1278288E+00
         -1   -1    0    0    0  501 -0.00000000000E+00  0.00000000000E+00  0.34123208367E+02  0.34123208367E+02  0.00000000000E+00 0.  1.
          1   -1    0    0  502    0  0.00000000000E+00 -0.00000000000E+00 -0.65823112807E+03  0.65823112807E+03  0.00000000000E+00 0. -1.
         23    2    1    2    0    0 -0.32208767677E+02 -0.13842970802E+02 -0.15071485832E+03  0.17931196339E+03  0.90602313114E+02 0.  0.
         23    2    1    2    0    0  0.51443514418E+01  0.83276662494E+02 -0.29468255093E+03  0.31941653099E+03  0.90706381108E+02 0.  0.
        -11    1    4    4    0    0  0.40830370018E+02  0.70447134588E+02 -0.16042174764E+03  0.17990290437E+03  0.00000000000E+00 0. -1.
         11    1    4    4    0    0 -0.35686018576E+02  0.12829527907E+02 -0.13426080330E+03  0.13951362661E+03  0.00000000000E+00 0.  1.
        -13    1    3    3    0    0 -0.57400165117E+02 -0.76092714553E+00 -0.55089963372E+02  0.79562943824E+02  0.00000000000E+00 0.  1.
         13    1    3    3    0    0  0.25191397441E+02 -0.13082043657E+02 -0.95624894948E+02  0.99749019569E+02  0.00000000000E+00 0. -1.
         21    1    1    2  502  501  0.27064416235E+02 -0.69433691692E+02 -0.17871051045E+03  0.19362584206E+03  0.00000000000E+00 0.  1.
<scales pt_clust_5="13000.00000" pt_clust_6="13000.00000" pt_clust_7="13000.00000" pt_clust_8="13000.00000" pt_clust_9="74.52194"></scales>
<clustering>
<clus scale="   74.522">  2  9  1 -1</clus>
<clus scale="   90.602">  7  8 -1 -1</clus>
<clus scale="   90.706">  5  6 -1 -1</clus>
<clus scale="  100.891">  1  7  2 -1</clus>
<clus scale="   74.522">  2  5  1 -1</clus>
</clustering>
</event>
<event>
 9    1  0.2423659E-006  0.9594238E+02  0.7546771E-02  0.1289319E+00
         -1   -1    0    0    0  501 -0.00000000000E+00  0.00000000000E+00  0.87658154097E+02  0.87658154097E+02  0.00000000000E+00 0.  1.
          1   -1    0    0  502    0  0.00000000000E+00 -0.00000000000E+00 -0.44131141398E+03  0.44131141398E+03  0.00000000000E+00 0. -1.
         23    2    1    2    0    0  0.23291532144E+02 -0.10658458039E+01  0.42618215791E+02  0.10433778639E+03  0.92338669334E+02 0.  0.
         23    2    1    2    0    0 -0.54428852567E+02 -0.25974893688E+02 -0.31247614464E+03  0.33123803555E+03  0.91870017578E+02 0.  0.
        -11    1    3    3    0    0 -0.29146202324E+02 -0.21083928635E+02  0.29922961806E+02  0.46791204300E+02  0.00000000000E+00 0.  1.
         11    1    3    3    0    0  0.52437734468E+02  0.20018082831E+02  0.12695253985E+02  0.57546582089E+02  0.00000000000E+00 0. -1.
        -11    1    4    4    0    0 -0.63053114320E+02  0.15527494603E+02 -0.22240026562E+03  0.23168659102E+03  0.00000000000E+00 0. -1.
         11    1    4    4    0    0  0.86242617528E+01 -0.41502388291E+02 -0.90075879025E+02  0.99551444523E+02  0.00000000000E+00 0.  1.
         21    1    1    2  502  501  0.31137320423E+02  0.27040739492E+02 -0.83795331032E+02  0.93393746141E+02  0.00000000000E+00 0. -1.
<scales pt_clust_5="13000.00000" pt_clust_6="13000.00000" pt_clust_7="13000.00000" pt_clust_8="13000.00000" pt_clust_9="41.23996"></scales>
<clustering>
<clus scale="   41.240">  2  9  1 -1</clus>
<clus scale="   91.870">  7  8 -1 -1</clus>
<clus scale="   92.339">  5  6 -1 -1</clus>
<clus scale="   95.491">  2  7  1 -1</clus>
<clus scale="   41.240">  2  5  1 -1</clus>
</clustering>
</event>
<event>
 9    1  0.2423659E-006  0.1005284E+03  0.7546771E-02  0.1280624E+00
         -2   -1    0    0    0  501 -0.00000000000E+00  0.00000000000E+00  0.24910506468E+02  0.24910506468E+02  0.00000000000E+00 0.  1.
          2   -1    0    0  502    0  0.00000000000E+00 -0.00000000000E+00 -0.66847395628E+03  0.66847395628E+03  0.00000000000E+00 0. -1.
         23    2    1    2    0    0 -0.96015453965E+01 -0.36543227738E+02 -0.29062388554E+03  0.30690324134E+03  0.91103016047E+02 0.  0.
         23    2    1    2    0    0  0.32362821774E+02  0.20962631680E+02 -0.34205699183E+03  0.35682888493E+03  0.94005762046E+02 0.  0.
        -11    1    4    4    0    0 -0.55663895738E+01  0.51372578093E+02 -0.20474566346E+03  0.21116560605E+03  0.00000000000E+00 0.  1.
         11    1    4    4    0    0  0.37929211348E+02 -0.30409946413E+02 -0.13731132837E+03  0.14566327888E+03  0.00000000000E+00 0. -1.
        -13    1    3    3    0    0  0.33070858780E+02 -0.20703986474E+02 -0.58226941313E+02  0.70090751537E+02  0.00000000000E+00 0. -1.
         13    1    3    3    0    0 -0.42672404176E+02 -0.15839241264E+02 -0.23239694422E+03  0.23681248980E+03  0.00000000000E+00 0.  1.
         21    1    1    2  502  501 -0.22761276377E+02  0.15580596059E+02 -0.10882572446E+02  0.29652336483E+02  0.00000000000E+00 0.  1.
<scales pt_clust_5="13000.00000" pt_clust_6="13000.00000" pt_clust_7="13000.00000" pt_clust_8="13000.00000" pt_clust_9="27.58316"></scales>
<clustering>
<clus scale="   27.583">  1  9  2 -1</clus>
<clus scale="   91.103">  7  8 -1 -1</clus>
<clus scale="   94.006">  5  6 -1 -1</clus>
<clus scale="   97.819">  1  7  2 -1</clus>
<clus scale="  100.528">  2  5  1 -1</clus>
</clustering>
</event>
<event>
 9    1  0.2423659E-006  0.1138525E+03  0.7546771E-02  0.1254211E+00
          1   -1    0    0  502    0  0.00000000000E+00  0.00000000000E+00  0.10822608709E+03  0.10822608709E+03  0.00000000000E+00 0. -1.
         -1   -1    0    0    0  501 -0.00000000000E+00 -0.00000000000E+00 -0.18743228694E+03  0.18743228694E+03  0.00000000000E+00 0.  1.
         23    2    1    2    0    0 -0.55843788693E+02  0.21691572018E+02 -0.93869420152E+02  0.14525829789E+03  0.93270853080E+02 0.  0.
         23    2    1    2    0    0  0.65117215963E+02 -0.46308288664E+02  0.28770923231E+01  0.12157487875E+03  0.91583099260E+02 0.  0.
        -11    1    3    3    0    0 -0.52913945180E+02 -0.28030869987E+02 -0.61611829832E+02  0.85916429407E+02  0.00000000000E+00 0.  1.
         11    1    3    3    0    0 -0.29298435130E+01  0.49722442005E+02 -0.32257590320E+02  0.59341868484E+02  0.00000000000E+00 0. -1.
        -11    1    4    4    0    0 -0.26895585112E+01  0.23753769582E+02 -0.17047119411E+01  0.23966254132E+02  0.00000000000E+00 0.  1.
         11    1    4    4    0    0  0.67806774474E+02 -0.70062058246E+02  0.45818042642E+01  0.97608624622E+02  0.00000000000E+00 0. -1.
         21    1    1    2  502  501 -0.92734272699E+01  0.24616716646E+02  0.11786127981E+02  0.28825197390E+02  0.00000000000E+00 0. -1.
<scales pt_clust_5="13000.00000" pt_clust_6="13000.00000" pt_clust_7="13000.00000" pt_clust_8="13000.00000" pt_clust_9="26.30550"></scales>
<clustering>
<clus scale="   26.305">  1  9  2 -1</clus>
<clus scale="   91.583">  7  8 -1 -1</clus>
<clus scale="   93.271">  5  6 -1 -1</clus>
<clus scale="  112.474">  1  7  2 -1</clus>
<clus scale="   26.305">  1  5  2 -1</clus>
</clustering>
</event>
<event>
 9    1  0.2423659E-006  0.1078206E+03  0.7546771E-02  0.1268021E+00
          1   -1    0    0  502    0  0.00000000000E+00  0.00000000000E+00  0.24720917722E+03  0.24720917722E+03  0.00000000000E+00 0. -1.
         -1   -1    0    0    0  501 -0.00000000000E+00 -0.00000000000E+00 -0.22140198062E+03  0.22140198062E+03  0.00000000000E+00 0.  1.
         23    2    1    2    0    0  0.31445628023E+02  0.45040729155E+01 -0.12365021954E+03  0.16055354961E+03  0.97359906049E+02 0.  0.
         23    2    1    2    0    0 -0.10503983639E+03 -0.60287402851E+02  0.24554842252E+02  0.15272396613E+03  0.89742583999E+02 0.  0.
        -11    1    3    3    0    0 -0.22338572080E+02 -0.30328238918E+02 -0.37154699015E+02  0.52908274753E+02  0.00000000000E+00 0. -1.
         11    1    3    3    0    0  0.53784200103E+02  0.34832311834E+02 -0.86495520524E+02  0.10764527486E+03  0.00000000000E+00 0.  1.
        -11    1    4    4    0    0 -0.19557569522E+00 -0.27689936455E+02 -0.20078156827E+02  0.34203847916E+02  0.00000000000E+00 0.  1.
         11    1    4    4    0    0 -0.10484426069E+03 -0.32597466396E+02  0.44632999079E+02  0.11852011822E+03  0.00000000000E+00 0. -1.
         21    1    1    2  502  501  0.73594208363E+02  0.55783329935E+02  0.12490257389E+03  0.15533364210E+03  0.00000000000E+00 0.  1.
<scales pt_clust_5="13000.00000" pt_clust_6="13000.00000" pt_clust_7="13000.00000" pt_clust_8="13000.00000" pt_clust_9="92.34656"></scales>
<clustering>
<clus scale="   89.743">  7  8 -1 -1</clus>
<clus scale="   92.347">  1  9  2 -1</clus>
<clus scale="   97.360">  5  6 -1 -1</clus>
<clus scale="  100.995">  1  7  2 -1</clus>
<clus scale="   92.347">  1  5  2 -1</clus>
</clustering>
</event>
<event>
 9    1  0.2423659E-006  0.1116474E+03  0.7546771E-02  0.1257693E+00
         -2   -1    0    0    0  501 -0.00000000000E+00  0.00000000000E+00  0.42195616344E+02  0.42195616344E+02  0.00000000000E+00 0.  1.
          2   -1    0    0  502    0  0.00000000000E+00 -0.00000000000E+00 -0.77166043061E+03  0.77166043061E+03  0.00000000000E+00 0. -1.
         23    2    1    2    0    0  0.35163621256E+02 -0.52335063440E+02 -0.10570397031E+03  0.15360149893E+03  0.91894787708E+02 0.  0.
         23    2    1    2    0    0  0.44067873755E+02  0.58410686405E+02 -0.49606458215E+03  0.50985216017E+03  0.92278761239E+02 0.  0.
        -11    1    4    4    0    0  0.12166837606E+02 -0.25150358442E+02 -0.10134992243E+03  0.10513029651E+03  0.00000000000E+00 0. -1.
         11    1    4    4    0    0  0.31901036149E+02  0.83561044847E+02 -0.39471465972E+03  0.40472186366E+03  0.00000000000E+00 0.  1.
        -13    1    3    3    0    0 -0.30458398534E+02 -0.26808140958E+02 -0.32061947389E+02  0.51714204366E+02  0.00000000000E+00 0.  1.
         13    1    3    3    0    0  0.65622019790E+02 -0.25526922482E+02 -0.73642022924E+02  0.10188729456E+03  0.00000000000E+00 0. -1.
         21    1    1    2  502  501 -0.79231495011E+02 -0.60756229646E+01 -0.12769626180E+03  0.15040238786E+03  0.00000000000E+00 0.  1.
<scales pt_clust_5="13000.00000" pt_clust_6="13000.00000" pt_clust_7="13000.00000" pt_clust_8="13000.00000" pt_clust_9="79.46410"></scales>
<clustering>
<clus scale="   79.464">  1  9  2 -1</clus>
<clus scale="   91.895">  7  8 -1 -1</clus>
<clus scale="   92.279">  5  6 -1 -1</clus>
<clus scale="  111.330">  1  7  2 -1</clus>
<clus scale="  111.647">  2  5  1 -1</clus>
</clustering>
</event>
<event>
 9    1  0.2423659E-006  0.9410669E+02  0.7546771E-02  0.1293793E+00
          1   -1    0    0  502    0  0.00000000000E+00  0.00000000000E+00  0.30995175420E+03  0.30995175420E+03  0.00000000000E+00 0. -1.
         -1   -1    0    0    0  501 -0.00000000000E+00 -0.00000000000E+00 -0.51816065594E+02  0.51816065594E+02  0.00000000000E+00 0.  1.
         23    2    1    2    0    0  0.26173387256E+02  0.39478339479E+01  0.46424608094E+02  0.10690234054E+03  0.92586362833E+02 0.  0.
         23    2    1    2    0    0  0.32884619697E+01  0.25862108246E+02  0.11375920970E+03  0.14832345840E+03  0.91537030180E+02 0.  0.
        -11    1    4    4    0    0  0.38426862643E+02  0.31072714299E+02  0.97390245593E+02  0.10921079289E+03  0.00000000000E+00 0. -1.
         11    1    4    4    0    0 -0.35138400673E+02 -0.52106060536E+01  0.16368964108E+02  0.39112665510E+02  0.00000000000E+00 0.  1.
        -13    1    3    3    0    0  0.28481426720E+02 -0.40896252279E+02  0.33938466813E+02  0.60295229066E+02  0.00000000000E+00 0.  1.
         13    1    3    3    0    0 -0.23080394644E+01  0.44844086227E+02  0.12486141281E+02  0.46607111473E+02  0.00000000000E+00 0. -1.
         21    1    1    2  502  501 -0.29461849225E+02 -0.29809942193E+02  0.97951870811E+02  0.10654202086E+03  0.00000000000E+00 0.  1.
<scales pt_clust_5="13000.00000" pt_clust_6="13000.00000" pt_clust_7="13000.00000" pt_clust_8="13000.00000" pt_clust_9="41.91221"></scales>
<clustering>
<clus scale="   41.912">  1  9  2 -1</clus>
<clus scale="   91.537">  5  6 -1 -1</clus>
<clus scale="   92.586">  7  8 -1 -1</clus>
<clus scale="   93.074">  1  5  2 -1</clus>
<clus scale="   41.912">  1  5  2 -1</clus>
</clustering>
</event>
<event>
 9    1  0.2423659E-006  0.3606215E+03  0.7546771E-02  0.1076383E+00
         -3   -1    0    0    0  501 -0.00000000000E+00  0.00000000000E+00  0.75221271058E+03  0.75221271058E+03  0.00000000000E+00 0.  1.
          3   -1    0    0  502    0  0.00000000000E+00 -0.00000000000E+00 -0.52719378874E+03  0.52719378874E+03  0.00000000000E+00 0. -1.
         23    2    1    2    0    0  0.19557278398E+03 -0.41463841902E+02  0.35707266786E+03  0.41897596307E+03  0.89844329141E+02 0.  0.
         23    2    1    2    0    0 -0.43179664932E+03  0.23613328736E+03  0.52086697042E+02  0.50321126141E+03  0.91111326580E+02 0.  0.
        -13    1    4    4    0    0 -0.41939378770E+03  0.20478478708E+03  0.50754980147E+02  0.46947207179E+03  0.00000000000E+00 0.  1.
         13    1    4    4    0    0 -0.12402861623E+02  0.31348500275E+02  0.13317168951E+01  0.33739189615E+02  0.00000000000E+00 0. -1.
        -13    1    3    3    0    0 -0.10440959838E+01 -0.21241972463E+02  0.41066156059E+02  0.46246520994E+02  0.00000000000E+00 0.  1.
         13    1    3    3    0    0  0.19661687996E+03 -0.20221869439E+02  0.31600651180E+03  0.37272944207E+03  0.00000000000E+00 0. -1.
         21    1    1    2  502  501  0.23622386535E+03 -0.19466944546E+03 -0.18414044305E+03  0.35721927485E+03  0.00000000000E+00 0. -1.
<scales pt_clust_5="13000.00000" pt_clust_6="13000.00000" pt_clust_7="13000.00000" pt_clust_8="13000.00000" pt_clust_9="348.92202"></scales>
<clustering>
<clus scale="   89.844">  7  8 -1 -1</clus>
<clus scale="   91.111">  5  6 -1 -1</clus>
<clus scale="  219.180">  1  7  2 -1</clus>
<clus scale="  348.922">  2  9  1 -1</clus>
<clus scale="  348.922">  2  5  1 -1</clus>
</clustering>
</event>
<event>
 9    1  0.2423659E-006  0.1036322E+03  0.7546771E-02  0.1274424E+00
         -3   -1    0    0    0  501 -0.00000000000E+00  0.00000000000E+00  0.45880698896E+03  0.45880698896E+03  0.00000000000E+00 0.  1.
          3   -1    0    0  502    0  0.00000000000E+00 -0.00000000000E+00 -0.57605592515E+02  0.57605592515E+02  0.00000000000E+00 0. -1.
         23    2    1    2    0    0  0.17812046989E+01 -0.23840109858E+02  0.12709877799E+03  0.15980029708E+03  0.93864327896E+02 0.  0.
         23    2    1    2    0    0 -0.64397959086E+02  0.10127849144E+02  0.47582840553E+02  0.12119755715E+03  0.90415986870E+02 0.  0.
        -13    1    4    4    0    0 -0.12719690379E+02  0.45998282581E+02  0.27906732087E+02  0.55284882378E+02  0.00000000000E+00 0. -1.
         13    1    4    4    0    0 -0.51678268707E+02 -0.35870433436E+02  0.19676108466E+02  0.65912674773E+02  0.00000000000E+00 0.  1.
        -13    1    3    3    0    0  0.13376890762E+02  0.28042334352E+02  0.12535432566E+02  0.33502996761E+02  0.00000000000E+00 0. -1.
         13    1    3    3    0    0 -0.11595686063E+02 -0.51882444210E+02  0.11456334542E+03  0.12629730032E+03  0.00000000000E+00 0.  1.
         21    1    1    2  502  501  0.62616754387E+02  0.13712260713E+02  0.22651977790E+03  0.23541472725E+03  0.00000000000E+00 0. -1.
<scales pt_clust_5="13000.00000" pt_clust_6="13000.00000" pt_clust_7="13000.00000" pt_clust_8="13000.00000" pt_clust_9="64.10058"></scales>
<clustering>
<clus scale="   64.101">  1  9  2 -1</clus>
<clus scale="   90.416">  5  6 -1 -1</clus>
<clus scale="   93.864">  7  8 -1 -1</clus>
<clus scale="  100.519">  2  5  1 -1</clus>
<clus scale="  100.519">  2  5  1 -1</clus>
</clustering>
</event>
<event>
 9    1  0.2423659E-006  0.1260913E+03  0.7546771E-02  0.1245513E+00
         -1   -1    0    0    0  501 -0.00000000000E+00  0.00000000000E+00  0.88323758471E+02  0.88323758471E+02  0.00000000000E+00 0.  1.
          1   -1    0    0  502    0  0.00000000000E+00 -0.00000000000E+00 -0.68104524197E+03  0.68104524197E+03  0.00000000000E+00 0. -1.
         23    2    1    2    0    0 -0.50616298004E+02 -0.63007052583E+02  0.96485811332E+01  0.12096192653E+03  0.89480692074E+02 0.  0.
         23    2    1    2    0    0 -0.53844541754E+02 -0.10916389733E+02 -0.37258847460E+03  0.38539315510E+03  0.81775976634E+02 0.  0.
        -11    1    4    4    0    0  0.20417379192E+02  0.71885693859E+01 -0.98168988469E+02  0.10052708690E+03  0.00000000000E+00 0.  1.
         11    1    4    4    0    0 -0.74261920946E+02 -0.18104959119E+02 -0.27441948613E+03  0.28486606820E+03  0.00000000000E+00 0. -1.
        -13    1    3    3    0    0 -0.10516922627E+02 -0.76191634694E+02  0.15155337962E+02  0.78392953303E+02  0.00000000000E+00 0.  1.
         13    1    3    3    0    0 -0.40099375377E+02  0.13184582111E+02 -0.55067568289E+01  0.42568973230E+02  0.00000000000E+00 0. -1.
         21    1    1    2  502  501  0.10446083976E+03  0.73923442315E+02 -0.22978159003E+03  0.26301391880E+03  0.00000000000E+00 0.  1.
<scales pt_clust_5="13000.00000" pt_clust_6="13000.00000" pt_clust_7="13000.00000" pt_clust_8="13000.00000" pt_clust_9="88.83818"></scales>
<clustering>
<clus scale="   81.776">  5  6 -1 -1</clus>
<clus scale="   89.481">  7  8 -1 -1</clus>
<clus scale="   98.518">  2  5  1 -1</clus>
<clus scale="   88.838">  2  9  1 -1</clus>
<clus scale="   98.518">  2  5  1 -1</clus>
</clustering>
</event>
<event>
 9    1  0.2423659E-006  0.1059338E+03  0.7546771E-02  0.1274132E+00
         -3   -1    0    0    0  501 -0.00000000000E+00  0.00000000000E+00  0.17864811248E+03  0.17864811248E+03  0.00000000000E+00 0.  1.
          3   -1    0    0  502    0  0.00000000000E+00 -0.00000000000E+00 -0.28458001426E+03  0.28458001426E+03  0.00000000000E+00 0. -1.
         23    2    1    2    0    0  0.94663970641E+02 -0.29263507539E+02  0.99574862325E+02  0.16133418194E+03  0.79346990138E+02 0.  0.
         23    2    1    2    0    0 -0.42772386633E+02  0.20591084215E+02 -0.22332183940E+03  0.24634824898E+03  0.92527541907E+02 0.  0.
        -11    1    3    3    0    0  0.16806101658E+02 -0.23427900552E+02 -0.65654127830E+01  0.29570529624E+02  0.00000000000E+00 0. -1.
         11    1    3    3    0    0  0.77857868983E+02 -0.58356069866E+01  0.10614027511E+03  0.13176365232E+03  0.00000000000E+00 0.  1.
        -13    1    4    4    0    0 -0.40357877441E+02  0.45743361937E+02 -0.20808397338E+03  0.21684130928E+03  0.00000000000E+00 0. -1.
         13    1    4    4    0    0 -0.24145091923E+01 -0.25152277722E+02 -0.15237866025E+02  0.29506939696E+02  0.00000000000E+00 0.  1.
         21    1    1    2  502  501 -0.51891584007E+02  0.86724233241E+01  0.17815075303E+02  0.55545695829E+02  0.00000000000E+00 0. -1.
<scales pt_clust_5="13000.00000" pt_clust_6="13000.00000" pt_clust_7="13000.00000" pt_clust_8="13000.00000" pt_clust_9="52.61129"></scales>
<clustering>
<clus scale="   52.611">  1  9  2 -1</clus>
<clus scale="   79.347">  5  6 -1 -1</clus>
<clus scale="   92.528">  7  8 -1 -1</clus>
<clus scale="   94.639">  1  5  2 -1</clus>
<clus scale="  105.934">  2  5  1 -1</clus>
</clustering>
</event>
<event>
 9    1  0.2423659E-006  0.1615892E+03  0.7546771E-02  0.1186997E+00
          1   -1    0    0  502    0  0.00000000000E+00  0.00000000000E+00  0.47205707614E+03  0.47205707614E+03  0.00000000000E+00 0. -1.
         -1   -1    0    0    0  501 -0.00000000000E+00 -0.00000000000E+00 -0.13837693756E+03  0.13837693756E+03  0.00000000000E+00 0.  1.
         23    2    1    2    0    0  0.82354205574E+02  0.69242199649E+02  0.47944191668E+02  0.14769308144E+03  0.89094912320E+02 0.  0.
         23    2    1    2    0    0 -0.11427741418E+03 -0.11518477543E+03  0.14652477893E+02  0.18594487251E+03  0.89632252145E+02 0.  0.
        -13    1    3    3    0    0  0.57776532773E+02 -0.17786459741E+00  0.46288037597E+02  0.74032032254E+02  0.00000000000E+00 0. -1.
         13    1    3    3    0    0  0.24577672802E+02  0.69420064247E+02  0.16561540719E+01  0.73661049183E+02  0.00000000000E+00 0.  1.
        -13    1    4    4    0    0 -0.30327411743E+01 -0.42447242252E+02  0.30116757699E+02  0.52134297618E+02  0.00000000000E+00 0. -1.
         13    1    4    4    0    0 -0.11124467300E+03 -0.72737533174E+02 -0.15464279806E+02  0.13381057490E+03  0.00000000000E+00 0.  1.
         21    1    1    2  502  501  0.31923208604E+02  0.45942575777E+02  0.27108346902E+03  0.27679605975E+03  0.00000000000E+00 0. -1.
<scales pt_clust_5="13000.00000" pt_clust_6="13000.00000" pt_clust_7="13000.00000" pt_clust_8="13000.00000" pt_clust_9="55.94472"></scales>
<clustering>
<clus scale="   55.945">  1  9  2 -1</clus>
<clus scale="   89.095">  5  6 -1 -1</clus>
<clus scale="   89.632">  7  8 -1 -1</clus>
<clus scale="  161.292">  2  5  1 -1</clus>
<clus scale="   55.945">  1  5  2 -1</clus>
</clustering>
</event>
<event>
 9    1  0.2423659E-006  0.1540133E+03  0.7546771E-02  0.1215754E+00
         -1   -1    0    0    0  501 -0.00000000000E+00  0.00000000000E+00  0.40116662535E+03  0.40116662535E+03  0.00000000000E+00 0.  1.
          1   -1    0    0  502    0  0.00000000000E+00 -0.00000000000E+00 -0.11552658632E+03  0.11552658632E+03  0.00000000000E+00 0. -1.
         23    2    1    2    0    0 -0.30895236846E+02 -0.23027919454E+02  0.12631268004E+03  0.16103624060E+03  0.92157348661E+02 0.  0.
         23    2    1    2    0    0 -0.94380437776E+02 -0.35333914161E+02  0.17256920780E+03  0.21682093527E+03  0.84113221126E+02 0.  0.
        -11    1    3    3    0    0 -0.50718991769E+02 -0.28874261939E+01  0.12237856787E+03  0.13250383855E+03  0.00000000000E+00 0.  1.
         11    1    3    3    0    0  0.19823754924E+02 -0.20140493260E+02  0.39341121708E+01  0.28532402048E+02  0.00000000000E+00 0. -1.
        -11    1    4    4    0    0 -0.84243786077E+02  0.99578259553E+01  0.10950403369E+03  0.13851825578E+03  0.00000000000E+00 0.  1.
         11    1    4    4    0    0 -0.10136651700E+02 -0.45291740116E+02  0.63065174104E+02  0.78302679490E+02  0.00000000000E+00 0. -1.
         21    1    1    2  502  501  0.12527567462E+03  0.58361833616E+02 -0.13241848811E+02  0.13883603579E+03  0.00000000000E+00 0. -1.
<scales pt_clust_5="13000.00000" pt_clust_6="13000.00000" pt_clust_7="13000.00000" pt_clust_8="13000.00000" pt_clust_9="129.01570"></scales>
<clustering>
<clus scale="   84.113">  7  8 -1 -1</clus>
<clus scale="   92.157">  5  6 -1 -1</clus>
<clus scale="   99.889">  1  5  2 -1</clus>
<clus scale="  129.016">  2  9  1 -1</clus>
<clus scale="  129.016">  2  5  1 -1</clus>
</clustering>
</event>
<event>
 9    1  0.2423659E-006  0.1056960E+03  0.7546771E-02  0.1270835E+00
          2   -1    0    0  502    0  0.00000000000E+00  0.00000000000E+00  0.61402489708E+03  0.61402489708E+03  0.00000000000E+00 0. -1.
         -2   -1    0    0    0  501 -0.00000000000E+00 -0.00000000000E+00 -0.88529887758E+02  0.88529887758E+02  0.00000000000E+00 0.  1.
         23    2    1    2    0    0  0.37153154469E+02 -0.30362308205E+02 -0.30555625498E+02  0.10792318494E+03  0.91714453339E+02 0.  0.
         23    2    1    2    0    0 -0.28954137241E+01  0.53803708282E+02  0.54084909507E+03  0.55042550474E+03  0.86875026250E+02 0.  0.
        -11    1    4    4    0    0 -0.44780409016E+02  0.23869715703E+02  0.26744719154E+03  0.27221875141E+03  0.00000000000E+00 0. -1.
         11    1    4    4    0    0  0.41884995292E+02  0.29933992580E+02  0.27340190353E+03  0.27820675333E+03  0.00000000000E+00 0.  1.
        -13    1    3    3    0    0  0.61476148502E+02 -0.34347624977E+02 -0.40624657262E+02  0.81298456036E+02  0.00000000000E+00 0.  1.
         13    1    3    3    0    0 -0.24322994033E+02  0.39853167721E+01  0.10069031763E+02  0.26624728903E+02  0.00000000000E+00 0. -1.
         21    1    1    2  502  501 -0.34257740745E+02 -0.23441400077E+02  0.15201539752E+02  0.44206095161E+02  0.00000000000E+00 0. -1.
<scales pt_clust_5="13000.00000" pt_clust_6="13000.00000" pt_clust_7="13000.00000" pt_clust_8="13000.00000" pt_clust_9="41.51014"></scales>
<clustering>
<clus scale="   41.510">  2  9  1 -1</clus>
<clus scale="   86.875">  5  6 -1 -1</clus>
<clus scale="   91.714">  7  8 -1 -1</clus>
<clus scale="  101.525">  1  5  2 -1</clus>
<clus scale="  101.525">  1  5  2 -1</clus>
</clustering>
</event>
<event>
 9    1  0.2423659E-006  0.1155027E+03  0.7546771E-02  0.1252402E+00
         -1   -1    0    0    0  501 -0.00000000000E+00  0.00000000000E+00  0.86102327487E+02  0.86102327487E+02  0.00000000000E+00 0.  1.
          1   -1    0    0  502    0  0.00000000000E+00 -0.00000000000E+00 -0.52816628074E+03  0.52816628074E+03  0.00000000000E+00 0. -1.
         23    2    1    2    0    0  0.10483005710E+02 -0.68630651424E+02  0.30525441078E+02  0.11441670815E+03  0.85669836155E+02 0.  0.
         23    2    1    2    0    0 -0.34059178947E+02  0.88635159976E+02 -0.39887945025E+03  0.41991960271E+03  0.90616983235E+02 0.  0.
        -11    1    3    3    0    0  0.29621141137E+02 -0.21764376944E+02  0.48360090189E+02  0.60743711025E+02  0.00000000000E+00 0.  1.
         11    1    3    3    0    0 -0.19138135427E+02 -0.46866274480E+02 -0.17834649111E+02  0.53672997123E+02  0.00000000000E+00 0. -1.
        -11    1    4    4    0    0 -0.47564412191E+01  0.99018822946E+02 -0.27953786289E+03  0.29659529298E+03  0.00000000000E+00 0. -1.
         11    1    4    4    0    0 -0.29302737728E+02 -0.10383662970E+02 -0.11934158736E+03  0.12332430972E+03  0.00000000000E+00 0.  1.
         21    1    1    2  502  501  0.23576173237E+02 -0.20004508552E+02 -0.73709944077E+02  0.79932297370E+02  0.00000000000E+00 0. -1.
<scales pt_clust_5="13000.00000" pt_clust_6="13000.00000" pt_clust_7="13000.00000" pt_clust_8="13000.00000" pt_clust_9="30.91951"></scales>
<clustering>
<clus scale="   30.920">  2  9  1 -1</clus>
<clus scale="   85.670">  5  6 -1 -1</clus>
<clus scale="   90.617">  7  8 -1 -1</clus>
<clus scale="  111.664">  1  5  2 -1</clus>
<clus scale="   30.920">  2  5  1 -1</clus>
</clustering>
</event>
<event>
 9    1  0.2423659E-006  0.2965313E+03  0.7546771E-02  0.1087084E+00
          2   -1    0    0  502    0  0.00000000000E+00  0.00000000000E+00  0.41762653440E+03  0.41762653440E+03  0.00000000000E+00 0. -1.
         -2   -1    0    0    0  501 -0.00000000000E+00 -0.00000000000E+00 -0.65651224800E+03  0.65651224800E+03  0.00000000000E+00 0.  1.
         23    2    1    2    0    0 -0.32655193158E+02  0.34978474835E+03 -0.31042476552E+03  0.47751470793E+03  0.90780115755E+02 0.  0.
         23    2    1    2    0    0  0.13888519139E+02 -0.27103445059E+03  0.26341401384E+03  0.38836990653E+03  0.88270477737E+02 0.  0.
        -13    1    4    4    0    0  0.46033605848E+01 -0.61972034852E+02  0.15704615174E+02  0.64096481730E+02  0.00000000000E+00 0.  1.
         13    1    4    4    0    0  0.92851585544E+01 -0.20906241574E+03  0.24770939867E+03  0.32427342480E+03  0.00000000000E+00 0. -1.
        -13    1    3    3    0    0 -0.38083597262E+02  0.31636572509E+03 -0.23850111986E+03  0.39802062329E+03  0.00000000000E+00 0.  1.
         13    1    3    3    0    0  0.54284041037E+01  0.33419023267E+02 -0.71923645656E+02  0.79494084633E+02  0.00000000000E+00 0. -1.
         21    1    1    2  502  501  0.18766674019E+02 -0.78750297765E+02 -0.19187496192E+03  0.20825416794E+03  0.00000000000E+00 0. -1.
<scales pt_clust_5="13000.00000" pt_clust_6="13000.00000" pt_clust_7="13000.00000" pt_clust_8="13000.00000" pt_clust_9="80.95553"></scales>
<clustering>
<clus scale="   80.956">  2  9  1 -1</clus>
<clus scale="   88.270">  5  6 -1 -1</clus>
<clus scale="   90.780">  7  8 -1 -1</clus>
<clus scale="  295.773">  1  5  2 -1</clus>
<clus scale="  295.773">  1  5  2 -1</clus>
</clustering>
</event>
<event>
 9    1  0.2423659E-006  0.9420774E+02  0.7546771E-02  0.1293441E+00
         -1   -1    0    0    0  501 -0.00000000000E+00  0.00000000000E+00  0.48214648931E+02  0.48214648931E+02  0.00000000000E+00 0.  1.
          1   -1    0    0  502    0  0.00000000000E+00 -0.00000000000E+00 -0.31091612224E+03  0.31091612224E+03  0.00000000000E+00 0. -1.
         23    2    1    2    0    0  0.23426927889E+02  0.37021765110E+02 -0.10676912483E+03  0.14680890248E+03  0.90740155322E+02 0.  0.
         23    2    1    2    0    0  0.18035516920E+02 -0.84883921290E+01 -0.10382726869E+03  0.13987722056E+03  0.91587130301E+02 0.  0.
        -11    1    3    3    0    0  0.58511182923E+00  0.64212715972E+02 -0.58372240412E+02  0.86780952397E+02  0.00000000000E+00 0.  1.
         11    1    3    3    0    0  0.22841816060E+02 -0.27190950861E+02 -0.48396884415E+02  0.60027950079E+02  0.00000000000E+00 0. -1.
        -13    1    4    4    0    0 -0.10221891494E+02 -0.44285082050E+02 -0.68421862280E+02  0.82141382967E+02  0.00000000000E+00 0.  1.
         13    1    4    4    0    0  0.28257408414E+02  0.35796689921E+02 -0.35405406405E+02  0.57735837590E+02  0.00000000000E+00 0. -1.
         21    1    1    2  502  501 -0.41462444809E+02 -0.28533372981E+02 -0.52105079798E+02  0.72444648139E+02  0.00000000000E+00 0.  1.
<scales pt_clust_5="13000.00000" pt_clust_6="13000.00000" pt_clust_7="13000.00000" pt_clust_8="13000.00000" pt_clust_9="50.33178"></scales>
<clustering>
<clus scale="   50.332">  1  9  2 -1</clus>
<clus scale="   90.740">  5  6 -1 -1</clus>
<clus scale="   91.587">  7  8 -1 -1</clus>
<clus scale="   93.385">  1  5  2 -1</clus>
<clus scale="   94.208">  2  5  1 -1</clus>
</clustering>
</event>
<event>
 9    1  0.3178281E-006  0.1594667E+03  0.7546771E-02  0.1210030E+00
         -2   -1    0    0    0  501 -0.00000000000E+00  0.00000000000E+00  0.23834249567E+03  0.23834249567E+03  0.00000000000E+00 0.  1.
          2   -1    0    0  502    0  0.00000000000E+00 -0.00000000000E+00 -0.46204276593E+03  0.46204276593E+03  0.00000000000E+00 0. -1.
         23    2    1    2    0    0  0.34922916906E+02  0.24110152135E+02  0.11901329456E+03  0.15649969164E+03  0.92342187758E+02 0.  0.
         23    2    1    2    0    0 -0.22796836249E+00 -0.13460570899E+03 -0.38709214924E+03  0.41985949894E+03  0.91230027885E+02 0.  0.
        -13    1    4    4    0    0 -0.27711493445E+02 -0.37663379483E+01 -0.85632635684E+02  0.90083630393E+02  0.00000000000E+00 0.  1.
         13    1    4    4    0    0  0.27483525082E+02 -0.13083937104E+03 -0.30145951355E+03  0.32977586855E+03  0.00000000000E+00 0. -1.
        -13    1    3    3    0    0 -0.24072057694E+02  0.77864959349E+01  0.80017296825E+02  0.83921756844E+02  0.00000000000E+00 0. -1.
         13    1    3    3    0    0  0.58994974600E+02  0.16323656200E+02  0.38995997733E+02  0.72577934794E+02  0.00000000000E+00 0.  1.
         21    1    1    2  502  501 -0.34694948543E+02  0.11049555685E+03  0.44378584420E+02  0.12402607103E+03  0.00000000000E+00 0.  1.
<scales pt_clust_5="13000.00000" pt_clust_6="13000.00000" pt_clust_7="13000.00000" pt_clust_8="13000.00000" pt_clust_9="130.79262"></scales>
<clustering>
<clus scale="   91.230">  5  6 -1 -1</clus>
<clus scale="   92.342">  7  8 -1 -1</clus>
<clus scale="  101.627">  1  7  2 -1</clus>
<clus scale="  130.793">  1  9  2 -1</clus>
<clus scale="  159.467">  2  5  1 -1</clus>
</clustering>
</event>
<event>
 9    1  0.2423659E-006  0.1024920E+03  0.7546771E-02  0.1275586E+00
          2   -1    0    0  502    0  0.00000000000E+00  0.00000000000E+00  0.20573738092E+03  0.20573738092E+03  0.00000000000E+00 0. -1.
         -2   -1    0    0    0  501 -0.00000000000E+00 -0.00000000000E+00 -0.68066567496E+02  0.68066567496E+02  0.00000000000E+00 0.  1.
         23    2    1    2    0    0  0.27370028689E+02 -0.31090514607E+02  0.41723241853E+02  0.10854170049E+03  0.91239976252E+02 0.  0.
         23    2    1    2    0    0 -0.71301339626E+01  0.49896653236E+02  0.86357843136E+02  0.13601695633E+03  0.92208570774E+02 0.  0.
        -13    1    4    4    0    0 -0.31254291033E+02  0.36076065800E+02  0.95488241368E+02  0.10675353611E+03  0.00000000000E+00 0. -1.
         13    1    4    4    0    0  0.24124157071E+02  0.13820587436E+02 -0.91303982316E+01  0.29263420226E+02  0.00000000000E+00 0.  1.
        -13    1    3    3    0    0  0.14418471018E+02 -0.15599385080E+02 -0.28458915499E+02  0.35512575135E+02  0.00000000000E+00 0.  1.
         13    1    3    3    0    0  0.12951557671E+02 -0.15491129527E+02  0.70182157352E+02  0.73029125359E+02  0.00000000000E+00 0. -1.
         21    1    1    2  502  501 -0.20239894726E+02 -0.18806138629E+02  0.95897284324E+01  0.29245291588E+02  0.00000000000E+00 0. -1.
<scales pt_clust_5="13000.00000" pt_clust_6="13000.00000" pt_clust_7="13000.00000" pt_clust_8="13000.00000" pt_clust_9="27.62832"></scales>
<clustering>
<clus scale="   27.628">  2  9  1 -1</clus>
<clus scale="   91.240">  7  8 -1 -1</clus>
<clus scale="   92.209">  5  6 -1 -1</clus>
<clus scale="  101.621">  2  7  1 -1</clus>
<clus scale="  102.492">  1  5  2 -1</clus>
</clustering>
</event>
<event>
 9    1  0.2423659E-006  0.1128565E+03  0.7546771E-02  0.1258673E+00
          2   -1    0    0  502    0  0.00000000000E+00  0.00000000000E+00  0.69385066004E+03  0.69385066004E+03  0.00000000000E+00 0. -1.
         -2   -1    0    0    0  501 -0.00000000000E+00 -0.00000000000E+00 -0.14102480811E+03  0.14102480811E+03  0.00000000000E+00 0.  1.
         23    2    1    2    0    0 -0.12158773470E+02 -0.91102018075E+02  0.14915319448E+03  0.19609253734E+03  0.88080612564E+02 0.  0.
         23    2    1    2    0    0 -0.64054439689E+02  0.17820865411E+02  0.48901135701E+03  0.50291065681E+03  0.96780509203E+02 0.  0.
        -11    1    3    3    0    0 -0.25500340082E+02 -0.25584435539E+02  0.11593738342E+03  0.12143437553E+03  0.00000000000E+00 0. -1.
         11    1    3    3    0    0  0.13341566612E+02 -0.65517582536E+02  0.33215811053E+02  0.74658161810E+02  0.00000000000E+00 0.  1.
        -11    1    4    4    0    0 -0.13846360472E+02 -0.34271933947E+02  0.88370269168E+02  0.95789308524E+02  0.00000000000E+00 0.  1.
         11    1    4    4    0    0 -0.50208079217E+02  0.52092799358E+02  0.40064108784E+03  0.40712134829E+03  0.00000000000E+00 0. -1.
         21    1    1    2  502  501  0.76213213159E+02  0.73281152663E+02 -0.85338699559E+02  0.13587227399E+03  0.00000000000E+00 0.  1.
<scales pt_clust_5="13000.00000" pt_clust_6="13000.00000" pt_clust_7="13000.00000" pt_clust_8="13000.00000" pt_clust_9="105.72881"></scales>
<clustering>
<clus scale="   88.081">  5  6 -1 -1</clus>
<clus scale="   96.781">  7  8 -1 -1</clus>
<clus scale="  105.729">  2  9  1 -1</clus>
<clus scale="  105.729">  2  5  1 -1</clus>
<clus scale="  112.857">  1  5  2 -1</clus>
</clustering>
</event>
<event>
 9    1  0.2423659E-006  0.1382356E+03  0.7546771E-02  0.1242565E+00
         -2   -1    0    0    0  501 -0.00000000000E+00  0.00000000000E+00  0.22142772867E+03  0.22142772867E+03  0.00000000000E+00 0.  1.
          2   -1    0    0  502    0  0.00000000000E+00 -0.00000000000E+00 -0.63367790829E+03  0.63367790829E+03  0.00000000000E+00 0. -1.
         23    2    1    2    0    0  0.10254309161E+02 -0.26602961638E+02  0.14398108874E+03  0.16439810739E+03  0.74049411727E+02 0.  0.
         23    2    1    2    0    0  0.72255166291E+02 -0.32874632504E+02  0.11950440187E+01  0.12407758730E+03  0.95353390197E+02 0.  0.
        -11    1    3    3    0    0 -0.13141367284E+02 -0.40830017589E+02  0.47019991211E+02  0.63644838313E+02  0.00000000000E+00 0.  1.
         11    1    3    3    0    0  0.23395676445E+02  0.14227055952E+02  0.96961097525E+02  0.10075326908E+03  0.00000000000E+00 0. -1.
        -13    1    4    4    0    0  0.74195299478E+02  0.30437457637E+01  0.27848766540E+02  0.79308011265E+02  0.00000000000E+00 0.  1.
         13    1    4    4    0    0 -0.19401331876E+01 -0.35918378268E+02 -0.26653722521E+02  0.44769576035E+02  0.00000000000E+00 0. -1.
         21    1    1    2  502  501 -0.82509475452E+02  0.59477594142E+02 -0.55742631237E+03  0.56662994226E+03  0.00000000000E+00 0. -1.
<scales pt_clust_5="13000.00000" pt_clust_6="13000.00000" pt_clust_7="13000.00000" pt_clust_8="13000.00000" pt_clust_9="100.08401"></scales>
<clustering>
<clus scale="   74.049">  5  6 -1 -1</clus>
<clus scale="   79.348">  1  5  2 -1</clus>
<clus scale="   95.353">  7  8 -1 -1</clus>
<clus scale="  100.084">  2  9  1 -1</clus>
<clus scale="  100.084">  2  5  1 -1</clus>
</clustering>
</event>
<event>
 9    1  0.2423659E-006  0.1260514E+03  0.7546771E-02  0.1245749E+00
         -1   -1    0    0    0  501 -0.00000000000E+00  0.00000000000E+00  0.29526964087E+03  0.29526964087E+03  0.00000000000E+00 0.  1.
          1   -1    0    0  502    0  0.00000000000E+00 -0.00000000000E+00 -0.20847416238E+03  0.20847416238E+03  0.00000000000E+00 0. -1.
         23    2    1    2    0    0  0.56100532393E+02 -0.56917708457E+02  0.20287659203E+03  0.23652427804E+03  0.91640205345E+02 0.  0.
         23    2    1    2    0    0  0.19816126076E+02 -0.15656340084E+02 -0.12824728466E+03  0.16149182177E+03  0.94839035414E+02 0.  0.
        -11    1    4    4    0    0 -0.18837750744E+02 -0.36135106360E+02 -0.21380495035E+02  0.46018825851E+02  0.00000000000E+00 0.  1.
         11    1    4    4    0    0  0.38653876820E+02  0.20478766276E+02 -0.10686678963E+03  0.11547299592E+03  0.00000000000E+00 0. -1.
        -11    1    3    3    0    0 -0.14927439652E+02 -0.41607114679E+02  0.11037864745E+03  0.11890090941E+03  0.00000000000E+00 0.  1.
         11    1    3    3    0    0  0.71027972045E+02 -0.15310593778E+02  0.92497944589E+02  0.11762336863E+03  0.00000000000E+00 0. -1.
         21    1    1    2  502  501 -0.75916658469E+02  0.72574048541E+02  0.12166171118E+02  0.10572770344E+03  0.00000000000E+00 0. -1.
<scales pt_clust_5="13000.00000" pt_clust_6="13000.00000" pt_clust_7="13000.00000" pt_clust_8="13000.00000" pt_clust_9="86.55077"></scales>
<clustering>
<clus scale="   91.640">  7  8 -1 -1</clus>
<clus scale="   94.839">  5  6 -1 -1</clus>
<clus scale="   98.144">  2  5  1 -1</clus>
<clus scale="   86.551">  2  9  1 -1</clus>
<clus scale="   98.144">  2  5  1 -1</clus>
</clustering>
</event>
<event>
 9    1  0.2423659E-006  0.9912825E+02  0.7546771E-02  0.1283520E+00
         -1   -1    0    0    0  501 -0.00000000000E+00  0.00000000000E+00  0.22654689264E+02  0.22654689264E+02  0.00000000000E+00 0.  1.
          1   -1    0    0  502    0  0.00000000000E+00 -0.00000000000E+00 -0.64886105884E+03  0.64886105884E+03  0.00000000000E+00 0. -1.
         23    2    1    2    0    0 -0.29191011431E+01 -0.15830661260E+02 -0.17857654054E+03  0.20148854099E+03  0.91918008735E+02 0.  0.
         23    2    1    2    0    0  0.85260247351E+01  0.48145780042E+02 -0.39611757668E+03  0.40895989477E+03  0.89153529071E+02 0.  0.
        -13    1    3    3    0    0  0.30424435920E+02 -0.18874315851E+02 -0.15840228966E+03  0.16239818801E+03  0.00000000000E+00 0. -1.
         13    1    3    3    0    0 -0.33343537063E+02  0.30436545905E+01 -0.20174250883E+02  0.39090352977E+02  0.00000000000E+00 0.  1.
        -13    1    4    4    0    0 -0.11755924662E+02 -0.23831363638E+02 -0.90016380690E+02  0.93856722988E+02  0.00000000000E+00 0.  1.
         13    1    4    4    0    0  0.20281949397E+02  0.71977143680E+02 -0.30610119599E+03  0.31510317179E+03  0.00000000000E+00 0. -1.
         21    1    1    2  502  501 -0.56069235920E+01 -0.32315118782E+02 -0.51512252355E+02  0.61067312342E+02  0.00000000000E+00 0.  1.
<scales pt_clust_5="13000.00000" pt_clust_6="13000.00000" pt_clust_7="13000.00000" pt_clust_8="13000.00000" pt_clust_9="32.79793"></scales>
<clustering>
<clus scale="   32.798">  1  9  2 -1</clus>
<clus scale="   89.154">  7  8 -1 -1</clus>
<clus scale="   91.918">  5  6 -1 -1</clus>
<clus scale="   96.570">  2  7  1 -1</clus>
<clus scale="   96.570">  2  5  1 -1</clus>
</clustering>
</event>
<event>
 9    1  0.2423659E-006  0.9319223E+02  0.7546771E-02  0.1295635E+00
         -2   -1    0    0    0  501 -0.00000000000E+00  0.00000000000E+00  0.75729697503E+03  0.75729697503E+03  0.00000000000E+00 0.  1.
          2   -1    0    0  502    0  0.00000000000E+00 -0.00000000000E+00 -0.29393332388E+02  0.29393332388E+02  0.00000000000E+00 0. -1.
         23    2    1    2    0    0 -0.17870903196E+02 -0.45587429720E+02  0.33250259707E+03  0.34815603689E+03  0.90868399554E+02 0.  0.
         23    2    1    2    0    0  0.15296297079E+02 -0.35762389402E+02  0.28160194319E+03  0.29862480919E+03  0.91455984253E+02 0.  0.
        -11    1    4    4    0    0 -0.37500873887E+02 -0.17403465730E+02  0.90115262303E+02  0.99146137906E+02  0.00000000000E+00 0.  1.
         11    1    4    4    0    0  0.52797170966E+02 -0.18358923672E+02  0.19148668088E+03  0.19947867128E+03  0.00000000000E+00 0. -1.
        -13    1    3    3    0    0 -0.44697599072E+02  0.55108311322E+01  0.16244931656E+03  0.16857646655E+03  0.00000000000E+00 0. -1.
         13    1    3    3    0    0  0.26826695875E+02 -0.51098260852E+02  0.17005328051E+03  0.17957957035E+03  0.00000000000E+00 0.  1.
         21    1    1    2  502  501  0.25746061178E+01  0.81349819122E+02  0.11379910238E+03  0.13990946133E+03  0.00000000000E+00 0. -1.
<scales pt_clust_5="13000.00000" pt_clust_6="13000.00000" pt_clust_7="13000.00000" pt_clust_8="13000.00000" pt_clust_9="81.39055"></scales>
<clustering>
<clus scale="   81.391">  2  9  1 -1</clus>
<clus scale="   90.868">  7  8 -1 -1</clus>
<clus scale="   91.456">  5  6 -1 -1</clus>
<clus scale="   92.616">  1  7  2 -1</clus>
<clus scale="   81.391">  2  5  1 -1</clus>
</clustering>
</event>
<event>
 9    1  0.2423659E-006  0.1581721E+03  0.7546771E-02  0.1209173E+00
         -1   -1    0    0    0  501 -0.00000000000E+00  0.00000000000E+00  0.12804010048E+03  0.12804010048E+03  0.00000000000E+00 0.  1.
          1   -1    0    0  502    0  0.00000000000E+00 -0.00000000000E+00 -0.68225087997E+03  0.68225087997E+03  0.00000000000E+00 0. -1.
         23    2    1    2    0    0  0.55898371124E+02  0.58614003456E+02 -0.49853717556E+03  0.51460115854E+03  0.98563723855E+02 0.  0.
         23    2    1    2    0    0  0.45258350409E+02  0.18546119260E+02 -0.11401615122E+03  0.15572475601E+03  0.94118223913E+02 0.  0.
        -11    1    4    4    0    0 -0.21583553312E+02 -0.18595161519E+01  0.38349121287E+00  0.21666901934E+02  0.00000000000E+00 0.  1.
         11    1    4    4    0    0  0.66841903721E+02  0.20405635411E+02 -0.11439964243E+03  0.13405785407E+03  0.00000000000E+00 0. -1.
        -13    1    3    3    0    0  0.62111127363E+01 -0.27187960730E+02 -0.91090281439E+02  0.95263857274E+02  0.00000000000E+00 0.  1.
         13    1    3    3    0    0  0.49687258388E+02  0.85801964186E+02 -0.40744689413E+03  0.41933730127E+03  0.00000000000E+00 0. -1.
         21    1    1    2  502  501 -0.10115672153E+03 -0.77160122715E+02  0.58342547297E+02  0.13996506591E+03  0.00000000000E+00 0.  1.
<scales pt_clust_5="13000.00000" pt_clust_6="13000.00000" pt_clust_7="13000.00000" pt_clust_8="13000.00000" pt_clust_9="123.70773"></scales>
<clustering>
<clus scale="   94.118">  5  6 -1 -1</clus>
<clus scale="   98.564">  7  8 -1 -1</clus>
<clus scale="  106.068">  2  5  1 -1</clus>
<clus scale="  123.708">  1  9  2 -1</clus>
<clus scale="  106.068">  2  5  1 -1</clus>
</clustering>
</event>
<event>
 9    1  0.2423659E-006  0.1590661E+03  0.7546771E-02  0.1214964E+00
         -2   -1    0    0    0  501 -0.00000000000E+00  0.00000000000E+00  0.18526160088E+03  0.18526160088E+03  0.00000000000E+00 0.  1.
          2   -1    0    0  502    0  0.00000000000E+00 -0.00000000000E+00 -0.53849138861E+03  0.53849138861E+03  0.00000000000E+00 0. -1.
         23    2    1    2    0    0  0.32263452994E+01 -0.17627199297E+02  0.21584311378E+02  0.94691283558E+02  0.90440196955E+02 0.  0.
         23    2    1    2    0    0 -0.74463183717E+00  0.13069536681E+03  0.58622019859E+02  0.18111367477E+03  0.11083225429E+03 0.  0.
        -11    1    3    3    0    0  0.38241012714E+02 -0.47078298270E+01  0.37820912980E+02  0.53990371121E+02  0.00000000000E+00 0. -1.
         11    1    3    3    0    0 -0.35014667415E+02 -0.12919369470E+02 -0.16236601603E+02  0.40700912438E+02  0.00000000000E+00 0.  1.
        -13    1    4    4    0    0 -0.16383149624E+02  0.10062006164E+03 -0.12126138410E+02  0.10266376005E+03  0.00000000000E+00 0. -1.
         13    1    4    4    0    0  0.15638517787E+02  0.30075305179E+02  0.70748158269E+02  0.78449914714E+02  0.00000000000E+00 0.  1.
         21    1    1    2  502  501 -0.24817134622E+01 -0.11306816752E+03 -0.43343611896E+03  0.44794803117E+03  0.00000000000E+00 0. -1.
<scales pt_clust_5="13000.00000" pt_clust_6="13000.00000" pt_clust_7="13000.00000" pt_clust_8="13000.00000" pt_clust_9="114.09743"></scales>
<clustering>
<clus scale="   90.440">  5  6 -1 -1</clus>
<clus scale="   92.198">  1  5  2 -1</clus>
<clus scale="  110.832">  7  8 -1 -1</clus>
<clus scale="  114.097">  2  9  1 -1</clus>
<clus scale="  114.097">  2  5  1 -1</clus>
</clustering>
</event>
<event>
 9    1  0.2423659E-006  0.1225442E+03  0.7546771E-02  0.1239057E+00
          2   -1    0    0  502    0  0.00000000000E+00  0.00000000000E+00  0.50733615485E+03  0.50733615485E+03  0.00000000000E+00 0. -1.
         -2   -1    0    0    0  501 -0.00000000000E+00 -0.00000000000E+00 -0.68444933018E+02  0.68444933018E+02  0.00000000000E+00 0.  1.
         23    2    1    2    0    0  0.23202890893E+02 -0.73318192251E+02  0.43820979182E+02  0.12735630195E+03  0.91571927850E+02 0.  0.
         23    2    1    2    0    0 -0.89768596243E+02  0.64515756691E+02  0.24180234001E+03  0.28109419702E+03  0.91240847375E+02 0.  0.
        -11    1    3    3    0    0 -0.22182058866E+01 -0.60676873194E+02  0.67208029775E+02  0.90573299842E+02  0.00000000000E+00 0. -1.
         11    1    3    3    0    0  0.25421096779E+02 -0.12641319057E+02 -0.23387050593E+02  0.36783002112E+02  0.00000000000E+00 0.  1.
        -11    1    4    4    0    0 -0.47855460988E+02 -0.10420494019E+02  0.45563234369E+02  0.66893498699E+02  0.00000000000E+00 0.  1.
         11    1    4    4    0    0 -0.41913135255E+02  0.74936250710E+02  0.19623910564E+03  0.21420069832E+03  0.00000000000E+00 0. -1.
         21    1    1    2  502  501  0.66565705350E+02  0.88024355603E+01  0.15326790263E+03  0.16733058889E+03  0.00000000000E+00 0. -1.
<scales pt_clust_5="13000.00000" pt_clust_6="13000.00000" pt_clust_7="13000.00000" pt_clust_8="13000.00000" pt_clust_9="67.14519"></scales>
<clustering>
<clus scale="   67.145">  1  9  2 -1</clus>
<clus scale="   91.241">  7  8 -1 -1</clus>
<clus scale="   91.572">  5  6 -1 -1</clus>
<clus scale="  122.297">  1  7  2 -1</clus>
<clus scale="   67.145">  1  5  2 -1</clus>
</clustering>
</event>
<event>
 9    1  0.2423659E-006  0.1489480E+03  0.7546771E-02  0.1202312E+00
         -2   -1    0    0    0  501 -0.00000000000E+00  0.00000000000E+00  0.71024121833E+03  0.71024121833E+03  0.00000000000E+00 0.  1.
          2   -1    0    0  502    0  0.00000000000E+00 -0.00000000000E+00 -0.28735184967E+03  0.28735184967E+03  0.00000000000E+00 0. -1.
         23    2    1    2    0    0  0.10737261219E+03 -0.53835271666E+02  0.66050343124E+03  0.67739602681E+03  0.90407301378E+02 0.  0.
         23    2    1    2    0    0 -0.46081842110E+02  0.61268236111E+02 -0.65428227007E+02  0.13727692357E+03  0.93202832187E+02 0.  0.
        -11    1    3    3    0    0  0.10256821558E+03 -0.31533348043E+02  0.63121476714E+03  0.64027078110E+03  0.00000000000E+00 0.  1.
         11    1    3    3    0    0  0.48043966083E+01 -0.22301923623E+02  0.29288664100E+02  0.37125245707E+02  0.00000000000E+00 0. -1.
        -13    1    4    4    0    0  0.86065216463E+01 -0.19091009832E+02 -0.16245266367E+01  0.21004236669E+02  0.00000000000E+00 0.  1.
         13    1    4    4    0    0 -0.54688363756E+02  0.80359245943E+02 -0.63803700370E+02  0.11627268690E+03  0.00000000000E+00 0. -1.
         21    1    1    2  502  501 -0.61290770078E+02 -0.74329644455E+01 -0.17218583557E+03  0.18292011761E+03  0.00000000000E+00 0. -1.
<scales pt_clust_5="13000.00000" pt_clust_6="13000.00000" pt_clust_7="13000.00000" pt_clust_8="13000.00000" pt_clust_9="61.73984"></scales>
<clustering>
<clus scale="   61.740">  2  9  1 -1</clus>
<clus scale="   90.407">  5  6 -1 -1</clus>
<clus scale="   93.203">  7  8 -1 -1</clus>
<clus scale="  147.215">  1  5  2 -1</clus>
<clus scale="   61.740">  2  5  1 -1</clus>
</clustering>
</event>
<event>
 9    1  0.2423659E-006  0.1028889E+03  0.7546771E-02  0.1274493E+00
         -1   -1    0    0    0  501 -0.00000000000E+00  0.00000000000E+00  0.20798849182E+03  0.20798849182E+03  0.00000000000E+00 0.  1.
          1   -1    0    0  502    0  0.00000000000E+00 -0.00000000000E+00 -0.87033970418E+02  0.87033970418E+02  0.00000000000E+00 0. -1.
         23    2    1    2    0    0 -0.52830631920E+02 -0.18804497585E+02  0.13066422829E+03  0.16875983661E+03  0.90895858528E+02 0.  0.
         23    2    1    2    0    0  0.25017209733E+02  0.54019293079E+01 -0.39115335398E+01  0.94848709855E+02  0.91246567296E+02 0.  0.
        -13    1    3    3    0    0 -0.29147406757E+02  0.20002463754E+02  0.57315545604E+01  0.35812296695E+02  0.00000000000E+00 0. -1.
         13    1    3    3    0    0 -0.23683225163E+02 -0.38806961339E+02  0.12493267373E+03  0.13294753991E+03  0.00000000000E+00 0.  1.
        -13    1    4    4    0    0  0.45712131904E+01 -0.35461590721E+02  0.22331258704E+02  0.42155729406E+02  0.00000000000E+00 0.  1.
         13    1    4    4    0    0  0.20445996543E+02  0.40863520029E+02 -0.26242792244E+02  0.52692980448E+02  0.00000000000E+00 0. -1.
         21    1    1    2  502  501  0.27813422187E+02  0.13402568277E+02 -0.57981733517E+01  0.31413915776E+02  0.00000000000E+00 0. -1.
<scales pt_clust_5="13000.00000" pt_clust_6="13000.00000" pt_clust_7="13000.00000" pt_clust_8="13000.00000" pt_clust_9="30.87418"></scales>
<clustering>
<clus scale="   30.874">  2  9  1 -1</clus>
<clus scale="   90.896">  5  6 -1 -1</clus>
<clus scale="   91.247">  7  8 -1 -1</clus>
<clus scale="  102.578">  1  5  2 -1</clus>
<clus scale="   30.874">  2  5  1 -1</clus>
</clustering>
</event>
<event>
 9    1  0.2423659E-006  0.1205420E+03  0.7546771E-02  0.1242414E+00
          2   -1    0    0  502    0  0.00000000000E+00  0.00000000000E+00  0.62010269154E+03  0.62010269154E+03  0.00000000000E+00 0. -1.
         -2   -1    0    0    0  501 -0.00000000000E+00 -0.00000000000E+00 -0.78470955912E+02  0.78470955912E+02  0.00000000000E+00 0.  1.
         23    2    1    2    0    0 -0.23038797887E+02 -0.40463664136E+02 -0.15243935739E+01  0.10293105907E+03  0.91784447608E+02 0.  0.
         23    2    1    2    0    0  0.83037869385E+02  0.17329062156E+02  0.50660345005E+03  0.52167504994E+03  0.91116507726E+02 0.  0.
        -11    1    4    4    0    0  0.52873151595E+01 -0.26401682869E+02  0.53725661856E+02  0.60095351748E+02  0.00000000000E+00 0.  1.
         11    1    4    4    0    0  0.77750554226E+02  0.43730745025E+02  0.45287778820E+03  0.46157969820E+03  0.00000000000E+00 0. -1.
        -13    1    3    3    0    0 -0.40105986431E+02  0.39092654641E+01  0.26038575353E+02  0.47976868494E+02  0.00000000000E+00 0.  1.
         13    1    3    3    0    0  0.17067188545E+02 -0.44372929600E+02 -0.27562968927E+02  0.54954190579E+02  0.00000000000E+00 0. -1.
         21    1    1    2  502  501 -0.59999071498E+02  0.23134601980E+02  0.36552679151E+02  0.73967538438E+02  0.00000000000E+00 0.  1.
<scales pt_clust_5="13000.00000" pt_clust_6="13000.00000" pt_clust_7="13000.00000" pt_clust_8="13000.00000" pt_clust_9="64.30473"></scales>
<clustering>
<clus scale="   64.305">  2  9  1 -1</clus>
<clus scale="   91.117">  5  6 -1 -1</clus>
<clus scale="   91.784">  7  8 -1 -1</clus>
<clus scale="  120.034">  1  5  2 -1</clus>
<clus scale="  120.034">  1  5  2 -1</clus>
</clustering>
</event>
<event>
 9    1  0.2423659E-006  0.1233503E+03  0.7546771E-02  0.1237759E+00
         -1   -1    0    0    0  501 -0.00000000000E+00  0.00000000000E+00  0.96967454507E+02  0.96967454507E+02  0.00000000000E+00 0.  1.
          1   -1    0    0  502    0  0.00000000000E+00 -0.00000000000E+00 -0.74522568452E+03  0.74522568452E+03  0.00000000000E+00 0. -1.
         23    2    1    2    0    0  0.69894226136E+02  0.55519457959E+02  0.41600701488E+02  0.13434907781E+03  0.91386231377E+02 0.  0.
         23    2    1    2    0    0 -0.23748232076E+02 -0.25943265506E+02 -0.34092445810E+03  0.35463099428E+03  0.91085808004E+02 0.  0.
        -11    1    4    4    0    0 -0.57497100692E+02 -0.46532987510E+01 -0.19578089337E+03  0.20410224885E+03  0.00000000000E+00 0. -1.
         11    1    4    4    0    0  0.33748868615E+02 -0.21289966755E+02 -0.14514356473E+03  0.15052874543E+03  0.00000000000E+00 0.  1.
        -13    1    3    3    0    0  0.55369632230E+02  0.79312738680E+02  0.19263676698E+02  0.98627561717E+02  0.00000000000E+00 0.  1.
         13    1    3    3    0    0  0.14524593906E+02 -0.23793280722E+02  0.22337024790E+02  0.35721516095E+02  0.00000000000E+00 0. -1.
         21    1    1    2  502  501 -0.46145994060E+02 -0.29576192453E+02 -0.34893447340E+03  0.35321306693E+03  0.00000000000E+00 0. -1.
<scales pt_clust_5="13000.00000" pt_clust_6="13000.00000" pt_clust_7="13000.00000" pt_clust_8="13000.00000" pt_clust_9="54.81062"></scales>
<clustering>
<clus scale="   54.811">  2  9  1 -1</clus>
<clus scale="   91.086">  5  6 -1 -1</clus>
<clus scale="   91.386">  7  8 -1 -1</clus>
<clus scale="  123.128">  2  5  1 -1</clus>
<clus scale="   54.811">  2  5  1 -1</clus>
</clustering>
</event>
<event>
 9    1  0.2423659E-006  0.1148193E+03  0.7546771E-02  0.1252000E+00
         -2   -1    0    0    0  501 -0.00000000000E+00  0.00000000000E+00  0.43618238438E+02  0.43618238438E+02  0.00000000000E+00 0.  1.
          2   -1    0    0  502    0  0.00000000000E+00 -0.00000000000E+00 -0.44912764105E+03  0.44912764105E+03  0.00000000000E+00 0. -1.
         23    2    1    2    0    0 -0.49361174949E+02  0.12633241418E+02 -0.73211634294E+02  0.12774673943E+03  0.91450323445E+02 0.  0.
         23    2    1    2    0    0  0.71695454949E+02 -0.29382445915E+02 -0.29558234795E+03  0.31887563188E+03  0.91154691567E+02 0.  0.
        -13    1    3    3    0    0 -0.43570172251E+02  0.46001364460E+02 -0.23463419766E+02  0.67564913300E+02  0.00000000000E+00 0.  1.
         13    1    3    3    0    0 -0.57910026980E+01 -0.33368123042E+02 -0.49748214528E+02  0.60181826130E+02  0.00000000000E+00 0. -1.
        -13    1    4    4    0    0  0.32648290198E+02 -0.57102837255E+02 -0.11960265796E+03  0.13649703538E+03  0.00000000000E+00 0.  1.
         13    1    4    4    0    0  0.39047164751E+02  0.27720391340E+02 -0.17597968999E+03  0.18237859650E+03  0.00000000000E+00 0. -1.
         21    1    1    2  502  501 -0.22334280000E+02  0.16749204497E+02 -0.36715420370E+02  0.46123508186E+02  0.00000000000E+00 0. -1.
<scales pt_clust_5="13000.00000" pt_clust_6="13000.00000" pt_clust_7="13000.00000" pt_clust_8="13000.00000" pt_clust_9="27.91695"></scales>
<clustering>
<clus scale="   27.917">  1  9  2 -1</clus>
<clus scale="   91.155">  7  8 -1 -1</clus>
<clus scale="   91.450">  5  6 -1 -1</clus>
<clus scale="  114.584">  2  7  1 -1</clus>
<clus scale="  114.584">  2  5  1 -1</clus>
</clustering>
</event>
<event>
 9    1  0.2423659E-006  0.1113258E+03  0.7546771E-02  0.1263119E+00
         -1   -1    0    0    0  501 -0.00000000000E+00  0.00000000000E+00  0.25901911409E+03  0.25901911409E+03  0.00000000000E+00 0.  1.
          1   -1    0    0  502    0  0.00000000000E+00 -0.00000000000E+00 -0.92365898844E+02  0.92365898844E+02  0.00000000000E+00 0. -1.
         23    2    1    2    0    0  0.32701241828E+02 -0.76567765907E+02  0.11146691569E+03  0.17070598450E+03  0.98912415096E+02 0.  0.
         23    2    1    2    0    0 -0.46344334467E+02  0.92094012940E+01  0.12673499242E+02  0.99866767904E+02  0.87064018626E+02 0.  0.
        -13    1    4    4    0    0 -0.51747226294E+02  0.41457081460E+02  0.10069461067E+02  0.67066079939E+02  0.00000000000E+00 0. -1.
         13    1    4    4    0    0  0.54028918270E+01 -0.32247680166E+02  0.26040381753E+01  0.32800687965E+02  0.00000000000E+00 0.  1.
        -13    1    3    3    0    0 -0.23919428294E+02  0.78155564928E+01  0.99280458605E+01  0.27051581614E+02  0.00000000000E+00 0. -1.
         13    1    3    3    0    0  0.56620670123E+02 -0.84383322399E+02  0.10153886983E+03  0.14365440289E+03  0.00000000000E+00 0.  1.
         21    1    1    2  502  501  0.13643092638E+02  0.67358364613E+02  0.42512800315E+02  0.80812260522E+02  0.00000000000E+00 0. -1.
<scales pt_clust_5="13000.00000" pt_clust_6="13000.00000" pt_clust_7="13000.00000" pt_clust_8="13000.00000" pt_clust_9="68.72615"></scales>
<clustering>
<clus scale="   68.726">  1  9  2 -1</clus>
<clus scale="   87.064">  5  6 -1 -1</clus>
<clus scale="   98.912">  7  8 -1 -1</clus>
<clus scale="  100.945">  2  5  1 -1</clus>
<clus scale="  100.945">  2  5  1 -1</clus>
</clustering>
</event>
<event>
 9    1  0.2423659E-006  0.1049769E+03  0.7546771E-02  0.1270676E+00
          1   -1    0    0  502    0  0.00000000000E+00  0.00000000000E+00  0.28083187358E+03  0.28083187358E+03  0.00000000000E+00 0. -1.
         -1   -1    0    0    0  501 -0.00000000000E+00 -0.00000000000E+00 -0.11576767036E+03  0.11576767036E+03  0.00000000000E+00 0.  1.
         23    2    1    2    0    0  0.13989288456E+02  0.69283627609E+02 -0.11514213130E+02  0.11562036128E+03  0.90772074963E+02 0.  0.
         23    2    1    2    0    0  0.67437997114E+02 -0.30285043102E+01  0.97147370146E+02  0.14933786961E+03  0.91143471954E+02 0.  0.
        -11    1    3    3    0    0 -0.36459531997E+02  0.11981719810E+02 -0.79459635052E+01  0.39191802957E+02  0.00000000000E+00 0. -1.
         11    1    3    3    0    0  0.50448820452E+02  0.57301907798E+02 -0.35682496248E+01  0.76428558326E+02  0.00000000000E+00 0.  1.
        -11    1    4    4    0    0  0.80627150822E+02 -0.19296315247E+02  0.98018332887E+02  0.12837709614E+03  0.00000000000E+00 0. -1.
         11    1    4    4    0    0 -0.13189153708E+02  0.16267810937E+02 -0.87096274131E+00  0.20960773467E+02  0.00000000000E+00 0.  1.
         21    1    1    2  502  501 -0.81427285570E+02 -0.66255123298E+02  0.79431046210E+02  0.13164131305E+03  0.00000000000E+00 0. -1.
<scales pt_clust_5="13000.00000" pt_clust_6="13000.00000" pt_clust_7="13000.00000" pt_clust_8="13000.00000" pt_clust_9="104.97687"></scales>
<clustering>
<clus scale="   90.772">  5  6 -1 -1</clus>
<clus scale="   91.143">  7  8 -1 -1</clus>
<clus scale="  104.977">  1  9  2 -1</clus>
<clus scale="  103.945">  2  5  1 -1</clus>
<clus scale="  104.977">  1  5  2 -1</clus>
</clustering>
</event>
<event>
 9    1  0.2423659E-006  0.2178640E+03  0.7546771E-02  0.1155924E+00
          1   -1    0    0  502    0  0.00000000000E+00  0.00000000000E+00  0.57376809864E+03  0.57376809864E+03  0.00000000000E+00 0. -1.
         -1   -1    0    0    0  501 -0.00000000000E+00 -0.00000000000E+00 -0.20289055771E+03  0.20289055771E+03  0.00000000000E+00 0.  1.
         23    2    1    2    0    0 -0.80774902066E+02 -0.54431171775E+02  0.69902033937E+02  0.15090088617E+03  0.91637578723E+02 0.  0.
         23    2    1    2    0    0  0.25601370556E+03  0.10414867157E+03  0.21275802171E+02  0.29197282007E+03  0.91681539467E+02 0.  0.
        -11    1    4    4    0    0  0.12186355238E+03  0.98760987659E+02  0.14879675833E+02  0.15756225067E+03  0.00000000000E+00 0. -1.
         11    1    4    4    0    0  0.13415015318E+03  0.53876839096E+01  0.63961263384E+01  0.13441056941E+03  0.00000000000E+00 0.  1.
        -13    1    3    3    0    0 -0.60776719450E+02  0.40625451880E+01  0.64704449729E+02  0.88864952120E+02  0.00000000000E+00 0. -1.
         13    1    3    3    0    0 -0.19998182617E+02 -0.58493716963E+02  0.51975842081E+01  0.62035934052E+02  0.00000000000E+00 0.  1.
         21    1    1    2  502  501 -0.17523880349E+03 -0.49717499794E+02  0.27969970482E+03  0.33378495010E+03  0.00000000000E+00 0. -1.
<scales pt_clust_5="13000.00000" pt_clust_6="13000.00000" pt_clust_7="13000.00000" pt_clust_8="13000.00000" pt_clust_9="197.63411"></scales>
<clustering>
<clus scale="   91.638">  7  8 -1 -1</clus>
<clus scale="   91.682">  5  6 -1 -1</clus>
<clus scale="  133.734">  2  7  1 -1</clus>
<clus scale="  197.634">  1  9  2 -1</clus>
<clus scale="  197.634">  1  5  2 -1</clus>
</clustering>
</event>
<event>
 9    1  0.2423659E-006  0.1053873E+03  0.7546771E-02  0.1269918E+00
          2   -1    0    0  502    0  0.00000000000E+00  0.00000000000E+00  0.45665518098E+03  0.45665518098E+03  0.00000000000E+00 0. -1.
         -2   -1    0    0    0  501 -0.00000000000E+00 -0.00000000000E+00 -0.69289832303E+02  0.69289832303E+02  0.00000000000E+00 0.  1.
         23    2    1    2    0    0  0.54020925937E+01 -0.58747717159E+02  0.16715884120E+03  0.19936325404E+03  0.91231310388E+02 0.  0.
         23    2    1    2    0    0 -0.38557898281E+02  0.38027498632E+02  0.25404380296E+03  0.27487491761E+03  0.89917541871E+02 0.  0.
        -11    1    3    3    0    0 -0.29779066873E+02  0.52467725673E+01  0.23817775344E+02  0.38491659727E+02  0.00000000000E+00 0.  1.
         11    1    3    3    0    0  0.35181159467E+02 -0.63994489727E+02  0.14334106585E+03  0.16087159431E+03  0.00000000000E+00 0. -1.
        -13    1    4    4    0    0  0.52424484195E+01  0.37544028429E+02  0.35334882606E+02  0.51822690637E+02  0.00000000000E+00 0.  1.
         13    1    4    4    0    0 -0.43800346700E+02  0.48347020277E+00  0.21870892035E+03  0.22305222697E+03  0.00000000000E+00 0. -1.
         21    1    1    2  502  501  0.33155805687E+02  0.20720218527E+02 -0.33837295479E+02  0.51706841636E+02  0.00000000000E+00 0.  1.
<scales pt_clust_5="13000.00000" pt_clust_6="13000.00000" pt_clust_7="13000.00000" pt_clust_8="13000.00000" pt_clust_9="39.09776"></scales>
<clustering>
<clus scale="   39.098">  2  9  1 -1</clus>
<clus scale="   89.918">  7  8 -1 -1</clus>
<clus scale="   91.231">  5  6 -1 -1</clus>
<clus scale="  104.252">  1  7  2 -1</clus>
<clus scale="  104.252">  1  5  2 -1</clus>
</clustering>
</event>
<event>
 9    1  0.2423659E-006  0.1060936E+03  0.7546771E-02  0.1274848E+00
          1   -1    0    0  502    0  0.00000000000E+00  0.00000000000E+00  0.32408691745E+02  0.32408691745E+02  0.00000000000E+00 0. -1.
         -1   -1    0    0    0  501 -0.00000000000E+00 -0.00000000000E+00 -0.51369335533E+03  0.51369335533E+03  0.00000000000E+00 0.  1.
         23    2    1    2    0    0 -0.32916825663E+02 -0.36355974064E+02 -0.21020843950E+03  0.23304107830E+03  0.87836677279E+02 0.  0.
         23    2    1    2    0    0  0.96577888984E+01  0.74298994715E+02 -0.23121554989E+03  0.25331543376E+03  0.71375520786E+02 0.  0.
        -11    1    3    3    0    0  0.14478568100E+01 -0.54395909473E+02 -0.16346905177E+03  0.17228796286E+03  0.00000000000E+00 0.  1.
         11    1    3    3    0    0 -0.34364682473E+02  0.18039935409E+02 -0.46739387724E+02  0.60753115442E+02  0.00000000000E+00 0. -1.
        -13    1    4    4    0    0 -0.12451390225E+02  0.75125434705E+02 -0.13910043032E+03  0.15858057187E+03  0.00000000000E+00 0. -1.
         13    1    4    4    0    0  0.22109179123E+02 -0.82643999006E+00 -0.92115119564E+02  0.94734861887E+02  0.00000000000E+00 0.  1.
         21    1    1    2  502  501  0.23259036764E+02 -0.37943020651E+02 -0.39860674199E+02  0.59745535021E+02  0.00000000000E+00 0.  1.
<scales pt_clust_5="13000.00000" pt_clust_6="13000.00000" pt_clust_7="13000.00000" pt_clust_8="13000.00000" pt_clust_9="44.50456"></scales>
<clustering>
<clus scale="   44.505">  1  9  2 -1</clus>
<clus scale="   71.376">  7  8 -1 -1</clus>
<clus scale="   87.837">  5  6 -1 -1</clus>
<clus scale="   92.925">  1  7  2 -1</clus>
<clus scale="   44.505">  1  5  2 -1</clus>
</clustering>
</event>
<event>
 9    1  0.2423659E-006  0.1785902E+03  0.7546771E-02  0.1191671E+00
          4   -1    0    0  502    0  0.00000000000E+00  0.00000000000E+00  0.12363310376E+03  0.12363310376E+03  0.00000000000E+00 0. -1.
         -4   -1    0    0    0  501 -0.00000000000E+00 -0.00000000000E+00 -0.42137268479E+03  0.42137268479E+03  0.00000000000E+00 0.  1.
         23    2    1    2    0    0  0.34737925428E+02 -0.39594080883E+02 -0.75641667861E+02  0.13164102092E+03  0.93985540214E+02 0.  0.
         23    2    1    2    0    0 -0.15483007127E+03  0.10564178529E+03 -0.16088417693E+03  0.26325965695E+03  0.91046091746E+02 0.  0.
        -11    1    3    3    0    0  0.63649038356E+02 -0.41420090922E+02 -0.67365604202E+02  0.10151329295E+03  0.00000000000E+00 0. -1.
         11    1    3    3    0    0 -0.28911112928E+02  0.18260100390E+01 -0.82760636591E+01  0.30127727977E+02  0.00000000000E+00 0.  1.
        -11    1    4    4    0    0 -0.15151936629E+03  0.77433153348E+02 -0.16185252465E+03  0.23484090644E+03  0.00000000000E+00 0.  1.
         11    1    4    4    0    0 -0.33107049767E+01  0.28208631937E+02  0.96834772593E+00  0.28418750510E+02  0.00000000000E+00 0. -1.
         21    1    1    2  502  501  0.12009214584E+03 -0.66047704402E+02 -0.61213736243E+02  0.15010511069E+03  0.00000000000E+00 0. -1.
<scales pt_clust_5="13000.00000" pt_clust_6="13000.00000" pt_clust_7="13000.00000" pt_clust_8="13000.00000" pt_clust_9="153.63943"></scales>
<clustering>
<clus scale="   91.046">  7  8 -1 -1</clus>
<clus scale="   93.986">  5  6 -1 -1</clus>
<clus scale="  107.739">  2  5  1 -1</clus>
<clus scale="  153.639">  1  9  2 -1</clus>
<clus scale="  153.639">  1  5  2 -1</clus>
</clustering>
</event>
<event>
 9    1  0.2423659E-006  0.1641496E+03  0.7546771E-02  0.1207585E+00
         -2   -1    0    0    0  501 -0.00000000000E+00  0.00000000000E+00  0.26660550516E+03  0.26660550516E+03  0.00000000000E+00 0.  1.
          2   -1    0    0  502    0  0.00000000000E+00 -0.00000000000E+00 -0.31765808400E+03  0.31765808400E+03  0.00000000000E+00 0. -1.
         23    2    1    2    0    0  0.12433168211E+03 -0.21896747156E+00  0.12579881687E+03  0.19881330125E+03  0.90790810682E+02 0.  0.
         23    2    1    2    0    0  0.35921362450E+02 -0.45697932045E+01 -0.20063783358E+03  0.22337078536E+03  0.91256452914E+02 0.  0.
        -11    1    3    3    0    0  0.99992001911E+02 -0.22566189055E+02  0.12994740499E+03  0.16551121231E+03  0.00000000000E+00 0. -1.
         11    1    3    3    0    0  0.24339680203E+02  0.22347221583E+02 -0.41485881187E+01  0.33302088947E+02  0.00000000000E+00 0.  1.
        -13    1    4    4    0    0  0.58831101069E+02  0.85714010714E+01 -0.78847677825E+02  0.98749803381E+02  0.00000000000E+00 0. -1.
         13    1    4    4    0    0 -0.22909738619E+02 -0.13141194276E+02 -0.12179015576E+03  0.12462098198E+03  0.00000000000E+00 0.  1.
         21    1    1    2  502  501 -0.16025304456E+03  0.47887606761E+01  0.23786437870E+02  0.16207950255E+03  0.00000000000E+00 0.  1.
<scales pt_clust_5="13000.00000" pt_clust_6="13000.00000" pt_clust_7="13000.00000" pt_clust_8="13000.00000" pt_clust_9="136.75565"></scales>
<clustering>
<clus scale="   90.791">  5  6 -1 -1</clus>
<clus scale="   91.256">  7  8 -1 -1</clus>
<clus scale="   98.178">  2  7  1 -1</clus>
<clus scale="  136.756">  2  9  1 -1</clus>
<clus scale="   98.178">  2  5  1 -1</clus>
</clustering>
</event>
<event>
 9    1  0.2423659E-006  0.9778431E+02  0.7546771E-02  0.1289905E+00
          1   -1    0    0  502    0  0.00000000000E+00  0.00000000000E+00  0.57807842808E+03  0.57807842808E+03  0.00000000000E+00 0. -1.
         -1   -1    0    0    0  501 -0.00000000000E+00 -0.00000000000E+00 -0.24982518870E+02  0.24982518870E+02  0.00000000000E+00 0.  1.
         23    2    1    2    0    0  0.82776240515E+01  0.14296799780E+02  0.16820658392E+03  0.19510712944E+03  0.97470095621E+02 0.  0.
         23    2    1    2    0    0  0.22341625580E+02  0.52210403250E+01  0.20758659758E+03  0.22697110622E+03  0.88866642058E+02 0.  0.
        -13    1    4    4    0    0  0.36641498856E+02 -0.12033461330E+02  0.19942694704E+03  0.20312191127E+03  0.00000000000E+00 0. -1.
         13    1    4    4    0    0 -0.14299873277E+02  0.17254501655E+02  0.81596505308E+01  0.23849194952E+02  0.00000000000E+00 0.  1.
        -13    1    3    3    0    0  0.44809372991E+02 -0.16227390882E+02  0.11022230321E+03  0.12008398830E+03  0.00000000000E+00 0. -1.
         13    1    3    3    0    0 -0.36531748939E+02  0.30524190662E+02  0.57984280710E+02  0.75023141133E+02  0.00000000000E+00 0.  1.
         21    1    1    2  502  501 -0.30619249631E+02 -0.19517840105E+02  0.17730272772E+03  0.18098271129E+03  0.00000000000E+00 0.  1.
<scales pt_clust_5="13000.00000" pt_clust_6="13000.00000" pt_clust_7="13000.00000" pt_clust_8="13000.00000" pt_clust_9="36.31094"></scales>
<clustering>
<clus scale="   36.311">  1  9  2 -1</clus>
<clus scale="   88.867">  5  6 -1 -1</clus>
<clus scale="   89.211">  1  5  2 -1</clus>
<clus scale="   97.470">  7  8 -1 -1</clus>
<clus scale="   36.311">  1  5  2 -1</clus>
</clustering>
</event>
<event>
 9    1  0.2423659E-006  0.1551253E+03  0.7546771E-02  0.1217255E+00
          1   -1    0    0  502    0  0.00000000000E+00  0.00000000000E+00  0.32655753507E+03  0.32655753507E+03  0.00000000000E+00 0. -1.
         -1   -1    0    0    0  501 -0.00000000000E+00 -0.00000000000E+00 -0.14353386353E+03  0.14353386353E+03  0.00000000000E+00 0.  1.
         23    2    1    2    0    0  0.93166931703E+01  0.16703654797E+02 -0.47479534078E+02  0.10594201633E+03  0.92755548685E+02 0.  0.
         23    2    1    2    0    0  0.17001939205E+02  0.11262646060E+03  0.92993801684E+02  0.17355088981E+03  0.92186108701E+02 0.  0.
        -11    1    3    3    0    0 -0.30708948883E+02  0.37146324138E+02 -0.14952142028E+02  0.50462416606E+02  0.00000000000E+00 0.  1.
         11    1    3    3    0    0  0.40025642054E+02 -0.20442669341E+02 -0.32527392050E+02  0.55479599721E+02  0.00000000000E+00 0. -1.
        -13    1    4    4    0    0  0.43134501018E+02  0.18868415902E+02  0.44600753666E+02  0.64852367145E+02  0.00000000000E+00 0.  1.
         13    1    4    4    0    0 -0.26132561814E+02  0.93758044699E+02  0.48393048017E+02  0.10869852266E+03  0.00000000000E+00 0. -1.
         21    1    1    2  502  501 -0.26318632375E+02 -0.12933011540E+03  0.13750940394E+03  0.19059849247E+03  0.00000000000E+00 0.  1.
<scales pt_clust_5="13000.00000" pt_clust_6="13000.00000" pt_clust_7="13000.00000" pt_clust_8="13000.00000" pt_clust_9="124.76209"></scales>
<clustering>
<clus scale="   92.186">  7  8 -1 -1</clus>
<clus scale="   92.756">  5  6 -1 -1</clus>
<clus scale="   94.707">  2  5  1 -1</clus>
<clus scale="  124.762">  1  9  2 -1</clus>
<clus scale="  124.762">  1  5  2 -1</clus>
</clustering>
</event>
<event>
 9    1  0.2423659E-006  0.1056787E+03  0.7546771E-02  0.1269560E+00
          1   -1    0    0  502    0  0.00000000000E+00  0.00000000000E+00  0.15707510079E+03  0.15707510079E+03  0.00000000000E+00 0. -1.
         -1   -1    0    0    0  501 -0.00000000000E+00 -0.00000000000E+00 -0.27706420745E+03  0.27706420745E+03  0.00000000000E+00 0.  1.
         23    2    1    2    0    0  0.65297604614E+02  0.44249752849E+01 -0.68595037638E+02  0.13351429995E+03  0.94007614200E+02 0.  0.
         23    2    1    2    0    0 -0.57103311107E+01 -0.55074969241E+02  0.89193307849E+02  0.13974966654E+03  0.92242414399E+02 0.  0.
        -11    1    4    4    0    0  0.46707765287E+01  0.24684035008E+02  0.10511238615E+02  0.27232404868E+02  0.00000000000E+00 0.  1.
         11    1    4    4    0    0 -0.10381107639E+02 -0.79759004250E+02  0.78682069235E+02  0.11251726167E+03  0.00000000000E+00 0. -1.
        -13    1    3    3    0    0  0.89177442946E+02  0.79732173259E+01 -0.46982479449E+02  0.10111153198E+03  0.00000000000E+00 0.  1.
         13    1    3    3    0    0 -0.23879838332E+02 -0.35482420410E+01 -0.21612558189E+02  0.32402767965E+02  0.00000000000E+00 0. -1.
         21    1    1    2  502  501 -0.59587273503E+02  0.50649993956E+02 -0.14058737687E+03  0.16087534176E+03  0.00000000000E+00 0.  1.
<scales pt_clust_5="13000.00000" pt_clust_6="13000.00000" pt_clust_7="13000.00000" pt_clust_8="13000.00000" pt_clust_9="78.20528"></scales>
<clustering>
<clus scale="   78.205">  2  9  1 -1</clus>
<clus scale="   92.242">  5  6 -1 -1</clus>
<clus scale="   94.008">  7  8 -1 -1</clus>
<clus scale="  104.112">  1  5  2 -1</clus>
<clus scale="  104.112">  1  5  2 -1</clus>
</clustering>
</event>
<event>
 9    1  0.2423659E-006  0.1665809E+03  0.7546771E-02  0.1192295E+00
         -2   -1    0    0    0  501 -0.00000000000E+00  0.00000000000E+00  0.10317821761E+03  0.10317821761E+03  0.00000000000E+00 0.  1.
          2   -1    0    0  502    0  0.00000000000E+00 -0.00000000000E+00 -0.10321660815E+04  0.10321660815E+04  0.00000000000E+00 0. -1.
         23    2    1    2    0    0 -0.30949880641E+02  0.89642155627E+02  0.20914657967E+02  0.13261001035E+03  0.90301609904E+02 0.  0.
         23    2    1    2    0    0  0.74596196120E+02  0.79029101572E+02 -0.33105942939E+03  0.35983323342E+03  0.89829943298E+02 0.  0.
        -13    1    4    4    0    0  0.74005501558E+02  0.31460823904E+02 -0.12712669718E+03  0.15042537963E+03  0.00000000000E+00 0.  1.
         13    1    4    4    0    0  0.59069456181E+00  0.47568277668E+02 -0.20393273221E+03  0.20940785379E+03  0.00000000000E+00 0. -1.
        -13    1    3    3    0    0  0.30959375322E+02  0.23237233583E+02 -0.26928034079E+01  0.38803390768E+02  0.00000000000E+00 0.  1.
         13    1    3    3    0    0 -0.61909255964E+02  0.66404922044E+02  0.23607461375E+02  0.93806619586E+02  0.00000000000E+00 0. -1.
         21    1    1    2  502  501 -0.43646315479E+02 -0.16867125720E+03 -0.61884309249E+03  0.64290105536E+03  0.00000000000E+00 0. -1.
<scales pt_clust_5="13000.00000" pt_clust_6="13000.00000" pt_clust_7="13000.00000" pt_clust_8="13000.00000" pt_clust_9="140.28461"></scales>
<clustering>
<clus scale="   89.830">  5  6 -1 -1</clus>
<clus scale="   90.302">  7  8 -1 -1</clus>
<clus scale="  130.950">  1  7  2 -1</clus>
<clus scale="  140.285">  2  9  1 -1</clus>
<clus scale="  140.285">  2  5  1 -1</clus>
</clustering>
</event>
<event>
 9    1  0.2423659E-006  0.9466572E+02  0.7546771E-02  0.1312888E+00
          1   -1    0    0  502    0  0.00000000000E+00  0.00000000000E+00  0.19784323315E+03  0.19784323315E+03  0.00000000000E+00 0. -1.
         -1   -1    0    0    0  501 -0.00000000000E+00 -0.00000000000E+00 -0.11221172459E+03  0.11221172459E+03  0.00000000000E+00 0.  1.
         23    2    1    2    0    0 -0.45512399719E+01 -0.25605684012E+01  0.20567201863E+02  0.93091751523E+02  0.90641017830E+02 0.  0.
         23    2    1    2    0    0 -0.23647353567E+02 -0.25698181259E+02  0.12654565072E+03  0.14365786348E+03  0.58345404063E+02 0.  0.
        -11    1    4    4    0    0 -0.42866096034E+02 -0.12419112685E+02  0.84196287802E+02  0.95292976807E+02  0.00000000000E+00 0. -1.
         11    1    4    4    0    0  0.19218742467E+02 -0.13279068574E+02  0.42349362913E+02  0.48364886678E+02  0.00000000000E+00 0.  1.
        -11    1    3    3    0    0  0.14968544088E+02  0.33046903970E+02 -0.14858746597E+02  0.39203794772E+02  0.00000000000E+00 0.  1.
         11    1    3    3    0    0 -0.19519784060E+02 -0.35607472371E+02  0.35425948460E+02  0.53887956750E+02  0.00000000000E+00 0. -1.
         21    1    1    2  502  501  0.28198593538E+02  0.28258749660E+02 -0.61481344027E+02  0.73305342733E+02  0.00000000000E+00 0.  1.
<scales pt_clust_5="13000.00000" pt_clust_6="13000.00000" pt_clust_7="13000.00000" pt_clust_8="13000.00000" pt_clust_9="39.92139"></scales>
<clustering>
<clus scale="   39.921">  2  9  1 -1</clus>
<clus scale="   58.345">  5  6 -1 -1</clus>
<clus scale="   64.420">  1  5  2 -1</clus>
<clus scale="   90.641">  7  8 -1 -1</clus>
<clus scale="   64.420">  1  5  2 -1</clus>
</clustering>
</event>
<event>
 9    1  0.2423659E-006  0.1765088E+03  0.7546771E-02  0.1184431E+00
         -1   -1    0    0    0  501 -0.00000000000E+00  0.00000000000E+00  0.11627967546E+03  0.11627967546E+03  0.00000000000E+00 0.  1.
          1   -1    0    0  502    0  0.00000000000E+00 -0.00000000000E+00 -0.56784038047E+03  0.56784038047E+03  0.00000000000E+00 0. -1.
         23    2    1    2    0    0  0.66420926230E+02 -0.67702219267E+02 -0.29990396435E+03  0.32756382456E+03  0.91434902503E+02 0.  0.
         23    2    1    2    0    0  0.84317266109E+02 -0.91911852809E+01 -0.13235611689E+03  0.18624148635E+03  0.99869266087E+02 0.  0.
        -11    1    4    4    0    0  0.23750960803E+02  0.38908421341E+02 -0.19859770070E+02  0.49723071683E+02  0.00000000000E+00 0.  1.
         11    1    4    4    0    0  0.60566305306E+02 -0.48099606622E+02 -0.11249634682E+03  0.13651841467E+03  0.00000000000E+00 0. -1.
        -11    1    3    3    0    0  0.22866310422E+01 -0.58322700715E+02 -0.85093580909E+02  0.10318761366E+03  0.00000000000E+00 0. -1.
         11    1    3    3    0    0  0.64134295188E+02 -0.93795185523E+01 -0.21481038344E+03  0.22437621091E+03  0.00000000000E+00 0.  1.
         21    1    1    2  502  501 -0.15073819234E+03  0.76893404548E+02 -0.19300623768E+02  0.17031474502E+03  0.00000000000E+00 0.  1.
<scales pt_clust_5="13000.00000" pt_clust_6="13000.00000" pt_clust_7="13000.00000" pt_clust_8="13000.00000" pt_clust_9="150.98018"></scales>
<clustering>
<clus scale="   91.435">  7  8 -1 -1</clus>
<clus scale="   99.869">  5  6 -1 -1</clus>
<clus scale="  131.026">  2  5  1 -1</clus>
<clus scale="  150.980">  1  9  2 -1</clus>
<clus scale="  131.026">  2  5  1 -1</clus>
</clustering>
</event>
<event>
 9    1  0.2423659E-006  0.9642945E+02  0.7546771E-02  0.1289435E+00
          2   -1    0    0  502    0  0.00000000000E+00  0.00000000000E+00  0.71359726389E+03  0.71359726389E+03  0.00000000000E+00 0. -1.
         -2   -1    0    0    0  501 -0.00000000000E+00 -0.00000000000E+00 -0.71363467453E+02  0.71363467453E+02  0.00000000000E+00 0.  1.
         23    2    1    2    0    0  0.96912376396E+01  0.45955041677E+02  0.10093393356E+02  0.10247360991E+03  0.90516176435E+02 0.  0.
         23    2    1    2    0    0  0.28728547818E+02  0.16400959740E+02  0.84801474171E+02  0.13026954300E+03  0.93190894792E+02 0.  0.
        -13    1    3    3    0    0 -0.33582193106E+02  0.38851832754E+01  0.22828054425E+02  0.40791891494E+02  0.00000000000E+00 0. -1.
         13    1    3    3    0    0  0.43273430745E+02  0.42069858401E+02 -0.12734661068E+02  0.61681718417E+02  0.00000000000E+00 0.  1.
        -13    1    4    4    0    0  0.16699858440E+02  0.34322569267E+02  0.97861460217E+02  0.10504184608E+03  0.00000000000E+00 0.  1.
         13    1    4    4    0    0  0.12028689378E+02 -0.17921609528E+02 -0.13059986046E+02  0.25227696917E+02  0.00000000000E+00 0. -1.
         21    1    1    2  502  501 -0.38419785458E+02 -0.62356001416E+02  0.54733892891E+03  0.55221757843E+03  0.00000000000E+00 0. -1.
<scales pt_clust_5="13000.00000" pt_clust_6="13000.00000" pt_clust_7="13000.00000" pt_clust_8="13000.00000" pt_clust_9="73.24173"></scales>
<clustering>
<clus scale="   73.242">  1  9  2 -1</clus>
<clus scale="   90.516">  5  6 -1 -1</clus>
<clus scale="   93.191">  7  8 -1 -1</clus>
<clus scale="   93.847">  2  5  1 -1</clus>
<clus scale="   73.242">  1  5  2 -1</clus>
</clustering>
</event>
<event>
 9    1  0.2423659E-006  0.1847492E+03  0.7546771E-02  0.1177326E+00
          2   -1    0    0  502    0  0.00000000000E+00  0.00000000000E+00  0.52349533597E+03  0.52349533597E+03  0.00000000000E+00 0. -1.
         -2   -1    0    0    0  501 -0.00000000000E+00 -0.00000000000E+00 -0.14405756914E+03  0.14405756914E+03  0.00000000000E+00 0.  1.
         23    2    1    2    0    0  0.90648811516E+02  0.37864602940E+02 -0.10271644769E+02  0.13441071110E+03  0.91158090086E+02 0.  0.
         23    2    1    2    0    0  0.10149999911E+03 -0.49267853229E+02  0.74244069635E+02  0.16358897520E+03  0.92301677941E+02 0.  0.
        -11    1    3    3    0    0  0.89270844474E+02 -0.49337924942E+01  0.33674033071E+01  0.89470472149E+02  0.00000000000E+00 0.  1.
         11    1    3    3    0    0  0.13779670422E+01  0.42798395434E+02 -0.13639048076E+02  0.44940238955E+02  0.00000000000E+00 0. -1.
        -11    1    4    4    0    0  0.83933403582E+01  0.20164651087E+02  0.34498309279E+02  0.40831295093E+02  0.00000000000E+00 0. -1.
         11    1    4    4    0    0  0.93106658755E+02 -0.69432504316E+02  0.39745760356E+02  0.12275768011E+03  0.00000000000E+00 0.  1.
         21    1    1    2  502  501 -0.19214881063E+03  0.11403250288E+02  0.31546534197E+03  0.36955321880E+03  0.00000000000E+00 0. -1.
<scales pt_clust_5="13000.00000" pt_clust_6="13000.00000" pt_clust_7="13000.00000" pt_clust_8="13000.00000" pt_clust_9="160.03958"></scales>
<clustering>
<clus scale="   91.158">  5  6 -1 -1</clus>
<clus scale="   92.302">  7  8 -1 -1</clus>
<clus scale="  134.018">  2  5  1 -1</clus>
<clus scale="  160.040">  1  9  2 -1</clus>
<clus scale="  160.040">  1  5  2 -1</clus>
</clustering>
</event>
<event>
 9    1  0.2423659E-006  0.9724287E+02  0.7546771E-02  0.1287708E+00
         -1   -1    0    0    0  501 -0.00000000000E+00  0.00000000000E+00  0.52041441003E+03  0.52041441003E+03  0.00000000000E+00 0.  1.
          1   -1    0    0  502    0  0.00000000000E+00 -0.00000000000E+00 -0.22991187913E+02  0.22991187913E+02  0.00000000000E+00 0. -1.
         23    2    1    2    0    0 -0.13275679076E+02 -0.30938556342E+02  0.28666654052E+03  0.30352178191E+03  0.93884656467E+02 0.  0.
         23    2    1    2    0    0  0.11694852472E+02  0.10487021007E+02  0.18631537321E+03  0.20797548066E+03  0.91069397041E+02 0.  0.
        -11    1    3    3    0    0  0.12842095612E+02  0.30331655561E+02  0.10398882705E+03  0.10908072653E+03  0.00000000000E+00 0. -1.
         11    1    3    3    0    0 -0.26117774688E+02 -0.61270211903E+02  0.18267771346E+03  0.19444105538E+03  0.00000000000E+00 0.  1.
        -13    1    4    4    0    0  0.37637988723E+02 -0.43432563802E+01  0.16950733736E+03  0.17369000976E+03  0.00000000000E+00 0.  1.
         13    1    4    4    0    0 -0.25943136250E+02  0.14830277387E+02  0.16808035853E+02  0.34285470904E+02  0.00000000000E+00 0. -1.
         21    1    1    2  502  501  0.15808266035E+01  0.20451535335E+02  0.24441308385E+02  0.31908335367E+02  0.00000000000E+00 0. -1.
<scales pt_clust_5="13000.00000" pt_clust_6="13000.00000" pt_clust_7="13000.00000" pt_clust_8="13000.00000" pt_clust_9="20.51254"></scales>
<clustering>
<clus scale="   20.513">  2  9  1 -1</clus>
<clus scale="   91.069">  7  8 -1 -1</clus>
<clus scale="   93.885">  5  6 -1 -1</clus>
<clus scale="   94.528">  2  7  1 -1</clus>
<clus scale="   20.513">  2  5  1 -1</clus>
</clustering>
</event>
<event>
 9    1  0.2423659E-006  0.9786264E+02  0.7546771E-02  0.1285625E+00
         -1   -1    0    0    0  501 -0.00000000000E+00  0.00000000000E+00  0.51278422440E+02  0.51278422440E+02  0.00000000000E+00 0.  1.
          1   -1    0    0  502    0  0.00000000000E+00 -0.00000000000E+00 -0.35360935056E+03  0.35360935056E+03  0.00000000000E+00 0. -1.
         23    2    1    2    0    0  0.18798814074E+02  0.24227018699E+01 -0.47514333895E+02  0.10166904959E+03  0.87861930465E+02 0.  0.
         23    2    1    2    0    0 -0.64321557045E+01 -0.56210919904E+02 -0.19482111659E+03  0.22169839481E+03  0.89408448402E+02 0.  0.
        -11    1    4    4    0    0  0.31853794310E+02 -0.24618942770E+02 -0.31844964288E+02  0.51330870883E+02  0.00000000000E+00 0.  1.
         11    1    4    4    0    0 -0.38285950015E+02 -0.31591977134E+02 -0.16297615230E+03  0.17036752392E+03  0.00000000000E+00 0. -1.
        -13    1    3    3    0    0 -0.28774559074E+02  0.44604629953E+01  0.63213974266E+01  0.29796493845E+02  0.00000000000E+00 0. -1.
         13    1    3    3    0    0  0.47573373148E+02 -0.20377611253E+01 -0.53835731322E+02  0.71872555750E+02  0.00000000000E+00 0.  1.
         21    1    1    2  502  501 -0.12366658370E+02  0.53788218034E+02 -0.59995477633E+02  0.81520328599E+02  0.00000000000E+00 0.  1.
<scales pt_clust_5="13000.00000" pt_clust_6="13000.00000" pt_clust_7="13000.00000" pt_clust_8="13000.00000" pt_clust_9="55.19154"></scales>
<clustering>
<clus scale="   55.192">  1  9  2 -1</clus>
<clus scale="   87.862">  7  8 -1 -1</clus>
<clus scale="   89.408">  5  6 -1 -1</clus>
<clus scale="   96.452">  1  7  2 -1</clus>
<clus scale="   97.863">  2  5  1 -1</clus>
</clustering>
</event>
<event>
 9    1  0.2423659E-006  0.1058430E+03  0.7546771E-02  0.1268551E+00
          1   -1    0    0  502    0  0.00000000000E+00  0.00000000000E+00  0.20023328378E+03  0.20023328378E+03  0.00000000000E+00 0. -1.
         -1   -1    0    0    0  501 -0.00000000000E+00 -0.00000000000E+00 -0.17124987437E+03  0.17124987437E+03  0.00000000000E+00 0.  1.
         23    2    1    2    0    0 -0.23092730499E+02  0.38121069619E+02 -0.76551278132E+02  0.12813823151E+03  0.92589513661E+02 0.  0.
         23    2    1    2    0    0  0.76303938311E+02 -0.19777473213E+02 -0.22287349060E+01  0.12176830313E+03  0.92785305616E+02 0.  0.
        -11    1    4    4    0    0  0.66794387219E+02  0.32770210379E+01  0.36133633483E+02  0.76012291766E+02  0.00000000000E+00 0. -1.
         11    1    4    4    0    0  0.95095510927E+01 -0.23054494251E+02 -0.38362368389E+02  0.45756011360E+02  0.00000000000E+00 0.  1.
        -11    1    3    3    0    0 -0.29242553988E+02 -0.22860316273E+02 -0.11726178284E+02  0.38925881891E+02  0.00000000000E+00 0.  1.
         11    1    3    3    0    0  0.61498234890E+01  0.60981385892E+02 -0.64825099848E+02  0.89212349619E+02  0.00000000000E+00 0. -1.
         21    1    1    2  502  501 -0.53211207813E+02 -0.18343596406E+02  0.10776342245E+03  0.12157662351E+03  0.00000000000E+00 0. -1.
<scales pt_clust_5="13000.00000" pt_clust_6="13000.00000" pt_clust_7="13000.00000" pt_clust_8="13000.00000" pt_clust_9="56.28428"></scales>
<clustering>
<clus scale="   56.284">  1  9  2 -1</clus>
<clus scale="   92.590">  7  8 -1 -1</clus>
<clus scale="   92.785">  5  6 -1 -1</clus>
<clus scale="  105.671">  2  7  1 -1</clus>
<clus scale="   56.284">  1  5  2 -1</clus>
</clustering>
</event>
<event>
 9    1  0.2423659E-006  0.1291654E+03  0.7546771E-02  0.1239426E+00
         -2   -1    0    0    0  501 -0.00000000000E+00  0.00000000000E+00  0.24820787662E+03  0.24820787662E+03  0.00000000000E+00 0.  1.
          2   -1    0    0  502    0  0.00000000000E+00 -0.00000000000E+00 -0.57077988889E+03  0.57077988889E+03  0.00000000000E+00 0. -1.
         23    2    1    2    0    0  0.85488523797E+02  0.58484841976E+01  0.18545368220E+03  0.22360317050E+03  0.90900039326E+02 0.  0.
         23    2    1    2    0    0  0.38387860430E+02  0.16652079477E+02 -0.44046909625E+03  0.45250167827E+03  0.94835776510E+02 0.  0.
        -13    1    3    3    0    0  0.11979956593E+02  0.16901933398E+02 -0.30795690506E+01  0.20944652256E+02  0.00000000000E+00 0. -1.
         13    1    3    3    0    0  0.73508567204E+02 -0.11053449201E+02  0.18853325125E+03  0.20265851825E+03  0.00000000000E+00 0.  1.
        -13    1    4    4    0    0  0.34686936036E+02  0.54198059929E+02 -0.31397779810E+03  0.32050377678E+03  0.00000000000E+00 0.  1.
         13    1    4    4    0    0  0.37009243936E+01 -0.37545980452E+02 -0.12649129814E+03  0.13199790148E+03  0.00000000000E+00 0. -1.
         21    1    1    2  502  501 -0.12387638423E+03 -0.22500563675E+02 -0.67556598217E+02  0.14288291675E+03  0.00000000000E+00 0. -1.
<scales pt_clust_5="13000.00000" pt_clust_6="13000.00000" pt_clust_7="13000.00000" pt_clust_8="13000.00000" pt_clust_9="91.76532"></scales>
<clustering>
<clus scale="   90.900">  5  6 -1 -1</clus>
<clus scale="   94.836">  7  8 -1 -1</clus>
<clus scale="  103.657">  2  7  1 -1</clus>
<clus scale="   91.765">  2  9  1 -1</clus>
<clus scale="  103.657">  2  5  1 -1</clus>
</clustering>
</event>
<event>
 9    1  0.2423659E-006  0.9920760E+02  0.7546771E-02  0.1282501E+00
         -2   -1    0    0    0  501 -0.00000000000E+00  0.00000000000E+00  0.25484876854E+03  0.25484876854E+03  0.00000000000E+00 0.  1.
          2   -1    0    0  502    0  0.00000000000E+00 -0.00000000000E+00 -0.25073978832E+03  0.25073978832E+03  0.00000000000E+00 0. -1.
         23    2    1    2    0    0 -0.10875391214E+02 -0.41969563794E+02  0.21170553700E+03  0.23494816857E+03  0.92204604523E+02 0.  0.
         23    2    1    2    0    0  0.41453272837E+01 -0.93180590522E+01 -0.49321172809E+02  0.10412669159E+03  0.91136051323E+02 0.  0.
        -11    1    4    4    0    0 -0.32602856080E+02 -0.30209782279E+02 -0.82856852759E+01  0.45213159041E+02  0.00000000000E+00 0.  1.
         11    1    4    4    0    0  0.36748183364E+02  0.20891723227E+02 -0.41035487533E+02  0.58913532546E+02  0.00000000000E+00 0. -1.
        -11    1    3    3    0    0  0.25786287085E+02 -0.55032345067E+02  0.10437626003E+03  0.12078035959E+03  0.00000000000E+00 0.  1.
         11    1    3    3    0    0 -0.36661678298E+02  0.13062781273E+02  0.10732927698E+03  0.11416780898E+03  0.00000000000E+00 0. -1.
         21    1    1    2  502  501  0.67300639300E+01  0.51287622846E+02 -0.15827538397E+03  0.16651369670E+03  0.00000000000E+00 0. -1.
<scales pt_clust_5="13000.00000" pt_clust_6="13000.00000" pt_clust_7="13000.00000" pt_clust_8="13000.00000" pt_clust_9="51.72730"></scales>
<clustering>
<clus scale="   51.727">  2  9  1 -1</clus>
<clus scale="   91.136">  5  6 -1 -1</clus>
<clus scale="   92.205">  7  8 -1 -1</clus>
<clus scale="   98.215">  2  5  1 -1</clus>
<clus scale="   51.727">  2  5  1 -1</clus>
</clustering>
</event>
<event>
 9    1  0.2423659E-006  0.1020668E+03  0.7546771E-02  0.1281523E+00
          1   -1    0    0  502    0  0.00000000000E+00  0.00000000000E+00  0.12379139597E+04  0.12379139597E+04  0.00000000000E+00 0. -1.
         -1   -1    0    0    0  501 -0.00000000000E+00 -0.00000000000E+00 -0.18211840855E+02  0.18211840855E+02  0.00000000000E+00 0.  1.
         23    2    1    2    0    0  0.24594755342E+02  0.37887982814E+02  0.23299903324E+03  0.25095038705E+03  0.81530031522E+02 0.  0.
         23    2    1    2    0    0 -0.66970955985E+02  0.22064921144E+02  0.53633243165E+03  0.54885993160E+03  0.92858912286E+02 0.  0.
        -11    1    4    4    0    0 -0.72910419257E+02  0.49665563554E+02  0.41769350069E+03  0.42690802049E+03  0.00000000000E+00 0. -1.
         11    1    4    4    0    0  0.59394632718E+01 -0.27600642410E+02  0.11863893096E+03  0.12195191111E+03  0.00000000000E+00 0.  1.
        -13    1    3    3    0    0 -0.23123634939E+02 -0.77161396160E+01  0.38618500106E+02  0.45668696651E+02  0.00000000000E+00 0. -1.
         13    1    3    3    0    0  0.47718390280E+02  0.45604122430E+02  0.19438053313E+03  0.20528169040E+03  0.00000000000E+00 0.  1.
         21    1    1    2  502  501  0.42376200644E+02 -0.59952903958E+02  0.45037065391E+03  0.45631548185E+03  0.00000000000E+00 0.  1.
<scales pt_clust_5="13000.00000" pt_clust_6="13000.00000" pt_clust_7="13000.00000" pt_clust_8="13000.00000" pt_clust_9="73.41725"></scales>
<clustering>
<clus scale="   73.417">  1  9  2 -1</clus>
<clus scale="   81.530">  7  8 -1 -1</clus>
<clus scale="   91.880">  2  7  1 -1</clus>
<clus scale="   92.859">  5  6 -1 -1</clus>
<clus scale="   73.417">  1  5  2 -1</clus>
</clustering>
</event>
<event>
 9    1  0.2423659E-006  0.1197764E+03  0.7546771E-02  0.1243955E+00
          1   -1    0    0  502    0  0.00000000000E+00  0.00000000000E+00  0.34475527973E+03  0.34475527973E+03  0.00000000000E+00 0. -1.
         -1   -1    0    0    0  501 -0.00000000000E+00 -0.00000000000E+00 -0.74846798484E+02  0.74846798484E+02  0.00000000000E+00 0.  1.
         23    2    1    2    0    0  0.97094732718E+02 -0.37982281171E+01  0.61924549253E+02  0.14629654254E+03  0.90145520690E+02 0.  0.
         23    2    1    2    0    0 -0.58539931551E+02  0.43826629835E+02  0.16780737183E+03  0.20472783067E+03  0.91686823169E+02 0.  0.
        -11    1    4    4    0    0 -0.58790105585E+02 -0.96400852248E+01  0.11534052953E+03  0.12981773958E+03  0.00000000000E+00 0. -1.
         11    1    4    4    0    0  0.25017403381E+00  0.53466715060E+02  0.52466842298E+02  0.74910091090E+02  0.00000000000E+00 0.  1.
        -11    1    3    3    0    0  0.62408064002E+02 -0.23030120700E+02  0.78860571046E+02  0.10317045400E+03  0.00000000000E+00 0. -1.
         11    1    3    3    0    0  0.34686668716E+02  0.19231892583E+02 -0.16936021793E+02  0.43126088544E+02  0.00000000000E+00 0.  1.
         21    1    1    2  502  501 -0.38554801167E+02 -0.40028401718E+02  0.40176560169E+02  0.68577705008E+02  0.00000000000E+00 0. -1.
<scales pt_clust_5="13000.00000" pt_clust_6="13000.00000" pt_clust_7="13000.00000" pt_clust_8="13000.00000" pt_clust_9="55.57648"></scales>
<clustering>
<clus scale="   55.576">  2  9  1 -1</clus>
<clus scale="   90.146">  7  8 -1 -1</clus>
<clus scale="   91.687">  5  6 -1 -1</clus>
<clus scale="  118.601">  2  7  1 -1</clus>
<clus scale="  119.776">  1  5  2 -1</clus>
</clustering>
</event>
<event>
 9    1  0.2423659E-006  0.4211085E+03  0.7546771E-02  0.1076487E+00
         -1   -1    0    0    0  501 -0.00000000000E+00  0.00000000000E+00  0.10767040306E+04  0.10767040306E+04  0.00000000000E+00 0.  1.
          1   -1    0    0  502    0  0.00000000000E+00 -0.00000000000E+00 -0.27880159992E+03  0.27880159992E+03  0.00000000000E+00 0. -1.
         23    2    1    2    0    0 -0.12299820583E+02  0.45114951262E+03  0.41807038371E+03  0.62080307922E+03  0.83225291332E+02 0.  0.
         23    2    1    2    0    0 -0.73764932502E+02 -0.72557073042E+02 -0.58449389825E+02  0.14918569000E+03  0.90190048310E+02 0.  0.
        -11    1    4    4    0    0  0.11522481231E+02 -0.22551840318E+02 -0.41878929200E+02  0.48940757926E+02  0.00000000000E+00 0. -1.
         11    1    4    4    0    0 -0.85287413733E+02 -0.50005232724E+02 -0.16570460626E+02  0.10024493207E+03  0.00000000000E+00 0.  1.
        -13    1    3    3    0    0 -0.95333534285E+01  0.46861335579E+02  0.15526561474E+02  0.50278660593E+02  0.00000000000E+00 0. -1.
         13    1    3    3    0    0 -0.27664671546E+01  0.40428817704E+03  0.40254382223E+03  0.57052441863E+03  0.00000000000E+00 0.  1.
         21    1    1    2  502  501  0.86064753085E+02 -0.37859243958E+03  0.43828143680E+03  0.58551686130E+03  0.00000000000E+00 0. -1.
<scales pt_clust_5="13000.00000" pt_clust_6="13000.00000" pt_clust_7="13000.00000" pt_clust_8="13000.00000" pt_clust_9="412.80255"></scales>
<clustering>
<clus scale="   83.225">  7  8 -1 -1</clus>
<clus scale="   90.190">  5  6 -1 -1</clus>
<clus scale="  137.259">  2  5  1 -1</clus>
<clus scale="  412.803">  1  9  2 -1</clus>
<clus scale="  137.259">  2  5  1 -1</clus>
</clustering>
</event>
<event>
 9    1  0.2423659E-006  0.1446335E+03  0.7546771E-02  0.1227672E+00
         -2   -1    0    0    0  501 -0.00000000000E+00  0.00000000000E+00  0.38131780309E+02  0.38131780309E+02  0.00000000000E+00 0.  1.
          2   -1    0    0  502    0  0.00000000000E+00 -0.00000000000E+00 -0.86673372516E+03  0.86673372516E+03  0.00000000000E+00 0. -1.
         23    2    1    2    0    0 -0.10541638344E+03 -0.47097559366E+02 -0.42458172916E+03  0.44946299893E+03  0.91741749910E+02 0.  0.
         23    2    1    2    0    0 -0.26380199252E+01  0.22109059531E+02 -0.23659213461E+03  0.25457337134E+03  0.91301662482E+02 0.  0.
        -11    1    4    4    0    0  0.10272539827E+02  0.51923555986E+02 -0.19348170966E+03  0.20059100856E+03  0.00000000000E+00 0. -1.
         11    1    4    4    0    0 -0.12910559752E+02 -0.29814496455E+02 -0.43110424949E+02  0.53982362779E+02  0.00000000000E+00 0.  1.
        -13    1    3    3    0    0 -0.96248092271E+02 -0.68871162224E+02 -0.29699942876E+03  0.31971173412E+03  0.00000000000E+00 0. -1.
         13    1    3    3    0    0 -0.91682911709E+01  0.21773602858E+02 -0.12758230040E+03  0.12975126481E+03  0.00000000000E+00 0.  1.
         21    1    1    2  502  501  0.10805440337E+03  0.24988499835E+02 -0.16742808109E+03  0.20082913521E+03  0.00000000000E+00 0.  1.
<scales pt_clust_5="13000.00000" pt_clust_6="13000.00000" pt_clust_7="13000.00000" pt_clust_8="13000.00000" pt_clust_9="111.81363"></scales>
<clustering>
<clus scale="   91.302">  5  6 -1 -1</clus>
<clus scale="   91.742">  7  8 -1 -1</clus>
<clus scale="   93.977">  2  5  1 -1</clus>
<clus scale="  111.814">  1  9  2 -1</clus>
<clus scale="   93.977">  2  5  1 -1</clus>
</clustering>
</event>
<event>
 9    1  0.2423659E-006  0.1347076E+03  0.7546771E-02  0.1230164E+00
          2   -1    0    0  502    0  0.00000000000E+00  0.00000000000E+00  0.49228087716E+02  0.49228087716E+02  0.00000000000E+00 0. -1.
         -2   -1    0    0    0  501 -0.00000000000E+00 -0.00000000000E+00 -0.46722479137E+03  0.46722479137E+03  0.00000000000E+00 0.  1.
         23    2    1    2    0    0 -0.73743848859E+02  0.17902903931E+02 -0.27744526732E+03  0.30242257155E+03  0.93406992286E+02 0.  0.
         23    2    1    2    0    0  0.50993111532E+02 -0.74847363240E+01 -0.95906864748E+02  0.16285148343E+03  0.12110392334E+03 0.  0.
        -11    1    3    3    0    0 -0.78612579663E+01 -0.34974259441E+02 -0.79983611265E+02  0.87649165833E+02  0.00000000000E+00 0.  1.
         11    1    3    3    0    0 -0.65882590892E+02  0.52877163372E+02 -0.19746165606E+03  0.21477340571E+03  0.00000000000E+00 0. -1.
        -11    1    4    4    0    0  0.89955879903E+02 -0.15463194965E+02 -0.73594057486E+02  0.11724869306E+03  0.00000000000E+00 0.  1.
         11    1    4    4    0    0 -0.38962768371E+02  0.79784586413E+01 -0.22312807262E+02  0.45602790368E+02  0.00000000000E+00 0. -1.
         21    1    1    2  502  501  0.22750737327E+02 -0.10418167607E+02 -0.44644571580E+02  0.51178824105E+02  0.00000000000E+00 0. -1.
<scales pt_clust_5="13000.00000" pt_clust_6="13000.00000" pt_clust_7="13000.00000" pt_clust_8="13000.00000" pt_clust_9="25.02268"></scales>
<clustering>
<clus scale="   25.023">  2  9  1 -1</clus>
<clus scale="   93.407">  5  6 -1 -1</clus>
<clus scale="  110.475">  2  5  1 -1</clus>
<clus scale="  121.104">  7  8 -1 -1</clus>
<clus scale="  134.708">  1  5  2 -1</clus>
</clustering>
</event>
<event>
 9    1  0.2423659E-006  0.9797551E+02  0.7546771E-02  0.1285130E+00
          1   -1    0    0  502    0  0.00000000000E+00  0.00000000000E+00  0.19120416130E+03  0.19120416130E+03  0.00000000000E+00 0. -1.
         -1   -1    0    0    0  501 -0.00000000000E+00 -0.00000000000E+00 -0.12819740536E+03  0.12819740536E+03  0.00000000000E+00 0.  1.
         23    2    1    2    0    0  0.47838590750E+02  0.64403593441E+01  0.69012485308E+01  0.10472589424E+03  0.92681587700E+02 0.  0.
         23    2    1    2    0    0  0.20700077742E+02  0.59146643504E+02  0.42230531497E+02  0.11880221949E+03  0.91671865411E+02 0.  0.
        -11    1    3    3    0    0  0.53517538548E+02 -0.34000523645E+02  0.61857351664E+00  0.63407769032E+02  0.00000000000E+00 0.  1.
         11    1    3    3    0    0 -0.56789477985E+01  0.40440882989E+02  0.62826750142E+01  0.41318125204E+02  0.00000000000E+00 0. -1.
        -13    1    4    4    0    0  0.16892402868E+01 -0.22276369438E+02 -0.48282971232E+01  0.22856128745E+02  0.00000000000E+00 0.  1.
         13    1    4    4    0    0  0.19010837455E+02  0.81423012943E+02  0.47058828620E+02  0.95946090741E+02  0.00000000000E+00 0. -1.
         21    1    1    2  502  501 -0.68538668491E+02 -0.65587002849E+02  0.13874975915E+02  0.95873452936E+02  0.00000000000E+00 0.  1.
<scales pt_clust_5="13000.00000" pt_clust_6="13000.00000" pt_clust_7="13000.00000" pt_clust_8="13000.00000" pt_clust_9="94.86413"></scales>
<clustering>
<clus scale="   91.672">  7  8 -1 -1</clus>
<clus scale="   92.682">  5  6 -1 -1</clus>
<clus scale="   94.864">  2  9  1 -1</clus>
<clus scale="   97.021">  1  7  2 -1</clus>
<clus scale="   97.021">  1  5  2 -1</clus>
</clustering>
</event>
<event>
 9    1  0.2423659E-006  0.1143467E+03  0.7546771E-02  0.1253364E+00
         -1   -1    0    0    0  501 -0.00000000000E+00  0.00000000000E+00  0.19292557626E+03  0.19292557626E+03  0.00000000000E+00 0.  1.
          1   -1    0    0  502    0  0.00000000000E+00 -0.00000000000E+00 -0.13017734913E+03  0.13017734913E+03  0.00000000000E+00 0. -1.
         23    2    1    2    0    0  0.12753403923E+02  0.40551625826E+02  0.10968831704E+03  0.14812141603E+03  0.90007462599E+02 0.  0.
         23    2    1    2    0    0 -0.82309602445E+01 -0.74875062164E+02 -0.65581820144E+02  0.13566147776E+03  0.91809791276E+02 0.  0.
        -11    1    3    3    0    0 -0.37785934522E+02  0.91326338528E+01  0.54624529348E+02  0.67044918191E+02  0.00000000000E+00 0. -1.
         11    1    3    3    0    0  0.50539338446E+02  0.31418991974E+02  0.55063787695E+02  0.81076497843E+02  0.00000000000E+00 0.  1.
        -13    1    4    4    0    0 -0.45084686816E+02 -0.49569607998E+02 -0.61189369718E+02  0.90740916839E+02  0.00000000000E+00 0. -1.
         13    1    4    4    0    0  0.36853726571E+02 -0.25305454167E+02 -0.43924504259E+01  0.44920560922E+02  0.00000000000E+00 0.  1.
         21    1    1    2  502  501 -0.45224436788E+01  0.34323436338E+02  0.18641730235E+02  0.39320031600E+02  0.00000000000E+00 0. -1.
<scales pt_clust_5="13000.00000" pt_clust_6="13000.00000" pt_clust_7="13000.00000" pt_clust_8="13000.00000" pt_clust_9="34.62009"></scales>
<clustering>
<clus scale="   34.620">  1  9  2 -1</clus>
<clus scale="   90.007">  5  6 -1 -1</clus>
<clus scale="   91.810">  7  8 -1 -1</clus>
<clus scale="  112.905">  1  5  2 -1</clus>
<clus scale="  114.347">  2  5  1 -1</clus>
</clustering>
</event>
<event>
 9    1  0.2423659E-006  0.1065575E+03  0.7546771E-02  0.1269602E+00
          1   -1    0    0  502    0  0.00000000000E+00  0.00000000000E+00  0.12749336939E+03  0.12749336939E+03  0.00000000000E+00 0. -1.
         -1   -1    0    0    0  501 -0.00000000000E+00 -0.00000000000E+00 -0.22633900219E+03  0.22633900219E+03  0.00000000000E+00 0.  1.
         23    2    1    2    0    0  0.38592551052E+02  0.27016489717E+02 -0.17797513509E+03  0.20833775239E+03  0.97520226850E+02 0.  0.
         23    2    1    2    0    0 -0.14615262873E+02 -0.15291289136E+02  0.53312461991E+02  0.10836093843E+03  0.91937179322E+02 0.  0.
        -11    1    3    3    0    0 -0.29259583304E+02  0.10533305245E+00 -0.23657361230E+02  0.37627184993E+02  0.00000000000E+00 0. -1.
         11    1    3    3    0    0  0.67852134356E+02  0.26911156665E+02 -0.15431777387E+03  0.17071056740E+03  0.00000000000E+00 0.  1.
        -13    1    4    4    0    0  0.14849489281E+02  0.26562199989E+02 -0.49249969817E+01  0.30827153541E+02  0.00000000000E+00 0.  1.
         13    1    4    4    0    0 -0.29464752155E+02 -0.41853489126E+02  0.58237458973E+02  0.77533784889E+02  0.00000000000E+00 0. -1.
         21    1    1    2  502  501 -0.23977288179E+02 -0.11725200581E+02  0.25817040306E+02  0.37133680766E+02  0.00000000000E+00 0. -1.
<scales pt_clust_5="13000.00000" pt_clust_6="13000.00000" pt_clust_7="13000.00000" pt_clust_8="13000.00000" pt_clust_9="26.69065"></scales>
<clustering>
<clus scale="   26.691">  1  9  2 -1</clus>
<clus scale="   91.937">  7  8 -1 -1</clus>
<clus scale="   97.520">  5  6 -1 -1</clus>
<clus scale="  101.473">  1  7  2 -1</clus>
<clus scale="   26.691">  1  5  2 -1</clus>
</clustering>
</event>
<event>
 9    1  0.2423659E-006  0.9202296E+02  0.7546771E-02  0.1298176E+00
         -1   -1    0    0    0  501 -0.00000000000E+00  0.00000000000E+00  0.21327117144E+03  0.21327117144E+03  0.00000000000E+00 0.  1.
          1   -1    0    0  502    0  0.00000000000E+00 -0.00000000000E+00 -0.97617261909E+02  0.97617261909E+02  0.00000000000E+00 0. -1.
         23    2    1    2    0    0  0.21559512537E+02  0.20840631674E+02  0.10682289050E+03  0.14325597793E+03  0.90620090322E+02 0.  0.
         23    2    1    2    0    0  0.94115341095E+01 -0.35126224632E+01  0.57368937059E+02  0.10750429962E+03  0.90360743724E+02 0.  0.
        -11    1    4    4    0    0 -0.10711141947E+02  0.20744338053E+02  0.69817778184E+02  0.73617785036E+02  0.00000000000E+00 0. -1.
         11    1    4    4    0    0  0.20122676056E+02 -0.24256960517E+02 -0.12448841126E+02  0.33886514582E+02  0.00000000000E+00 0.  1.
        -13    1    3    3    0    0 -0.33983597868E+02  0.75402202463E+01  0.60154807148E+02  0.69500652288E+02  0.00000000000E+00 0. -1.
         13    1    3    3    0    0  0.55543110405E+02  0.13300411428E+02  0.46668083350E+02  0.73755325646E+02  0.00000000000E+00 0.  1.
         21    1    1    2  502  501 -0.30971046647E+02 -0.17328009211E+02 -0.48537918024E+02  0.60128155798E+02  0.00000000000E+00 0. -1.
<scales pt_clust_5="13000.00000" pt_clust_6="13000.00000" pt_clust_7="13000.00000" pt_clust_8="13000.00000" pt_clust_9="35.48895"></scales>
<clustering>
<clus scale="   35.489">  2  9  1 -1</clus>
<clus scale="   90.361">  5  6 -1 -1</clus>
<clus scale="   90.620">  7  8 -1 -1</clus>
<clus scale="   91.768">  2  5  1 -1</clus>
<clus scale="   35.489">  2  5  1 -1</clus>
</clustering>
</event>
<event>
 9    1  0.2423659E-006  0.1375392E+03  0.7546771E-02  0.1223925E+00
          2   -1    0    0  502    0  0.00000000000E+00  0.00000000000E+00  0.59555478072E+03  0.59555478072E+03  0.00000000000E+00 0. -1.
         -2   -1    0    0    0  501 -0.00000000000E+00 -0.00000000000E+00 -0.59349007728E+02  0.59349007728E+02  0.00000000000E+00 0.  1.
         23    2    1    2    0    0  0.33830919869E+02  0.70788491911E+02  0.42831075885E+02  0.12814740757E+03  0.91824371926E+02 0.  0.
         23    2    1    2    0    0  0.98507224127E+01 -0.67727219583E+02  0.30432759409E+03  0.33270416002E+03  0.11572709520E+03 0.  0.
        -11    1    3    3    0    0  0.36285116919E+02  0.90913251957E+02  0.24714815104E+02  0.10095866073E+03  0.00000000000E+00 0.  1.
         11    1    3    3    0    0 -0.24541970503E+01 -0.20124760045E+02  0.18116260781E+02  0.27188746840E+02  0.00000000000E+00 0. -1.
        -11    1    4    4    0    0  0.55734056202E+02 -0.42711991407E+02  0.10267205518E+03  0.12438709798E+03  0.00000000000E+00 0.  1.
         11    1    4    4    0    0 -0.45883333789E+02 -0.25015228176E+02  0.20165553891E+03  0.20831706203E+03  0.00000000000E+00 0. -1.
         21    1    1    2  502  501 -0.43681642282E+02 -0.30612723277E+01  0.18904710302E+03  0.19405222086E+03  0.00000000000E+00 0. -1.
<scales pt_clust_5="13000.00000" pt_clust_6="13000.00000" pt_clust_7="13000.00000" pt_clust_8="13000.00000" pt_clust_9="43.78878"></scales>
<clustering>
<clus scale="   43.789">  1  9  2 -1</clus>
<clus scale="   91.824">  5  6 -1 -1</clus>
<clus scale="  115.727">  7  8 -1 -1</clus>
<clus scale="  118.135">  2  5  1 -1</clus>
<clus scale="   43.789">  1  5  2 -1</clus>
</clustering>
</event>
<event>
 9    1  0.2423659E-006  0.1201879E+03  0.7546771E-02  0.1242890E+00
         -2   -1    0    0    0  501 -0.00000000000E+00  0.00000000000E+00  0.97288245614E+02  0.97288245614E+02  0.00000000000E+00 0.  1.
          2   -1    0    0  502    0  0.00000000000E+00 -0.00000000000E+00 -0.32707146573E+03  0.32707146573E+03  0.00000000000E+00 0. -1.
         23    2    1    2    0    0  0.14504973978E+02  0.50924582767E+02 -0.44462503013E+02  0.11394694766E+03  0.90571989631E+02 0.  0.
         23    2    1    2    0    0  0.36290556391E+02 -0.91503152872E+02 -0.20282215676E+03  0.24308441418E+03  0.90903100497E+02 0.  0.
        -11    1    3    3    0    0  0.61158440165E+01  0.76916609478E+02 -0.28149618395E+02  0.82133850375E+02  0.00000000000E+00 0. -1.
         11    1    3    3    0    0  0.83891299613E+01 -0.25992026711E+02 -0.16312884617E+02  0.31813097281E+02  0.00000000000E+00 0.  1.
        -11    1    4    4    0    0  0.21991743940E+02  0.14135796325E+02 -0.54294721193E+02  0.60260885230E+02  0.00000000000E+00 0. -1.
         11    1    4    4    0    0  0.14298812451E+02 -0.10563894920E+03 -0.14852743556E+03  0.18282352895E+03  0.00000000000E+00 0.  1.
         21    1    1    2  502  501 -0.50795530369E+02  0.40578570104E+02  0.17501439652E+02  0.67328349505E+02  0.00000000000E+00 0. -1.
<scales pt_clust_5="13000.00000" pt_clust_6="13000.00000" pt_clust_7="13000.00000" pt_clust_8="13000.00000" pt_clust_9="65.01389"></scales>
<clustering>
<clus scale="   65.014">  1  9  2 -1</clus>
<clus scale="   90.572">  5  6 -1 -1</clus>
<clus scale="   90.903">  7  8 -1 -1</clus>
<clus scale="  119.938">  1  5  2 -1</clus>
<clus scale="  120.188">  2  5  1 -1</clus>
</clustering>
</event>
<event>
 9    1  0.2423659E-006  0.1405147E+03  0.7546771E-02  0.1232233E+00
         -1   -1    0    0    0  501 -0.00000000000E+00  0.00000000000E+00  0.81853355272E+02  0.81853355272E+02  0.00000000000E+00 0.  1.
          1   -1    0    0  502    0  0.00000000000E+00 -0.00000000000E+00 -0.70965513596E+03  0.70965513596E+03  0.00000000000E+00 0. -1.
         23    2    1    2    0    0  0.14208343365E+02 -0.16294883444E+02 -0.54112169021E+00  0.93274569658E+02  0.90732862209E+02 0.  0.
         23    2    1    2    0    0 -0.11760864315E+03 -0.66160468741E+01 -0.15640739554E+03  0.21561675607E+03  0.90287026202E+02 0.  0.
        -11    1    3    3    0    0  0.40052583221E+02  0.12113496680E+02 -0.24032404344E+02  0.48254561266E+02  0.00000000000E+00 0. -1.
         11    1    3    3    0    0 -0.25844239855E+02 -0.28408380123E+02  0.23491282653E+02  0.45020008392E+02  0.00000000000E+00 0.  1.
        -11    1    4    4    0    0 -0.60404926979E+02 -0.31809386774E+02 -0.29938602214E+02  0.74544699294E+02  0.00000000000E+00 0.  1.
         11    1    4    4    0    0 -0.57203716172E+02  0.25193339900E+02 -0.12646879332E+03  0.14107205678E+03  0.00000000000E+00 0. -1.
         21    1    1    2  502  501  0.10340029979E+03  0.22910930318E+02 -0.47085326346E+03  0.48261716550E+03  0.00000000000E+00 0. -1.
<scales pt_clust_5="13000.00000" pt_clust_6="13000.00000" pt_clust_7="13000.00000" pt_clust_8="13000.00000" pt_clust_9="107.66912"></scales>
<clustering>
<clus scale="   90.287">  7  8 -1 -1</clus>
<clus scale="   90.733">  5  6 -1 -1</clus>
<clus scale="   93.273">  1  5  2 -1</clus>
<clus scale="  107.669">  2  9  1 -1</clus>
<clus scale="  107.669">  2  5  1 -1</clus>
</clustering>
</event>
<event>
 9    1  0.2423659E-006  0.1737696E+03  0.7546771E-02  0.1183510E+00
         -1   -1    0    0    0  501 -0.00000000000E+00  0.00000000000E+00  0.88644515516E+02  0.88644515516E+02  0.00000000000E+00 0.  1.
          1   -1    0    0  502    0  0.00000000000E+00 -0.00000000000E+00 -0.83938850132E+03  0.83938850132E+03  0.00000000000E+00 0. -1.
         23    2    1    2    0    0 -0.14423371729E+03 -0.92140521789E+02 -0.15931308449E+03  0.25052646533E+03  0.89942259147E+02 0.  0.
         23    2    1    2    0    0  0.97701091645E+02 -0.47118687962E+02 -0.45848393912E+03  0.47943255648E+03  0.88782767000E+02 0.  0.
        -11    1    3    3    0    0 -0.36295087299E+02  0.44152510004E+01 -0.18769161102E+01  0.36610799193E+02  0.00000000000E+00 0.  1.
         11    1    3    3    0    0 -0.10793862999E+03 -0.96555772789E+02 -0.15743616838E+03  0.21391566614E+03  0.00000000000E+00 0. -1.
        -13    1    4    4    0    0  0.73889220283E+02 -0.45165205315E+01 -0.37899038760E+03  0.38615246953E+03  0.00000000000E+00 0.  1.
         13    1    4    4    0    0  0.23811871363E+02 -0.42602167431E+02 -0.79493551519E+02  0.93280086946E+02  0.00000000000E+00 0. -1.
         21    1    1    2  502  501  0.46532625648E+02  0.13925920975E+03 -0.13294696219E+03  0.19807399502E+03  0.00000000000E+00 0.  1.
<scales pt_clust_5="13000.00000" pt_clust_6="13000.00000" pt_clust_7="13000.00000" pt_clust_8="13000.00000" pt_clust_9="148.68172"></scales>
<clustering>
<clus scale="   88.783">  7  8 -1 -1</clus>
<clus scale="   89.942">  5  6 -1 -1</clus>
<clus scale="  140.172">  2  7  1 -1</clus>
<clus scale="  148.682">  1  9  2 -1</clus>
<clus scale="  140.172">  2  5  1 -1</clus>
</clustering>
</event>
<event>
 9    1  0.2423659E-006  0.9614411E+02  0.7546771E-02  0.1291473E+00
          2   -1    0    0  502    0  0.00000000000E+00  0.00000000000E+00  0.42278805906E+02  0.42278805906E+02  0.00000000000E+00 0. -1.
         -2   -1    0    0    0  501 -0.00000000000E+00 -0.00000000000E+00 -0.35944702337E+03  0.35944702337E+03  0.00000000000E+00 0.  1.
         23    2    1    2    0    0 -0.21507498365E+02  0.18980257574E+02 -0.21251822188E+03  0.23337357148E+03  0.92067402321E+02 0.  0.
         23    2    1    2    0    0 -0.90061805291E+01 -0.37971716721E+02 -0.83638147581E+02  0.12671984402E+03  0.86830965561E+02 0.  0.
        -11    1    4    4    0    0 -0.42508094887E+02 -0.17180423065E+02 -0.16248389416E+02  0.48642730457E+02  0.00000000000E+00 0. -1.
         11    1    4    4    0    0  0.33501914358E+02 -0.20791293656E+02 -0.67389758165E+02  0.78077113568E+02  0.00000000000E+00 0.  1.
        -13    1    3    3    0    0  0.29886007027E+02  0.12905460497E+02 -0.14328314749E+03  0.14693462723E+03  0.00000000000E+00 0.  1.
         13    1    3    3    0    0 -0.51393505392E+02  0.60747970763E+01 -0.69235074394E+02  0.86438944246E+02  0.00000000000E+00 0. -1.
         21    1    1    2  502  501  0.30513678894E+02  0.18991459148E+02 -0.21011848005E+02  0.41632413776E+02  0.00000000000E+00 0.  1.
<scales pt_clust_5="13000.00000" pt_clust_6="13000.00000" pt_clust_7="13000.00000" pt_clust_8="13000.00000" pt_clust_9="35.94106"></scales>
<clustering>
<clus scale="   35.941">  1  9  2 -1</clus>
<clus scale="   86.831">  5  6 -1 -1</clus>
<clus scale="   91.142">  1  5  2 -1</clus>
<clus scale="   92.067">  7  8 -1 -1</clus>
<clus scale="   35.941">  1  5  2 -1</clus>
</clustering>
</event>
<event>
 9    1  0.2423659E-006  0.2178722E+03  0.7546771E-02  0.1168919E+00
         -2   -1    0    0    0  501 -0.00000000000E+00  0.00000000000E+00  0.72461105065E+03  0.72461105065E+03  0.00000000000E+00 0.  1.
          2   -1    0    0  502    0  0.00000000000E+00 -0.00000000000E+00 -0.10338379655E+03  0.10338379655E+03  0.00000000000E+00 0. -1.
         23    2    1    2    0    0  0.11341871360E+03  0.15652352162E+03  0.40814600700E+03  0.46306009116E+03  0.10236243249E+03 0.  0.
         23    2    1    2    0    0 -0.35326930006E+02  0.20236638516E+02  0.10172259200E+03  0.14190285037E+03  0.90174384935E+02 0.  0.
        -11    1    3    3    0    0 -0.99538027985E+01  0.40882173832E+02  0.13876301180E+03  0.14500208195E+03  0.00000000000E+00 0. -1.
         11    1    3    3    0    0  0.12337251640E+03  0.11564134779E+03  0.26938299520E+03  0.31805800921E+03  0.00000000000E+00 0.  1.
        -13    1    4    4    0    0 -0.15806358179E+02  0.52989044350E+02  0.36192925262E+02  0.66087878004E+02  0.00000000000E+00 0. -1.
         13    1    4    4    0    0 -0.19520571827E+02 -0.32752405834E+02  0.65529666739E+02  0.75814972369E+02  0.00000000000E+00 0.  1.
         21    1    1    2  502  501 -0.78091783592E+02 -0.17676016014E+03  0.11135865510E+03  0.22303190566E+03  0.00000000000E+00 0. -1.
<scales pt_clust_5="13000.00000" pt_clust_6="13000.00000" pt_clust_7="13000.00000" pt_clust_8="13000.00000" pt_clust_9="192.32847"></scales>
<clustering>
<clus scale="   90.174">  7  8 -1 -1</clus>
<clus scale="   98.939">  2  7  1 -1</clus>
<clus scale="  102.362">  5  6 -1 -1</clus>
<clus scale="  192.328">  2  9  1 -1</clus>
<clus scale="   98.939">  2  5  1 -1</clus>
</clustering>
</event>
<event>
 9    1  0.2423659E-006  0.1357673E+03  0.7546771E-02  0.1220112E+00
         -2   -1    0    0    0  501 -0.00000000000E+00  0.00000000000E+00  0.24454681692E+03  0.24454681692E+03  0.00000000000E+00 0.  1.
          2   -1    0    0  502    0  0.00000000000E+00 -0.00000000000E+00 -0.35233252440E+03  0.35233252440E+03  0.00000000000E+00 0. -1.
         23    2    1    2    0    0  0.10158990974E+03  0.14619452430E+02  0.19872150299E+03  0.24170300035E+03  0.91628960923E+02 0.  0.
         23    2    1    2    0    0 -0.28261545349E+02 -0.16929435865E+02 -0.21740303676E+03  0.23975563738E+03  0.95568637716E+02 0.  0.
        -13    1    3    3    0    0  0.58586242254E+02 -0.85738564473E+01  0.30648596341E+02  0.66672297497E+02  0.00000000000E+00 0. -1.
         13    1    3    3    0    0  0.43003667485E+02  0.23193308878E+02  0.16807290665E+03  0.17503070286E+03  0.00000000000E+00 0.  1.
        -13    1    4    4    0    0  0.25426305207E+02 -0.77133457715E+01 -0.15778867592E+02  0.30902513846E+02  0.00000000000E+00 0.  1.
         13    1    4    4    0    0 -0.53687850556E+02 -0.92160900940E+01 -0.20162416917E+03  0.20885312353E+03  0.00000000000E+00 0. -1.
         21    1    1    2  502  501 -0.73328364390E+02  0.23099834352E+01 -0.89104173702E+02  0.11542070360E+03  0.00000000000E+00 0. -1.
<scales pt_clust_5="13000.00000" pt_clust_6="13000.00000" pt_clust_7="13000.00000" pt_clust_8="13000.00000" pt_clust_9="73.36474"></scales>
<clustering>
<clus scale="   73.365">  2  9  1 -1</clus>
<clus scale="   91.629">  5  6 -1 -1</clus>
<clus scale="   95.569">  7  8 -1 -1</clus>
<clus scale="  133.024">  1  5  2 -1</clus>
<clus scale="   73.365">  2  5  1 -1</clus>
</clustering>
</event>
<event>
 9    1  0.2423659E-006  0.1091941E+03  0.7546771E-02  0.1263575E+00
          1   -1    0    0  502    0  0.00000000000E+00  0.00000000000E+00  0.57314206238E+03  0.57314206238E+03  0.00000000000E+00 0. -1.
         -1   -1    0    0    0  501 -0.00000000000E+00 -0.00000000000E+00 -0.38145969274E+02  0.38145969274E+02  0.00000000000E+00 0.  1.
         23    2    1    2    0    0 -0.20354685455E+02 -0.58164451076E+02  0.12023801062E+03  0.16304083039E+03  0.91256323559E+02 0.  0.
         23    2    1    2    0    0 -0.36357705067E+02  0.44963828183E+02  0.29000283506E+03  0.31057213654E+03  0.94919856155E+02 0.  0.
        -11    1    4    4    0    0  0.81477448843E+01 -0.25787383770E+02  0.58702689067E+02  0.64632659021E+02  0.00000000000E+00 0.  1.
         11    1    4    4    0    0 -0.44505449952E+02  0.70751211954E+02  0.23130014599E+03  0.24593947752E+03  0.00000000000E+00 0. -1.
        -11    1    3    3    0    0 -0.25847104206E+02 -0.80631815034E+02  0.79235449290E+02  0.11596473091E+03  0.00000000000E+00 0.  1.
         11    1    3    3    0    0  0.54924187505E+01  0.22467363958E+02  0.41002561328E+02  0.47076099481E+02  0.00000000000E+00 0. -1.
         21    1    1    2  502  501  0.56712390523E+02  0.13200622893E+02  0.12475524743E+03  0.13767506472E+03  0.00000000000E+00 0. -1.
<scales pt_clust_5="13000.00000" pt_clust_6="13000.00000" pt_clust_7="13000.00000" pt_clust_8="13000.00000" pt_clust_9="58.22844"></scales>
<clustering>
<clus scale="   58.228">  1  9  2 -1</clus>
<clus scale="   91.256">  7  8 -1 -1</clus>
<clus scale="   94.920">  5  6 -1 -1</clus>
<clus scale="  106.025">  2  7  1 -1</clus>
<clus scale="   58.228">  1  5  2 -1</clus>
</clustering>
</event>
<event>
 9    1  0.2423659E-006  0.1018716E+03  0.7546771E-02  0.1281802E+00
         -2   -1    0    0    0  501 -0.00000000000E+00  0.00000000000E+00  0.15193080875E+03  0.15193080875E+03  0.00000000000E+00 0.  1.
          2   -1    0    0  502    0  0.00000000000E+00 -0.00000000000E+00 -0.36824685487E+03  0.36824685487E+03  0.00000000000E+00 0. -1.
         23    2    1    2    0    0  0.93114031952E+02  0.71359493337E+01  0.12427150356E+02  0.12290024118E+03  0.78923320369E+02 0.  0.
         23    2    1    2    0    0 -0.41588302313E+02 -0.24300056325E+00 -0.29601019618E+03  0.31226411285E+03  0.90317185485E+02 0.  0.
        -13    1    3    3    0    0  0.38872778786E+02 -0.26942090506E+02 -0.19702338767E+02  0.51236230582E+02  0.00000000000E+00 0. -1.
         13    1    3    3    0    0  0.54241253166E+02  0.34078039840E+02  0.32129489123E+02  0.71664010603E+02  0.00000000000E+00 0.  1.
        -13    1    4    4    0    0 -0.35701799656E+02 -0.34886417514E+02 -0.86852136760E+02  0.10017471879E+03  0.00000000000E+00 0.  1.
         13    1    4    4    0    0 -0.58865026573E+01  0.34643416951E+02 -0.20915805942E+03  0.21208939406E+03  0.00000000000E+00 0. -1.
         21    1    1    2  502  501 -0.51525729639E+02 -0.68929487704E+01  0.67266999698E+02  0.85013309581E+02  0.00000000000E+00 0.  1.
<scales pt_clust_5="13000.00000" pt_clust_6="13000.00000" pt_clust_7="13000.00000" pt_clust_8="13000.00000" pt_clust_9="51.98474"></scales>
<clustering>
<clus scale="   51.985">  1  9  2 -1</clus>
<clus scale="   78.923">  5  6 -1 -1</clus>
<clus scale="   90.317">  7  8 -1 -1</clus>
<clus scale="   91.921">  1  5  2 -1</clus>
<clus scale="  101.872">  2  5  1 -1</clus>
</clustering>
</event>
<event>
 9    1  0.2423659E-006  0.9498765E+02  0.7546771E-02  0.1291409E+00
          1   -1    0    0  502    0  0.00000000000E+00  0.00000000000E+00  0.94193766752E+02  0.94193766752E+02  0.00000000000E+00 0. -1.
         -1   -1    0    0    0  501 -0.00000000000E+00 -0.00000000000E+00 -0.15167590865E+03  0.15167590865E+03  0.00000000000E+00 0.  1.
         23    2    1    2    0    0  0.65750034758E+01  0.66411802966E+01 -0.23755971898E+02  0.95689908300E+02  0.92221886790E+02 0.  0.
         23    2    1    2    0    0 -0.31271520266E+02  0.29865658332E+02 -0.25747132537E+02  0.10538766683E+03  0.92594708044E+02 0.  0.
        -11    1    4    4    0    0 -0.38534190980E+02  0.59166243168E+02 -0.25875317790E+02  0.75200134812E+02  0.00000000000E+00 0.  1.
         11    1    4    4    0    0  0.72626707136E+01 -0.29300584836E+02  0.12818525251E+00  0.30187532014E+02  0.00000000000E+00 0. -1.
        -13    1    3    3    0    0  0.23362085569E+02 -0.31934622154E+02 -0.34248184982E+02  0.52331112245E+02  0.00000000000E+00 0. -1.
         13    1    3    3    0    0 -0.16787082094E+02  0.38575802450E+02  0.10492213084E+02  0.43358796055E+02  0.00000000000E+00 0.  1.
         21    1    1    2  502  501  0.24696516790E+02 -0.36506838628E+02 -0.79790374606E+01  0.44792100274E+02  0.00000000000E+00 0. -1.
<scales pt_clust_5="13000.00000" pt_clust_6="13000.00000" pt_clust_7="13000.00000" pt_clust_8="13000.00000" pt_clust_9="44.07570"></scales>
<clustering>
<clus scale="   44.076">  1  9  2 -1</clus>
<clus scale="   92.222">  7  8 -1 -1</clus>
<clus scale="   92.595">  5  6 -1 -1</clus>
<clus scale="   94.624">  2  7  1 -1</clus>
<clus scale="   44.076">  1  5  2 -1</clus>
</clustering>
</event>
<event>
 9    1  0.2423659E-006  0.1078072E+03  0.7546771E-02  0.1265696E+00
          1   -1    0    0  502    0  0.00000000000E+00  0.00000000000E+00  0.57846081636E+03  0.57846081636E+03  0.00000000000E+00 0. -1.
         -1   -1    0    0    0  501 -0.00000000000E+00 -0.00000000000E+00 -0.54535972440E+02  0.54535972440E+02  0.00000000000E+00 0.  1.
         23    2    1    2    0    0  0.31965908523E+02  0.92097284528E+01  0.73749929032E+02  0.12177307086E+03  0.91010935330E+02 0.  0.
         23    2    1    2    0    0 -0.93096934239E+02 -0.75490866030E+02  0.27478737943E+03  0.31401575892E+03  0.93444544727E+02 0.  0.
        -11    1    3    3    0    0 -0.20590606399E+02  0.30836006608E+02  0.44281336865E+02  0.57755252315E+02  0.00000000000E+00 0. -1.
         11    1    3    3    0    0  0.52556514922E+02 -0.21626278155E+02  0.29468592167E+02  0.64017818550E+02  0.00000000000E+00 0.  1.
        -13    1    4    4    0    0 -0.72706284507E+02 -0.14668105293E+02  0.21055020422E+03  0.22323249230E+03  0.00000000000E+00 0. -1.
         13    1    4    4    0    0 -0.20390649732E+02 -0.60822760737E+02  0.64237175205E+02  0.90783266622E+02  0.00000000000E+00 0.  1.
         21    1    1    2  502  501  0.61131025716E+02  0.66281137578E+02  0.17538753546E+03  0.19720795901E+03  0.00000000000E+00 0.  1.
<scales pt_clust_5="13000.00000" pt_clust_6="13000.00000" pt_clust_7="13000.00000" pt_clust_8="13000.00000" pt_clust_9="90.16757"></scales>
<clustering>
<clus scale="   90.168">  1  9  2 -1</clus>
<clus scale="   91.011">  5  6 -1 -1</clus>
<clus scale="   93.445">  7  8 -1 -1</clus>
<clus scale="  105.705">  2  5  1 -1</clus>
<clus scale="   90.168">  1  5  2 -1</clus>
</clustering>
</event>
<event>
 9    1  0.2423659E-006  0.9740363E+02  0.7546771E-02  0.1286581E+00
         -2   -1    0    0    0  501 -0.00000000000E+00  0.00000000000E+00  0.88937617050E+02  0.88937617050E+02  0.00000000000E+00 0.  1.
          2   -1    0    0  502    0  0.00000000000E+00 -0.00000000000E+00 -0.21395576302E+03  0.21395576302E+03  0.00000000000E+00 0. -1.
         23    2    1    2    0    0 -0.42997710758E+02 -0.34595826267E+02 -0.87422391405E+02  0.13829850569E+03  0.91859282776E+02 0.  0.
         23    2    1    2    0    0  0.11584237817E+02  0.35538639291E+01 -0.65521243381E+02  0.11234315064E+03  0.90449575168E+02 0.  0.
        -11    1    3    3    0    0 -0.28410053230E+02 -0.56889604734E+02 -0.21383785181E+02  0.67088184653E+02  0.00000000000E+00 0. -1.
         11    1    3    3    0    0 -0.14587657528E+02  0.22293778467E+02 -0.66038606224E+02  0.71210321040E+02  0.00000000000E+00 0.  1.
        -13    1    4    4    0    0 -0.39214412169E+02  0.58919971640E+00 -0.19795012920E+02  0.43931307909E+02  0.00000000000E+00 0. -1.
         13    1    4    4    0    0  0.50798649987E+02  0.29646642127E+01 -0.45726230460E+02  0.68411842735E+02  0.00000000000E+00 0.  1.
         21    1    1    2  502  501  0.31413472941E+02  0.31041962338E+02  0.27925488812E+02  0.52251723737E+02  0.00000000000E+00 0.  1.
<scales pt_clust_5="13000.00000" pt_clust_6="13000.00000" pt_clust_7="13000.00000" pt_clust_8="13000.00000" pt_clust_9="44.16344"></scales>
<clustering>
<clus scale="   44.163">  1  9  2 -1</clus>
<clus scale="   90.450">  7  8 -1 -1</clus>
<clus scale="   91.859">  5  6 -1 -1</clus>
<clus scale="   96.075">  2  7  1 -1</clus>
<clus scale="   96.075">  2  5  1 -1</clus>
</clustering>
</event>
<event>
 9    1  0.2423659E-006  0.4045237E+03  0.7546771E-02  0.1064303E+00
         -2   -1    0    0    0  501 -0.00000000000E+00  0.00000000000E+00  0.19775090564E+03  0.19775090564E+03  0.00000000000E+00 0.  1.
          2   -1    0    0  502    0  0.00000000000E+00 -0.00000000000E+00 -0.27968408846E+04  0.27968408846E+04  0.00000000000E+00 0. -1.
         23    2    1    2    0    0  0.34195249820E+02  0.19350468685E+03 -0.37661450396E+03  0.43430850618E+03  0.90399198030E+02 0.  0.
         23    2    1    2    0    0  0.31860907745E+03  0.95732980566E+01 -0.33810016395E+02  0.33408292224E+03  0.94153541913E+02 0.  0.
        -11    1    3    3    0    0  0.38758552128E+02  0.30890167963E+02 -0.55990691711E+02  0.74775566853E+02  0.00000000000E+00 0. -1.
         11    1    3    3    0    0 -0.45633023079E+01  0.16261451889E+03 -0.32062381225E+03  0.35953293933E+03  0.00000000000E+00 0.  1.
        -11    1    4    4    0    0  0.16400374669E+03 -0.36092993073E+02 -0.40472575942E+02  0.17273668539E+03  0.00000000000E+00 0.  1.
         11    1    4    4    0    0  0.15460533076E+03  0.45666291129E+02  0.66625595469E+01  0.16134623685E+03  0.00000000000E+00 0. -1.
         21    1    1    2  502  501 -0.35280432727E+03 -0.20307798490E+03 -0.21886654586E+04  0.22262003619E+04  0.00000000000E+00 0. -1.
<scales pt_clust_5="13000.00000" pt_clust_6="13000.00000" pt_clust_7="13000.00000" pt_clust_8="13000.00000" pt_clust_9="393.41399"></scales>
<clustering>
<clus scale="   90.399">  5  6 -1 -1</clus>
<clus scale="   94.154">  7  8 -1 -1</clus>
<clus scale="  216.299">  1  5  2 -1</clus>
<clus scale="  393.414">  2  9  1 -1</clus>
<clus scale="  393.414">  2  5  1 -1</clus>
</clustering>
</event>
<event>
 9    1  0.2423659E-006  0.9961418E+02  0.7546771E-02  0.1283747E+00
          1   -1    0    0  502    0  0.00000000000E+00  0.00000000000E+00  0.22979540334E+03  0.22979540334E+03  0.00000000000E+00 0. -1.
         -1   -1    0    0    0  501 -0.00000000000E+00 -0.00000000000E+00 -0.10063991337E+03  0.10063991337E+03  0.00000000000E+00 0.  1.
         23    2    1    2    0    0 -0.15026942033E+02  0.50110296148E+02  0.68236694439E+02  0.12597108098E+03  0.92063108834E+02 0.  0.
         23    2    1    2    0    0 -0.40704950880E+02 -0.22136537670E+02  0.92084578444E+02  0.13475138845E+03  0.86783914269E+02 0.  0.
        -11    1    3    3    0    0  0.38811575620E+02  0.23217121759E+02  0.23381723066E+02  0.50912455435E+02  0.00000000000E+00 0.  1.
         11    1    3    3    0    0 -0.53838517653E+02  0.26893174389E+02  0.44854971372E+02  0.75058625544E+02  0.00000000000E+00 0. -1.
        -11    1    4    4    0    0 -0.22565333081E+02 -0.39679490604E+02  0.98630464608E+02  0.10868129913E+03  0.00000000000E+00 0.  1.
         11    1    4    4    0    0 -0.18139617799E+02  0.17542952934E+02 -0.65458861641E+01  0.26070089321E+02  0.00000000000E+00 0. -1.
         21    1    1    2  502  501  0.55731892913E+02 -0.27973758478E+02 -0.31165782910E+02  0.69712847277E+02  0.00000000000E+00 0.  1.
<scales pt_clust_5="13000.00000" pt_clust_6="13000.00000" pt_clust_7="13000.00000" pt_clust_8="13000.00000" pt_clust_9="62.35844"></scales>
<clustering>
<clus scale="   62.358">  2  9  1 -1</clus>
<clus scale="   86.784">  7  8 -1 -1</clus>
<clus scale="   92.063">  5  6 -1 -1</clus>
<clus scale="   94.757">  1  7  2 -1</clus>
<clus scale="   94.757">  1  5  2 -1</clus>
</clustering>
</event>
<event>
 9    1  0.2423659E-006  0.1120843E+03  0.7546771E-02  0.1256942E+00
          3   -1    0    0  502    0  0.00000000000E+00  0.00000000000E+00  0.85231467874E+03  0.85231467874E+03  0.00000000000E+00 0. -1.
         -3   -1    0    0    0  501 -0.00000000000E+00 -0.00000000000E+00 -0.35918083673E+02  0.35918083673E+02  0.00000000000E+00 0.  1.
         23    2    1    2    0    0  0.50129643917E+02 -0.12866472446E+02  0.15005408183E+03  0.18240535772E+03  0.89871907379E+02 0.  0.
         23    2    1    2    0    0 -0.63375301015E+02  0.76405369877E+02  0.24079416358E+03  0.27535785082E+03  0.89363904748E+02 0.  0.
        -11    1    4    4    0    0 -0.43579092367E+02  0.85609813542E+02  0.12566306658E+03  0.15817516799E+03  0.00000000000E+00 0.  1.
         11    1    4    4    0    0 -0.19796208649E+02 -0.92044436649E+01  0.11513109700E+03  0.11718268283E+03  0.00000000000E+00 0. -1.
        -13    1    3    3    0    0  0.37676267401E+02  0.36013109413E+02  0.89759160637E+02  0.10379379602E+03  0.00000000000E+00 0.  1.
         13    1    3    3    0    0  0.12453376516E+02 -0.48879581860E+02  0.60294921196E+02  0.78611561691E+02  0.00000000000E+00 0. -1.
         21    1    1    2  502  501  0.13245657098E+02 -0.63538897430E+02  0.42554834966E+03  0.43046955388E+03  0.00000000000E+00 0. -1.
<scales pt_clust_5="13000.00000" pt_clust_6="13000.00000" pt_clust_7="13000.00000" pt_clust_8="13000.00000" pt_clust_9="64.90485"></scales>
<clustering>
<clus scale="   64.905">  1  9  2 -1</clus>
<clus scale="   89.364">  5  6 -1 -1</clus>
<clus scale="   89.872">  7  8 -1 -1</clus>
<clus scale="  111.677">  1  5  2 -1</clus>
<clus scale="   64.905">  1  5  2 -1</clus>
</clustering>
</event>
<event>
 9    1  0.2423659E-006  0.9830992E+02  0.7546771E-02  0.1284811E+00
         -3   -1    0    0    0  501 -0.00000000000E+00  0.00000000000E+00  0.27077716005E+02  0.27077716005E+02  0.00000000000E+00 0.  1.
          3   -1    0    0  502    0  0.00000000000E+00 -0.00000000000E+00 -0.47188788416E+03  0.47188788416E+03  0.00000000000E+00 0. -1.
         23    2    1    2    0    0  0.24614231468E+00  0.20384748930E+02 -0.16934996099E+03  0.19416927249E+03  0.92772293903E+02 0.  0.
         23    2    1    2    0    0 -0.37536335902E+01 -0.47790463980E+02 -0.21860106071E+03  0.24157972979E+03  0.90974303465E+02 0.  0.
        -13    1    4    4    0    0 -0.39652993051E+02 -0.38303766522E+02 -0.73954247647E+02  0.92242989613E+02  0.00000000000E+00 0.  1.
         13    1    4    4    0    0  0.35899359461E+02 -0.94866974575E+01 -0.14464681306E+03  0.14933674018E+03  0.00000000000E+00 0. -1.
        -13    1    3    3    0    0 -0.23380621983E+02  0.46969119095E+02 -0.13451688698E+03  0.14438678789E+03  0.00000000000E+00 0.  1.
         13    1    3    3    0    0  0.23626764298E+02 -0.26584370165E+02 -0.34833074011E+02  0.49782484604E+02  0.00000000000E+00 0. -1.
         21    1    1    2  502  501  0.35074912755E+01  0.27405715050E+02 -0.56859146456E+02  0.63216597885E+02  0.00000000000E+00 0. -1.
<scales pt_clust_5="13000.00000" pt_clust_6="13000.00000" pt_clust_7="13000.00000" pt_clust_8="13000.00000" pt_clust_9="27.62925"></scales>
<clustering>
<clus scale="   27.629">  2  9  1 -1</clus>
<clus scale="   90.974">  5  6 -1 -1</clus>
<clus scale="   92.772">  7  8 -1 -1</clus>
<clus scale="   96.615">  2  5  1 -1</clus>
<clus scale="   27.629">  2  5  1 -1</clus>
</clustering>
</event>
<event>
 9    1  0.2423659E-006  0.9185546E+02  0.7546771E-02  0.1298494E+00
          1   -1    0    0  502    0  0.00000000000E+00  0.00000000000E+00  0.43623321290E+03  0.43623321290E+03  0.00000000000E+00 0. -1.
         -1   -1    0    0    0  501 -0.00000000000E+00 -0.00000000000E+00 -0.30320938921E+02  0.30320938921E+02  0.00000000000E+00 0.  1.
         23    2    1    2    0    0 -0.83658210680E+01 -0.14497075397E+02  0.12285218894E+03  0.15429379461E+03  0.91835519113E+02 0.  0.
         23    2    1    2    0    0 -0.75362950267E+01 -0.18801346657E+02  0.18473787867E+03  0.20724169947E+03  0.91710151053E+02 0.  0.
        -13    1    3    3    0    0  0.25619957701E+02  0.18569046228E+02  0.93064374817E+02  0.98296335488E+02  0.00000000000E+00 0.  1.
         13    1    3    3    0    0 -0.33985778769E+02 -0.33066121624E+02  0.29787814120E+02  0.55997459120E+02  0.00000000000E+00 0. -1.
        -13    1    4    4    0    0  0.90777966780E+01 -0.51811769097E+02  0.76258860072E+02  0.92640593419E+02  0.00000000000E+00 0.  1.
         13    1    4    4    0    0 -0.16614091705E+02  0.33010422440E+02  0.10847901859E+03  0.11460110605E+03  0.00000000000E+00 0. -1.
         21    1    1    2  502  501  0.15902116095E+02  0.33298422054E+02  0.98322206377E+02  0.10501865774E+03  0.00000000000E+00 0.  1.
<scales pt_clust_5="13000.00000" pt_clust_6="13000.00000" pt_clust_7="13000.00000" pt_clust_8="13000.00000" pt_clust_9="36.90071"></scales>
<clustering>
<clus scale="   36.901">  1  9  2 -1</clus>
<clus scale="   91.710">  7  8 -1 -1</clus>
<clus scale="   91.730">  1  7  2 -1</clus>
<clus scale="   91.836">  5  6 -1 -1</clus>
<clus scale="   36.901">  1  5  2 -1</clus>
</clustering>
</event>
<event>
 9    1  0.2423659E-006  0.1087208E+03  0.7546771E-02  0.1264613E+00
         -1   -1    0    0    0  501 -0.00000000000E+00  0.00000000000E+00  0.54542241827E+03  0.54542241827E+03  0.00000000000E+00 0.  1.
          1   -1    0    0  502    0  0.00000000000E+00 -0.00000000000E+00 -0.65599632949E+02  0.65599632949E+02  0.00000000000E+00 0. -1.
         23    2    1    2    0    0 -0.23683373761E+02 -0.91446203116E+02  0.68052304619E+02  0.14760509283E+03  0.90734982281E+02 0.  0.
         23    2    1    2    0    0  0.32446844662E+02  0.16272736873E+02  0.80633148380E+02  0.12374096379E+03  0.86559354245E+02 0.  0.
        -11    1    3    3    0    0  0.24197675090E+02 -0.27041365589E+02 -0.78689158844E+01  0.37130617688E+02  0.00000000000E+00 0.  1.
         11    1    3    3    0    0 -0.47881048852E+02 -0.64404837527E+02  0.75921220503E+02  0.11047447515E+03  0.00000000000E+00 0. -1.
        -11    1    4    4    0    0  0.56471367948E+02  0.29726328551E+02  0.68591262052E+02  0.93687946060E+02  0.00000000000E+00 0.  1.
         11    1    4    4    0    0 -0.24024523286E+02 -0.13453591678E+02  0.12041886329E+02  0.30053017727E+02  0.00000000000E+00 0. -1.
         21    1    1    2  502  501 -0.87634709008E+01  0.75173466244E+02  0.33113733232E+03  0.33967599459E+03  0.00000000000E+00 0.  1.
<scales pt_clust_5="13000.00000" pt_clust_6="13000.00000" pt_clust_7="13000.00000" pt_clust_8="13000.00000" pt_clust_9="75.68255"></scales>
<clustering>
<clus scale="   75.683">  1  9  2 -1</clus>
<clus scale="   86.559">  7  8 -1 -1</clus>
<clus scale="   90.735">  5  6 -1 -1</clus>
<clus scale="  105.261">  2  7  1 -1</clus>
<clus scale="  105.261">  2  5  1 -1</clus>
</clustering>
</event>
<event>
 9    1  0.2423659E-006  0.1314961E+03  0.7546771E-02  0.1225561E+00
          1   -1    0    0  502    0  0.00000000000E+00  0.00000000000E+00  0.10837823046E+03  0.10837823046E+03  0.00000000000E+00 0. -1.
         -1   -1    0    0    0  501 -0.00000000000E+00 -0.00000000000E+00 -0.34154638062E+03  0.34154638062E+03  0.00000000000E+00 0.  1.
         23    2    1    2    0    0  0.49134394092E+02  0.97395490586E+02 -0.22753222055E+03  0.26815453911E+03  0.90751722795E+02 0.  0.
         23    2    1    2    0    0 -0.33205996955E+02 -0.32163019213E+02  0.28003311022E+02  0.10666622608E+03  0.91958688115E+02 0.  0.
        -11    1    3    3    0    0  0.38950529314E+02  0.58529331028E+02 -0.21479107284E+03  0.22600449397E+03  0.00000000000E+00 0.  1.
         11    1    3    3    0    0  0.10183864778E+02  0.38866159558E+02 -0.12741147712E+02  0.42150045144E+02  0.00000000000E+00 0. -1.
        -13    1    4    4    0    0 -0.32117224606E+02  0.18879194903E+02 -0.14756604650E+02  0.40071155429E+02  0.00000000000E+00 0.  1.
         13    1    4    4    0    0 -0.10887723486E+01 -0.51042214115E+02  0.42759915673E+02  0.66595070654E+02  0.00000000000E+00 0. -1.
         21    1    1    2  502  501 -0.15928397137E+02 -0.65232471373E+02 -0.33639240635E+02  0.75103845889E+02  0.00000000000E+00 0. -1.
<scales pt_clust_5="13000.00000" pt_clust_6="13000.00000" pt_clust_7="13000.00000" pt_clust_8="13000.00000" pt_clust_9="67.14901"></scales>
<clustering>
<clus scale="   67.149">  1  9  2 -1</clus>
<clus scale="   90.752">  5  6 -1 -1</clus>
<clus scale="   91.959">  7  8 -1 -1</clus>
<clus scale="  130.655">  2  5  1 -1</clus>
<clus scale="   67.149">  1  5  2 -1</clus>
</clustering>
</event>
<event>
 9    1  0.2423659E-006  0.1144450E+03  0.7546771E-02  0.1257299E+00
         -1   -1    0    0    0  501 -0.00000000000E+00  0.00000000000E+00  0.96820084276E+02  0.96820084276E+02  0.00000000000E+00 0.  1.
          1   -1    0    0  502    0  0.00000000000E+00 -0.00000000000E+00 -0.27058056349E+03  0.27058056349E+03  0.00000000000E+00 0. -1.
         23    2    1    2    0    0  0.24913805296E+02  0.71895094176E+01  0.32062528228E+01  0.94583599737E+02  0.90903193244E+02 0.  0.
         23    2    1    2    0    0 -0.84663065972E+02 -0.39520641709E+01 -0.17927864830E+03  0.21293549695E+03  0.77570861638E+02 0.  0.
        -11    1    3    3    0    0 -0.32416513658E+02  0.15982198606E+01 -0.12657541895E+02  0.34836733935E+02  0.00000000000E+00 0. -1.
         11    1    3    3    0    0  0.57330318954E+02  0.55912895570E+01  0.15863794718E+02  0.59746865802E+02  0.00000000000E+00 0.  1.
        -13    1    4    4    0    0  0.19745960020E+01  0.22570428834E+02 -0.51793510873E+02  0.56532212549E+02  0.00000000000E+00 0.  1.
         13    1    4    4    0    0 -0.86637661974E+02 -0.26522493005E+02 -0.12748513743E+03  0.15640328440E+03  0.00000000000E+00 0. -1.
         21    1    1    2  502  501  0.59749260676E+02 -0.32374452468E+01  0.23119162595E+01  0.59881551080E+02  0.00000000000E+00 0.  1.
<scales pt_clust_5="13000.00000" pt_clust_6="13000.00000" pt_clust_7="13000.00000" pt_clust_8="13000.00000" pt_clust_9="59.83691"></scales>
<clustering>
<clus scale="   59.837">  1  9  2 -1</clus>
<clus scale="   77.571">  7  8 -1 -1</clus>
<clus scale="   90.903">  5  6 -1 -1</clus>
<clus scale="  104.171">  2  7  1 -1</clus>
<clus scale="  104.171">  2  5  1 -1</clus>
</clustering>
</event>
<event>
 9    1  0.2423659E-006  0.9820513E+02  0.7546771E-02  0.1285227E+00
          1   -1    0    0  502    0  0.00000000000E+00  0.00000000000E+00  0.50089889859E+03  0.50089889859E+03  0.00000000000E+00 0. -1.
         -1   -1    0    0    0  501 -0.00000000000E+00 -0.00000000000E+00 -0.13195189845E+03  0.13195189845E+03  0.00000000000E+00 0.  1.
         23    2    1    2    0    0  0.23950999276E+02 -0.18316322553E+02 -0.93575348436E+02  0.13365125355E+03  0.90538244419E+02 0.  0.
         23    2    1    2    0    0 -0.59756728490E+02  0.52398928964E+02  0.40670107493E+03  0.42463622212E+03  0.92701900870E+02 0.  0.
        -11    1    3    3    0    0 -0.25939343831E+01 -0.48579286210E+02 -0.26432553238E+02  0.55365651941E+02  0.00000000000E+00 0. -1.
         11    1    3    3    0    0  0.26544933659E+02  0.30262963657E+02 -0.67142795198E+02  0.78285601609E+02  0.00000000000E+00 0.  1.
        -13    1    4    4    0    0 -0.58932236419E+01 -0.23732851836E+02  0.13951893712E+03  0.14164572763E+03  0.00000000000E+00 0.  1.
         13    1    4    4    0    0 -0.53863504848E+02  0.76131780800E+02  0.26718213782E+03  0.28299049449E+03  0.00000000000E+00 0. -1.
         21    1    1    2  502  501  0.35805729214E+02 -0.34082606411E+02  0.55821273638E+02  0.74563321378E+02  0.00000000000E+00 0.  1.
<scales pt_clust_5="13000.00000" pt_clust_6="13000.00000" pt_clust_7="13000.00000" pt_clust_8="13000.00000" pt_clust_9="49.43353"></scales>
<clustering>
<clus scale="   49.434">  1  9  2 -1</clus>
<clus scale="   90.538">  5  6 -1 -1</clus>
<clus scale="   92.702">  7  8 -1 -1</clus>
<clus scale="   96.165">  2  5  1 -1</clus>
<clus scale="   49.434">  1  5  2 -1</clus>
</clustering>
</event>
<event>
 9    1  0.2423659E-006  0.2367314E+03  0.7546771E-02  0.1149206E+00
         -2   -1    0    0    0  501 -0.00000000000E+00  0.00000000000E+00  0.24826021336E+03  0.24826021336E+03  0.00000000000E+00 0.  1.
          2   -1    0    0  502    0  0.00000000000E+00 -0.00000000000E+00 -0.54774581319E+03  0.54774581319E+03  0.00000000000E+00 0. -1.
         23    2    1    2    0    0  0.19528917080E+02 -0.78896158460E+02 -0.20528489472E+02  0.12384756732E+03  0.91163691394E+02 0.  0.
         23    2    1    2    0    0  0.17686400352E+03 -0.38251310268E+02  0.10365328794E+03  0.22641814741E+03  0.88188065505E+02 0.  0.
        -13    1    4    4    0    0  0.21323696448E+01 -0.24763958760E+02  0.51589234540E+01  0.25385333265E+02  0.00000000000E+00 0. -1.
         13    1    4    4    0    0  0.17473163388E+03 -0.13487351507E+02  0.98494364488E+02  0.20103281415E+03  0.00000000000E+00 0.  1.
        -13    1    3    3    0    0  0.40960950968E+01 -0.93026681244E+02 -0.33808565514E+02  0.99064426109E+02  0.00000000000E+00 0.  1.
         13    1    3    3    0    0  0.15432821984E+02  0.14130522784E+02  0.13280076042E+02  0.24783141209E+02  0.00000000000E+00 0. -1.
         21    1    1    2  502  501 -0.19639292060E+03  0.11714746873E+03 -0.38261039830E+03  0.44574031181E+03  0.00000000000E+00 0. -1.
<scales pt_clust_5="13000.00000" pt_clust_6="13000.00000" pt_clust_7="13000.00000" pt_clust_8="13000.00000" pt_clust_9="219.69208"></scales>
<clustering>
<clus scale="   88.188">  5  6 -1 -1</clus>
<clus scale="   91.164">  7  8 -1 -1</clus>
<clus scale="  122.134">  1  7  2 -1</clus>
<clus scale="  219.692">  2  9  1 -1</clus>
<clus scale="  219.692">  2  5  1 -1</clus>
</clustering>
</event>
<event>
 9    1  0.2423659E-006  0.1834380E+03  0.7546771E-02  0.1164783E+00
         -3   -1    0    0    0  501 -0.00000000000E+00  0.00000000000E+00  0.10399404906E+04  0.10399404906E+04  0.00000000000E+00 0.  1.
          3   -1    0    0  502    0  0.00000000000E+00 -0.00000000000E+00 -0.22444678887E+03  0.22444678887E+03  0.00000000000E+00 0. -1.
         23    2    1    2    0    0 -0.19422188832E+03  0.72396398961E+02  0.82617825114E+03  0.85655436554E+03  0.90285646556E+02 0.  0.
         23    2    1    2    0    0  0.10143746492E+03 -0.12003464951E+03 -0.14836777698E+03  0.23510473645E+03  0.92538443279E+02 0.  0.
        -13    1    3    3    0    0 -0.57079604228E+02  0.63971330251E+01  0.10693107651E+03  0.12138063954E+03  0.00000000000E+00 0. -1.
         13    1    3    3    0    0 -0.13714228409E+03  0.65999265936E+02  0.71924717463E+03  0.73517372600E+03  0.00000000000E+00 0.  1.
        -13    1    4    4    0    0  0.67418562743E+02 -0.40052567841E+02 -0.21487221196E+02  0.81309110607E+02  0.00000000000E+00 0. -1.
         13    1    4    4    0    0  0.34018902174E+02 -0.79982081667E+02 -0.12688055578E+03  0.15379562584E+03  0.00000000000E+00 0.  1.
         21    1    1    2  502  501  0.92784423401E+02  0.47638250547E+02  0.13768322754E+03  0.17272817746E+03  0.00000000000E+00 0. -1.
<scales pt_clust_5="13000.00000" pt_clust_6="13000.00000" pt_clust_7="13000.00000" pt_clust_8="13000.00000" pt_clust_9="104.29934"></scales>
<clustering>
<clus scale="   90.286">  5  6 -1 -1</clus>
<clus scale="   92.538">  7  8 -1 -1</clus>
<clus scale="  104.299">  1  9  2 -1</clus>
<clus scale="  182.312">  1  5  2 -1</clus>
<clus scale="  183.438">  2  5  1 -1</clus>
</clustering>
</event>
<event>
 9    1  0.2423659E-006  0.1717793E+03  0.7546771E-02  0.1197795E+00
         -2   -1    0    0    0  501 -0.00000000000E+00  0.00000000000E+00  0.70685071779E+02  0.70685071779E+02  0.00000000000E+00 0.  1.
          2   -1    0    0  502    0  0.00000000000E+00 -0.00000000000E+00 -0.10571741312E+04  0.10571741312E+04  0.00000000000E+00 0. -1.
         23    2    1    2    0    0 -0.15704230570E+02 -0.57152069001E+02 -0.17538307672E+03  0.20485688547E+03  0.87716236119E+02 0.  0.
         23    2    1    2    0    0 -0.79185782858E+02 -0.62140727336E+02 -0.47518072831E+02  0.14434874755E+03  0.91906123145E+02 0.  0.
        -11    1    3    3    0    0 -0.11137535456E+01  0.22522896188E+02 -0.58089210762E+02  0.62312741125E+02  0.00000000000E+00 0. -1.
         11    1    3    3    0    0 -0.14590477025E+02 -0.79674965188E+02 -0.11729386595E+03  0.14254414435E+03  0.00000000000E+00 0.  1.
        -13    1    4    4    0    0 -0.46371116832E+02 -0.74420031070E+02 -0.60991033829E+02  0.10681070971E+03  0.00000000000E+00 0.  1.
         13    1    4    4    0    0 -0.32814666026E+02  0.12279303734E+02  0.13472960999E+02  0.37538037837E+02  0.00000000000E+00 0. -1.
         21    1    1    2  502  501  0.94890013429E+02  0.11929279634E+03 -0.76358790986E+03  0.77865356995E+03  0.00000000000E+00 0. -1.
<scales pt_clust_5="13000.00000" pt_clust_6="13000.00000" pt_clust_7="13000.00000" pt_clust_8="13000.00000" pt_clust_9="145.12546"></scales>
<clustering>
<clus scale="   87.716">  5  6 -1 -1</clus>
<clus scale="   91.906">  7  8 -1 -1</clus>
<clus scale="  105.864">  1  5  2 -1</clus>
<clus scale="  145.125">  2  9  1 -1</clus>
<clus scale="  145.125">  2  5  1 -1</clus>
</clustering>
</event>
<event>
 9    1  0.2423659E-006  0.9406163E+02  0.7546771E-02  0.1294153E+00
         -1   -1    0    0    0  501 -0.00000000000E+00  0.00000000000E+00  0.34483877599E+02  0.34483877599E+02  0.00000000000E+00 0.  1.
          1   -1    0    0  502    0  0.00000000000E+00 -0.00000000000E+00 -0.54621482426E+03  0.54621482426E+03  0.00000000000E+00 0. -1.
         23    2    1    2    0    0 -0.34253860646E+02 -0.27715080199E+02 -0.17440112107E+03  0.20221187322E+03  0.92371196804E+02 0.  0.
         23    2    1    2    0    0 -0.11455700780E+02 -0.93982854374E+01 -0.28243077920E+03  0.29798421248E+03  0.93850332964E+02 0.  0.
        -11    1    4    4    0    0 -0.72827712732E+01 -0.43886185637E+02 -0.23510499206E+03  0.23927681321E+03  0.00000000000E+00 0. -1.
         11    1    4    4    0    0 -0.41729295069E+01  0.34487900199E+02 -0.47325787143E+02  0.58707399274E+02  0.00000000000E+00 0.  1.
        -13    1    3    3    0    0  0.22160770640E+02  0.18846460459E+02 -0.45601282683E+02  0.54090348580E+02  0.00000000000E+00 0.  1.
         13    1    3    3    0    0 -0.56414631287E+02 -0.46561540658E+02 -0.12879983839E+03  0.14812152464E+03  0.00000000000E+00 0. -1.
         21    1    1    2  502  501  0.45709561427E+02  0.37113365637E+02 -0.54899046386E+02  0.80502616161E+02  0.00000000000E+00 0.  1.
<scales pt_clust_5="13000.00000" pt_clust_6="13000.00000" pt_clust_7="13000.00000" pt_clust_8="13000.00000" pt_clust_9="58.87925"></scales>
<clustering>
<clus scale="   58.879">  1  9  2 -1</clus>
<clus scale="   92.371">  7  8 -1 -1</clus>
<clus scale="   92.586">  1  7  2 -1</clus>
<clus scale="   93.850">  5  6 -1 -1</clus>
<clus scale="   94.062">  2  5  1 -1</clus>
</clustering>
</event>
<event>
 9    1  0.2423659E-006  0.9312869E+02  0.7546771E-02  0.1296129E+00
          3   -1    0    0  502    0  0.00000000000E+00  0.00000000000E+00  0.13201996369E+03  0.13201996369E+03  0.00000000000E+00 0. -1.
         -3   -1    0    0    0  501 -0.00000000000E+00 -0.00000000000E+00 -0.24576987828E+03  0.24576987828E+03  0.00000000000E+00 0.  1.
         23    2    1    2    0    0 -0.60562043156E+01 -0.63606712908E+02 -0.28576432206E+02  0.11504128824E+03  0.91298378871E+02 0.  0.
         23    2    1    2    0    0  0.22629694052E+02 -0.19740285341E+02  0.46723188355E+02  0.10584688252E+03  0.90103963791E+02 0.  0.
        -13    1    3    3    0    0 -0.38016985837E+02 -0.55621820977E+02 -0.42084058806E+02  0.79436428586E+02  0.00000000000E+00 0.  1.
         13    1    3    3    0    0  0.31960781521E+02 -0.79848919304E+01  0.13507626599E+02  0.35604859653E+02  0.00000000000E+00 0. -1.
        -13    1    4    4    0    0 -0.17938801327E+02  0.10679637522E+02  0.50853575278E+02  0.54972187233E+02  0.00000000000E+00 0.  1.
         13    1    4    4    0    0  0.40568495379E+02 -0.30419922863E+02 -0.41303869232E+01  0.50874695286E+02  0.00000000000E+00 0. -1.
         21    1    1    2  502  501 -0.16573489736E+02  0.83346998249E+02 -0.13189667073E+03  0.15690167121E+03  0.00000000000E+00 0.  1.
<scales pt_clust_5="13000.00000" pt_clust_6="13000.00000" pt_clust_7="13000.00000" pt_clust_8="13000.00000" pt_clust_9="84.97884"></scales>
<clustering>
<clus scale="   84.979">  2  9  1 -1</clus>
<clus scale="   90.104">  7  8 -1 -1</clus>
<clus scale="   91.298">  5  6 -1 -1</clus>
<clus scale="   91.958">  1  7  2 -1</clus>
<clus scale="   91.958">  1  5  2 -1</clus>
</clustering>
</event>
<event>
 9    1  0.2423659E-006  0.1180405E+03  0.7546771E-02  0.1247124E+00
         -1   -1    0    0    0  501 -0.00000000000E+00  0.00000000000E+00  0.51468555670E+03  0.51468555670E+03  0.00000000000E+00 0.  1.
          1   -1    0    0  502    0  0.00000000000E+00 -0.00000000000E+00 -0.63494232786E+02  0.63494232786E+02  0.00000000000E+00 0. -1.
         23    2    1    2    0    0 -0.33964495522E+02 -0.14348387739E+02  0.32501313280E+03  0.34011869532E+03  0.93207978353E+02 0.  0.
         23    2    1    2    0    0  0.59548981261E+02  0.54347851196E+02  0.21905842609E+02  0.12348690139E+03  0.90936124700E+02 0.  0.
        -11    1    4    4    0    0  0.32269560346E+01 -0.23595844544E+02 -0.33814071289E+01  0.24054335142E+02  0.00000000000E+00 0.  1.
         11    1    4    4    0    0  0.56322025226E+02  0.77943695740E+02  0.25287249738E+02  0.99432566247E+02  0.00000000000E+00 0. -1.
        -13    1    3    3    0    0 -0.51621914394E+02 -0.40427453578E+02  0.17607872949E+03  0.18789071299E+03  0.00000000000E+00 0.  1.
         13    1    3    3    0    0  0.17657418871E+02  0.26079065839E+02  0.14893440331E+03  0.15222798233E+03  0.00000000000E+00 0. -1.
         21    1    1    2  502  501 -0.25584485738E+02 -0.39999463457E+02  0.10427234851E+03  0.11457419278E+03  0.00000000000E+00 0. -1.
<scales pt_clust_5="13000.00000" pt_clust_6="13000.00000" pt_clust_7="13000.00000" pt_clust_8="13000.00000" pt_clust_9="47.48182"></scales>
<clustering>
<clus scale="   47.482">  1  9  2 -1</clus>
<clus scale="   90.936">  5  6 -1 -1</clus>
<clus scale="   93.208">  7  8 -1 -1</clus>
<clus scale="  116.255">  2  5  1 -1</clus>
<clus scale="  116.255">  2  5  1 -1</clus>
</clustering>
</event>
<event>
 9    1  0.2423659E-006  0.9190085E+02  0.7546771E-02  0.1314634E+00
         -1   -1    0    0    0  501 -0.00000000000E+00  0.00000000000E+00  0.97030305720E+02  0.97030305720E+02  0.00000000000E+00 0.  1.
          1   -1    0    0  502    0  0.00000000000E+00 -0.00000000000E+00 -0.11590871817E+03  0.11590871817E+03  0.00000000000E+00 0. -1.
         23    2    1    2    0    0 -0.69190696993E+01 -0.22829747148E+02  0.38497748036E+02  0.99574206836E+02  0.88678493350E+02 0.  0.
         23    2    1    2    0    0  0.25860063377E+02  0.14204525556E+02 -0.24504751371E+02  0.74458709228E+02  0.63820883072E+02 0.  0.
        -11    1    3    3    0    0 -0.45104496228E+02 -0.27250253948E+02  0.16181760712E+02  0.55125686390E+02  0.00000000000E+00 0. -1.
         11    1    3    3    0    0  0.38185426529E+02  0.44205068000E+01  0.22315987324E+02  0.44448520446E+02  0.00000000000E+00 0.  1.
        -13    1    4    4    0    0  0.90750948611E+01  0.37110802259E+02 -0.25686180142E+02  0.46036386058E+02  0.00000000000E+00 0.  1.
         13    1    4    4    0    0  0.16784968516E+02 -0.22906276703E+02  0.11814287703E+01  0.28422323170E+02  0.00000000000E+00 0. -1.
         21    1    1    2  502  501 -0.18940993677E+02  0.86252215916E+01 -0.32871409119E+02  0.38906107829E+02  0.00000000000E+00 0.  1.
<scales pt_clust_5="13000.00000" pt_clust_6="13000.00000" pt_clust_7="13000.00000" pt_clust_8="13000.00000" pt_clust_9="20.81239"></scales>
<clustering>
<clus scale="   20.812">  2  9  1 -1</clus>
<clus scale="   63.821">  7  8 -1 -1</clus>
<clus scale="   68.228">  2  7  1 -1</clus>
<clus scale="   88.678">  5  6 -1 -1</clus>
<clus scale="   20.812">  2  5  1 -1</clus>
</clustering>
</event>
<event>
 9    1  0.2423659E-006  0.1106627E+03  0.7546771E-02  0.1260839E+00
         -1   -1    0    0    0  501 -0.00000000000E+00  0.00000000000E+00  0.25068044831E+02  0.25068044831E+02  0.00000000000E+00 0.  1.
          1   -1    0    0  502    0  0.00000000000E+00 -0.00000000000E+00 -0.92124724250E+03  0.92124724250E+03  0.00000000000E+00 0. -1.
         23    2    1    2    0    0 -0.41656385010E+02 -0.79745937844E+02 -0.35815305842E+03  0.38186718027E+03  0.97233024750E+02 0.  0.
         23    2    1    2    0    0  0.35235839972E+02  0.13020707709E+02 -0.37135567331E+03  0.38480255617E+03  0.93578137886E+02 0.  0.
        -11    1    4    4    0    0  0.42424705424E+02  0.48612507699E+02 -0.23931868047E+03  0.24786379800E+03  0.00000000000E+00 0. -1.
         11    1    4    4    0    0 -0.71888654515E+01 -0.35591799989E+02 -0.13203699284E+03  0.13693875818E+03  0.00000000000E+00 0.  1.
        -13    1    3    3    0    0  0.25089697622E+02 -0.50445095271E+02 -0.19887359239E+03  0.20670003946E+03  0.00000000000E+00 0. -1.
         13    1    3    3    0    0 -0.66746082632E+02 -0.29300842574E+02 -0.15927946602E+03  0.17516714081E+03  0.00000000000E+00 0.  1.
         21    1    1    2  502  501  0.64205450381E+01  0.66725230135E+02 -0.16667046595E+03  0.17964555089E+03  0.00000000000E+00 0.  1.
<scales pt_clust_5="13000.00000" pt_clust_6="13000.00000" pt_clust_7="13000.00000" pt_clust_8="13000.00000" pt_clust_9="67.03342"></scales>
<clustering>
<clus scale="   67.033">  1  9  2 -1</clus>
<clus scale="   93.578">  5  6 -1 -1</clus>
<clus scale="   97.233">  7  8 -1 -1</clus>
<clus scale="  107.466">  2  5  1 -1</clus>
<clus scale="  107.466">  2  5  1 -1</clus>
</clustering>
</event>
<event>
 9    1  0.2423659E-006  0.1052756E+03  0.7546771E-02  0.1273615E+00
          1   -1    0    0  502    0  0.00000000000E+00  0.00000000000E+00  0.38018883165E+03  0.38018883165E+03  0.00000000000E+00 0. -1.
         -1   -1    0    0    0  501 -0.00000000000E+00 -0.00000000000E+00 -0.68612016684E+02  0.68612016684E+02  0.00000000000E+00 0.  1.
         23    2    1    2    0    0  0.57873461441E+02 -0.18808869951E+02  0.90868227742E+01  0.11153413875E+03  0.93027859428E+02 0.  0.
         23    2    1    2    0    0 -0.13246020315E+01  0.33413722467E+02  0.17239543651E+03  0.19466352366E+03  0.83996842179E+02 0.  0.
        -11    1    4    4    0    0  0.30632190632E+02  0.45801227536E+02  0.12011220059E+03  0.13214773656E+03  0.00000000000E+00 0. -1.
         11    1    4    4    0    0 -0.31956792664E+02 -0.12387505069E+02  0.52283235916E+02  0.62515787102E+02  0.00000000000E+00 0.  1.
        -11    1    3    3    0    0  0.79534026413E+02 -0.92684577451E+01 -0.10570704200E+02  0.80766982448E+02  0.00000000000E+00 0.  1.
         11    1    3    3    0    0 -0.21660564972E+02 -0.95404122056E+01  0.19657526974E+02  0.30767156299E+02  0.00000000000E+00 0. -1.
         21    1    1    2  502  501 -0.56548859409E+02 -0.14604852517E+02  0.13009455569E+03  0.14260318593E+03  0.00000000000E+00 0. -1.
<scales pt_clust_5="13000.00000" pt_clust_6="13000.00000" pt_clust_7="13000.00000" pt_clust_8="13000.00000" pt_clust_9="58.40441"></scales>
<clustering>
<clus scale="   58.404">  1  9  2 -1</clus>
<clus scale="   83.997">  5  6 -1 -1</clus>
<clus scale="   93.028">  7  8 -1 -1</clus>
<clus scale="   97.387">  1  5  2 -1</clus>
<clus scale="   58.404">  1  5  2 -1</clus>
</clustering>
</event>
<event>
 9    1  0.2423659E-006  0.1924919E+03  0.7546771E-02  0.1187392E+00
          4   -1    0    0  502    0  0.00000000000E+00  0.00000000000E+00  0.41818916032E+03  0.41818916032E+03  0.00000000000E+00 0. -1.
         -4   -1    0    0    0  501 -0.00000000000E+00 -0.00000000000E+00 -0.15160921099E+03  0.15160921099E+03  0.00000000000E+00 0.  1.
         23    2    1    2    0    0  0.14232957331E+03  0.10151632996E+03  0.19763560476E+03  0.27948905598E+03  0.92146771279E+02 0.  0.
         23    2    1    2    0    0 -0.21858951875E+02  0.14921099459E+02  0.77893068772E+02  0.12252694061E+03  0.90802356947E+02 0.  0.
        -11    1    4    4    0    0 -0.42332196433E+02 -0.43022222263E+01  0.31322614691E+01  0.42665384480E+02  0.00000000000E+00 0.  1.
         11    1    4    4    0    0  0.20473244558E+02  0.19223321685E+02  0.74760807303E+02  0.79861556133E+02  0.00000000000E+00 0. -1.
        -13    1    3    3    0    0  0.10531680466E+03  0.19770329177E+02  0.95540972466E+02  0.14356382789E+03  0.00000000000E+00 0.  1.
         13    1    3    3    0    0  0.37012768648E+02  0.81746000786E+02  0.10209463229E+03  0.13592522809E+03  0.00000000000E+00 0. -1.
         21    1    1    2  502  501 -0.12047062143E+03 -0.11643742942E+03 -0.89487241992E+01  0.16778237471E+03  0.00000000000E+00 0.  1.
<scales pt_clust_5="13000.00000" pt_clust_6="13000.00000" pt_clust_7="13000.00000" pt_clust_8="13000.00000" pt_clust_9="169.00323"></scales>
<clustering>
<clus scale="   90.802">  5  6 -1 -1</clus>
<clus scale="   92.147">  7  8 -1 -1</clus>
<clus scale="   94.581">  1  5  2 -1</clus>
<clus scale="  169.003">  2  9  1 -1</clus>
<clus scale="   94.581">  1  5  2 -1</clus>
</clustering>
</event>
<event>
 9    1  0.2423659E-006  0.1016059E+03  0.7546771E-02  0.1280317E+00
          2   -1    0    0  502    0  0.00000000000E+00  0.00000000000E+00  0.22669073497E+03  0.22669073497E+03  0.00000000000E+00 0. -1.
         -2   -1    0    0    0  501 -0.00000000000E+00 -0.00000000000E+00 -0.95151968678E+02  0.95151968678E+02  0.00000000000E+00 0.  1.
         23    2    1    2    0    0  0.92180118532E+01  0.51309266910E+02  0.73373568264E+02  0.13145810578E+03  0.95812005731E+02 0.  0.
         23    2    1    2    0    0 -0.44359667368E+02  0.95064987216E+01  0.65867168797E+02  0.11972475315E+03  0.89091969252E+02 0.  0.
        -11    1    4    4    0    0 -0.11691122227E+02 -0.29884633998E+02  0.60223177612E+02  0.68239320115E+02  0.00000000000E+00 0. -1.
         11    1    4    4    0    0 -0.32668545141E+02  0.39391132719E+02  0.56439911856E+01  0.51485433037E+02  0.00000000000E+00 0.  1.
        -13    1    3    3    0    0 -0.17161636463E+00  0.28705962678E+02 -0.19963141493E+02  0.34965536800E+02  0.00000000000E+00 0.  1.
         13    1    3    3    0    0  0.93896282179E+01  0.22603304232E+02  0.93336709757E+02  0.96492568980E+02  0.00000000000E+00 0. -1.
         21    1    1    2  502  501  0.35141655515E+02 -0.60815765632E+02 -0.77019707670E+01  0.70659844717E+02  0.00000000000E+00 0. -1.
<scales pt_clust_5="13000.00000" pt_clust_6="13000.00000" pt_clust_7="13000.00000" pt_clust_8="13000.00000" pt_clust_9="70.23883"></scales>
<clustering>
<clus scale="   70.239">  2  9  1 -1</clus>
<clus scale="   89.092">  5  6 -1 -1</clus>
<clus scale="   95.295">  1  5  2 -1</clus>
<clus scale="   95.812">  7  8 -1 -1</clus>
<clus scale="   95.295">  1  5  2 -1</clus>
</clustering>
</event>
<event>
 9    1  0.2423659E-006  0.1097591E+03  0.7546771E-02  0.1266895E+00
          1   -1    0    0  502    0  0.00000000000E+00  0.00000000000E+00  0.49029389847E+02  0.49029389847E+02  0.00000000000E+00 0. -1.
         -1   -1    0    0    0  501 -0.00000000000E+00 -0.00000000000E+00 -0.31624305557E+03  0.31624305557E+03  0.00000000000E+00 0.  1.
         23    2    1    2    0    0  0.47238407712E+02  0.33012584498E+02 -0.16478226662E+03  0.19409560145E+03  0.84844618054E+02 0.  0.
         23    2    1    2    0    0 -0.15504438278E+02 -0.31597879079E+02 -0.69709792637E+02  0.12557257073E+03  0.98337184022E+02 0.  0.
        -11    1    4    4    0    0 -0.27460712791E+02 -0.92151898202E+01 -0.89065593549E+02  0.93657303104E+02  0.00000000000E+00 0.  1.
         11    1    4    4    0    0  0.11956274513E+02 -0.22382689259E+02  0.19355800911E+02  0.31915267626E+02  0.00000000000E+00 0. -1.
        -13    1    3    3    0    0  0.26975246275E+02 -0.25197846029E+02 -0.89409348674E+02  0.96729659290E+02  0.00000000000E+00 0.  1.
         13    1    3    3    0    0  0.20263161438E+02  0.58210430527E+02 -0.75372917945E+02  0.97365942162E+02  0.00000000000E+00 0. -1.
         21    1    1    2  502  501 -0.31733969434E+02 -0.14147054187E+01 -0.32721606461E+02  0.45604273231E+02  0.00000000000E+00 0. -1.
<scales pt_clust_5="13000.00000" pt_clust_6="13000.00000" pt_clust_7="13000.00000" pt_clust_8="13000.00000" pt_clust_9="31.76549"></scales>
<clustering>
<clus scale="   31.765">  1  9  2 -1</clus>
<clus scale="   84.845">  7  8 -1 -1</clus>
<clus scale="   97.854">  2  7  1 -1</clus>
<clus scale="   98.337">  5  6 -1 -1</clus>
<clus scale="   31.765">  1  5  2 -1</clus>
</clustering>
</event>
<event>
 9    1  0.2423659E-006  0.1430278E+03  0.7546771E-02  0.1222680E+00
         -1   -1    0    0    0  501 -0.00000000000E+00  0.00000000000E+00  0.98784266839E+02  0.98784266839E+02  0.00000000000E+00 0.  1.
          1   -1    0    0  502    0  0.00000000000E+00 -0.00000000000E+00 -0.43453464156E+03  0.43453464156E+03  0.00000000000E+00 0. -1.
         23    2    1    2    0    0 -0.85642871167E+02 -0.31093771882E+02 -0.32203129922E+02  0.13354890191E+03  0.92177782530E+02 0.  0.
         23    2    1    2    0    0 -0.59115335813E+02 -0.13083424932E+02 -0.14354215596E+03  0.17952425361E+03  0.89212152545E+02 0.  0.
        -11    1    3    3    0    0 -0.29613792795E+02 -0.20516267202E+01  0.31912911327E+02  0.43584628085E+02  0.00000000000E+00 0.  1.
         11    1    3    3    0    0 -0.56029078372E+02 -0.29042145162E+02 -0.64116041249E+02  0.89964273821E+02  0.00000000000E+00 0. -1.
        -13    1    4    4    0    0 -0.48865109929E+02  0.28424560639E+02 -0.45507135202E+02  0.72571716048E+02  0.00000000000E+00 0. -1.
         13    1    4    4    0    0 -0.10250225884E+02 -0.41507985570E+02 -0.98035020753E+02  0.10695253756E+03  0.00000000000E+00 0.  1.
         21    1    1    2  502  501  0.14475820698E+03  0.44177196814E+02 -0.16000508884E+03  0.22024575288E+03  0.00000000000E+00 0.  1.
<scales pt_clust_5="13000.00000" pt_clust_6="13000.00000" pt_clust_7="13000.00000" pt_clust_8="13000.00000" pt_clust_9="109.36278"></scales>
<clustering>
<clus scale="   89.212">  7  8 -1 -1</clus>
<clus scale="   92.178">  5  6 -1 -1</clus>
<clus scale="  107.817">  2  7  1 -1</clus>
<clus scale="  109.363">  2  9  1 -1</clus>
<clus scale="  107.817">  2  5  1 -1</clus>
</clustering>
</event>
<event>
 9    1  0.2423659E-006  0.9203030E+02  0.7546771E-02  0.1299295E+00
         -2   -1    0    0    0  501 -0.00000000000E+00  0.00000000000E+00  0.22142680718E+03  0.22142680718E+03  0.00000000000E+00 0. -1.
          2   -1    0    0  502    0  0.00000000000E+00 -0.00000000000E+00 -0.47907625637E+03  0.47907625637E+03  0.00000000000E+00 0.  1.
         23    2    1    2    0    0 -0.19395669054E+02  0.58175894896E+01  0.20183313446E+03  0.22180156846E+03  0.89717809149E+02 0.  0.
         23    2    1    2    0    0  0.25360402584E+02 -0.25414519991E+02 -0.44126810942E+03  0.45129009595E+03  0.87499476933E+02 0.  0.
        -11    1    4    4    0    0  0.53270807177E+02 -0.81997112460E+00 -0.32128248768E+03  0.32566990671E+03  0.00000000000E+00 0.  1.
         11    1    4    4    0    0 -0.27910404593E+02 -0.24594548866E+02 -0.11998562175E+03  0.12562018924E+03  0.00000000000E+00 0. -1.
        -11    1    3    3    0    0  0.35486432537E+02 -0.45630762058E+01  0.88277344357E+02  0.95252286510E+02  0.00000000000E+00 0.  1.
         11    1    3    3    0    0 -0.54882101591E+02  0.10380665695E+02  0.11355579010E+03  0.12654928195E+03  0.00000000000E+00 0. -1.
         21    1    1    2  502  501 -0.59647335298E+01  0.19596930501E+02 -0.18214474233E+02  0.27411399138E+02  0.00000000000E+00 0. -1.
<scales pt_clust_5="13000.00000" pt_clust_6="13000.00000" pt_clust_7="13000.00000" pt_clust_8="13000.00000" pt_clust_9="20.48457"></scales>
<clustering>
<clus scale="   20.485">  2  9  1 -1</clus>
<clus scale="   87.499">  5  6 -1 -1</clus>
<clus scale="   89.718">  7  8 -1 -1</clus>
<clus scale="   89.869">  2  5  1 -1</clus>
<clus scale="   20.485">  2  5  1 -1</clus>
</clustering>
</event>
<event>
 9    1  0.2423659E-006  0.1032683E+03  0.7546771E-02  0.1275765E+00
          2   -1    0    0  502    0  0.00000000000E+00  0.00000000000E+00  0.36718951756E+03  0.36718951756E+03  0.00000000000E+00 0. -1.
         -2   -1    0    0    0  501 -0.00000000000E+00 -0.00000000000E+00 -0.10011656977E+03  0.10011656977E+03  0.00000000000E+00 0.  1.
         23    2    1    2    0    0  0.26155825525E+02  0.24008912298E+02 -0.57427664086E+02  0.11399150475E+03  0.91845367193E+02 0.  0.
         23    2    1    2    0    0 -0.23163967297E+02 -0.45817655121E+02  0.20996381149E+03  0.23668160644E+03  0.96423823774E+02 0.  0.
        -11    1    4    4    0    0 -0.25060174090E+02 -0.67970616361E+02  0.94372493760E+02  0.11897136039E+03  0.00000000000E+00 0.  1.
         11    1    4    4    0    0  0.18962067926E+01  0.22152961240E+02  0.11559131773E+03  0.11771024605E+03  0.00000000000E+00 0. -1.
        -13    1    3    3    0    0 -0.16395283687E+02  0.34884505306E+02  0.36997938433E+01  0.38722377408E+02  0.00000000000E+00 0.  1.
         13    1    3    3    0    0  0.42551109213E+02 -0.10875593007E+02 -0.61127457930E+02  0.75269127346E+02  0.00000000000E+00 0. -1.
         21    1    1    2  502  501 -0.29918582282E+01  0.21808742822E+02  0.11453680039E+03  0.11663297614E+03  0.00000000000E+00 0.  1.
<scales pt_clust_5="13000.00000" pt_clust_6="13000.00000" pt_clust_7="13000.00000" pt_clust_8="13000.00000" pt_clust_9="22.01301"></scales>
<clustering>
<clus scale="   22.013">  1  9  2 -1</clus>
<clus scale="   91.845">  7  8 -1 -1</clus>
<clus scale="   96.424">  5  6 -1 -1</clus>
<clus scale="   99.007">  2  7  1 -1</clus>
<clus scale="   22.013">  1  5  2 -1</clus>
</clustering>
</event>
<event>
 9    1  0.2423659E-006  0.1648006E+03  0.7546771E-02  0.1183571E+00
          1   -1    0    0  502    0  0.00000000000E+00  0.00000000000E+00  0.87005036762E+03  0.87005036762E+03  0.00000000000E+00 0. -1.
         -1   -1    0    0    0  501 -0.00000000000E+00 -0.00000000000E+00 -0.12184809932E+03  0.12184809932E+03  0.00000000000E+00 0.  1.
         23    2    1    2    0    0  0.66844417274E+02 -0.93511200614E+02 -0.58400105454E+02  0.15707140694E+03  0.89712506368E+02 0.  0.
         23    2    1    2    0    0 -0.87238563410E+02  0.10853350074E+03  0.78207599763E+03  0.79956895705E+03  0.90981114963E+02 0.  0.
        -11    1    4    4    0    0  0.18574317341E+02  0.16265681718E+02  0.85871704687E+02  0.89350586637E+02  0.00000000000E+00 0.  1.
         11    1    4    4    0    0 -0.10581288075E+03  0.92267819022E+02  0.69620429295E+03  0.71021837042E+03  0.00000000000E+00 0. -1.
        -13    1    3    3    0    0  0.18264841230E+02 -0.52823245289E+02  0.17150699868E+02  0.58464058823E+02  0.00000000000E+00 0. -1.
         13    1    3    3    0    0  0.48579576044E+02 -0.40687955325E+02 -0.75550805322E+02  0.98607348113E+02  0.00000000000E+00 0.  1.
         21    1    1    2  502  501  0.20394146136E+02 -0.15022300126E+02  0.24526376122E+02  0.35258102946E+02  0.00000000000E+00 0.  1.
<scales pt_clust_5="13000.00000" pt_clust_6="13000.00000" pt_clust_7="13000.00000" pt_clust_8="13000.00000" pt_clust_9="25.32964"></scales>
<clustering>
<clus scale="   25.330">  2  9  1 -1</clus>
<clus scale="   89.713">  7  8 -1 -1</clus>
<clus scale="   90.981">  5  6 -1 -1</clus>
<clus scale="  164.104">  2  7  1 -1</clus>
<clus scale="  164.801">  1  5  2 -1</clus>
</clustering>
</event>
<event>
 9    1  0.2423659E-006  0.9427328E+02  0.7546771E-02  0.1294369E+00
          2   -1    0    0  502    0  0.00000000000E+00  0.00000000000E+00  0.70030664678E+02  0.70030664678E+02  0.00000000000E+00 0. -1.
         -2   -1    0    0    0  501 -0.00000000000E+00 -0.00000000000E+00 -0.21376228119E+03  0.21376228119E+03  0.00000000000E+00 0.  1.
         23    2    1    2    0    0 -0.28510670147E+02  0.62524137879E+00 -0.81128975281E+02  0.12667359976E+03  0.93010972508E+02 0.  0.
         23    2    1    2    0    0 -0.24098176284E+01 -0.19474124246E+02 -0.95615867346E+01  0.92895437695E+02  0.90294460891E+02 0.  0.
        -11    1    3    3    0    0 -0.62808166765E+02  0.29606965025E+00 -0.56078102364E+02  0.84200398065E+02  0.00000000000E+00 0. -1.
         11    1    3    3    0    0  0.34297496618E+02  0.32917172854E+00 -0.25050872917E+02  0.42473201695E+02  0.00000000000E+00 0.  1.
        -11    1    4    4    0    0  0.28028914257E+02 -0.80257470572E+01 -0.39228218044E+02  0.48876228794E+02  0.00000000000E+00 0.  1.
         11    1    4    4    0    0 -0.30438731885E+02 -0.11448377189E+02  0.29666631309E+02  0.44019208901E+02  0.00000000000E+00 0. -1.
         21    1    1    2  502  501  0.30920487776E+02  0.18848882868E+02 -0.53041054493E+02  0.64223908409E+02  0.00000000000E+00 0.  1.
<scales pt_clust_5="13000.00000" pt_clust_6="13000.00000" pt_clust_7="13000.00000" pt_clust_8="13000.00000" pt_clust_9="36.21266"></scales>
<clustering>
<clus scale="   36.213">  2  9  1 -1</clus>
<clus scale="   90.294">  7  8 -1 -1</clus>
<clus scale="   91.594">  1  7  2 -1</clus>
<clus scale="   93.011">  5  6 -1 -1</clus>
<clus scale="   91.594">  1  5  2 -1</clus>
</clustering>
</event>
<event>
 9    1  0.2423659E-006  0.1054988E+03  0.7546771E-02  0.1269492E+00
         -1   -1    0    0    0  501 -0.00000000000E+00  0.00000000000E+00  0.14269031189E+03  0.14269031189E+03  0.00000000000E+00 0.  1.
          1   -1    0    0  502    0  0.00000000000E+00 -0.00000000000E+00 -0.40414270779E+03  0.40414270779E+03  0.00000000000E+00 0. -1.
         23    2    1    2    0    0 -0.97923227045E+02  0.77705828587E+02 -0.13623820709E+03  0.20604213133E+03  0.90914006746E+02 0.  0.
         23    2    1    2    0    0  0.28522616636E+02 -0.13851481121E+02 -0.19921064353E+03  0.22091888275E+03  0.90082568063E+02 0.  0.
        -11    1    3    3    0    0  0.45030818123E+01  0.41759293737E+02 -0.18486255922E+02  0.45889628646E+02  0.00000000000E+00 0.  1.
         11    1    3    3    0    0 -0.10242630886E+03  0.35946534849E+02 -0.11775195116E+03  0.16015250269E+03  0.00000000000E+00 0. -1.
        -13    1    4    4    0    0  0.37358273178E+02  0.31158116313E+02 -0.86654591199E+02  0.99375484718E+02  0.00000000000E+00 0.  1.
         13    1    4    4    0    0 -0.88356565411E+01 -0.45009597435E+02 -0.11255605233E+03  0.12154339803E+03  0.00000000000E+00 0. -1.
         21    1    1    2  502  501  0.69400610409E+02 -0.63854347465E+02  0.73996454715E+02  0.11987200560E+03  0.00000000000E+00 0.  1.
<scales pt_clust_5="13000.00000" pt_clust_6="13000.00000" pt_clust_7="13000.00000" pt_clust_8="13000.00000" pt_clust_9="94.30706"></scales>
<clustering>
<clus scale="   90.083">  7  8 -1 -1</clus>
<clus scale="   90.914">  5  6 -1 -1</clus>
<clus scale="   94.307">  1  9  2 -1</clus>
<clus scale="  104.783">  2  7  1 -1</clus>
<clus scale="  104.783">  2  5  1 -1</clus>
</clustering>
</event>
<event>
 9    1  0.2423659E-006  0.1982984E+03  0.7546771E-02  0.1179567E+00
         -1   -1    0    0    0  501 -0.00000000000E+00  0.00000000000E+00  0.44423372186E+03  0.44423372186E+03  0.00000000000E+00 0.  1.
          1   -1    0    0  502    0  0.00000000000E+00 -0.00000000000E+00 -0.28892975106E+03  0.28892975106E+03  0.00000000000E+00 0. -1.
         23    2    1    2    0    0 -0.28439071171E+02  0.40370402801E+02  0.86536627166E+02  0.13455969823E+03  0.90438787883E+02 0.  0.
         23    2    1    2    0    0 -0.11839073883E+03  0.61671188159E+02  0.27848111334E+03  0.32301105963E+03  0.94682161304E+02 0.  0.
        -13    1    4    4    0    0 -0.95990981202E+02  0.15103940634E+01  0.13332082661E+03  0.16428935623E+03  0.00000000000E+00 0.  1.
         13    1    4    4    0    0 -0.22399757626E+02  0.60160794096E+02  0.14516028673E+03  0.15872170340E+03  0.00000000000E+00 0. -1.
        -13    1    3    3    0    0 -0.37764583347E+02  0.84926848036E+01  0.92990251706E+02  0.10072475546E+03  0.00000000000E+00 0.  1.
         13    1    3    3    0    0  0.93255121761E+01  0.31877717998E+02 -0.64536245400E+01  0.33834942763E+02  0.00000000000E+00 0. -1.
         21    1    1    2  502  501  0.14682981000E+03 -0.10204159096E+03 -0.20971376970E+03  0.27559271506E+03  0.00000000000E+00 0. -1.
<scales pt_clust_5="13000.00000" pt_clust_6="13000.00000" pt_clust_7="13000.00000" pt_clust_8="13000.00000" pt_clust_9="174.23416"></scales>
<clustering>
<clus scale="   90.439">  7  8 -1 -1</clus>
<clus scale="   94.682">  5  6 -1 -1</clus>
<clus scale="  103.042">  1  7  2 -1</clus>
<clus scale="  174.234">  2  9  1 -1</clus>
<clus scale="  174.234">  2  5  1 -1</clus>
</clustering>
</event>
<event>
 9    1  0.2423659E-006  0.1649124E+03  0.7546771E-02  0.1204604E+00
          2   -1    0    0  502    0  0.00000000000E+00  0.00000000000E+00  0.11386474477E+04  0.11386474477E+04  0.00000000000E+00 0. -1.
         -2   -1    0    0    0  501 -0.00000000000E+00 -0.00000000000E+00 -0.65735515376E+02  0.65735515376E+02  0.00000000000E+00 0.  1.
         23    2    1    2    0    0 -0.11967217086E+03 -0.53637973037E+02  0.94112897556E+02  0.18593385293E+03  0.92280548045E+02 0.  0.
         23    2    1    2    0    0 -0.29431800292E+02 -0.19934924692E+02  0.24156117283E+03  0.26269476476E+03  0.96918043337E+02 0.  0.
        -11    1    4    4    0    0 -0.55881374075E+02  0.16305284719E+02  0.14348735683E+03  0.15484576794E+03  0.00000000000E+00 0. -1.
         11    1    4    4    0    0  0.26449573783E+02 -0.36240209411E+02  0.98073815997E+02  0.10784899682E+03  0.00000000000E+00 0.  1.
        -11    1    3    3    0    0 -0.10211248305E+03 -0.13030606790E+02  0.97207861594E+02  0.14158433622E+03  0.00000000000E+00 0. -1.
         11    1    3    3    0    0 -0.17559687814E+02 -0.40607366247E+02 -0.30949640382E+01  0.44349516706E+02  0.00000000000E+00 0.  1.
         21    1    1    2  502  501  0.14910397116E+03  0.73572897729E+02  0.73723786195E+03  0.75575434540E+03  0.00000000000E+00 0. -1.
<scales pt_clust_5="13000.00000" pt_clust_6="13000.00000" pt_clust_7="13000.00000" pt_clust_8="13000.00000" pt_clust_9="136.67624"></scales>
<clustering>
<clus scale="   92.281">  7  8 -1 -1</clus>
<clus scale="   96.918">  5  6 -1 -1</clus>
<clus scale="  103.231">  1  5  2 -1</clus>
<clus scale="  136.676">  1  9  2 -1</clus>
<clus scale="  103.231">  1  5  2 -1</clus>
</clustering>
</event>
<event>
 9    1  0.2423659E-006  0.9381278E+02  0.7546771E-02  0.1294172E+00
          2   -1    0    0  502    0  0.00000000000E+00  0.00000000000E+00  0.48277456647E+03  0.48277456647E+03  0.00000000000E+00 0. -1.
         -2   -1    0    0    0  501 -0.00000000000E+00 -0.00000000000E+00 -0.73921443020E+02  0.73921443020E+02  0.00000000000E+00 0.  1.
         23    2    1    2    0    0  0.11568574882E+02 -0.79088766571E+02  0.76132906573E+02  0.14393921012E+03  0.92376467911E+02 0.  0.
         23    2    1    2    0    0 -0.13019054355E+02 -0.13876887806E+02  0.29928646929E+03  0.31395127189E+03  0.92902888152E+02 0.  0.
        -11    1    4    4    0    0 -0.30560678680E+02 -0.47423980650E+02  0.16210123341E+03  0.17163857053E+03  0.00000000000E+00 0.  1.
         11    1    4    4    0    0  0.17541624325E+02  0.33547092845E+02  0.13718523588E+03  0.14231270135E+03  0.00000000000E+00 0. -1.
        -13    1    3    3    0    0 -0.13318183611E+02 -0.90282268049E+02  0.42618332898E+02  0.10072032683E+03  0.00000000000E+00 0.  1.
         13    1    3    3    0    0  0.24886758493E+02  0.11193501478E+02  0.33514573675E+02  0.43218883283E+02  0.00000000000E+00 0. -1.
         21    1    1    2  502  501  0.14504794726E+01  0.92965654377E+02  0.33433747589E+02  0.98805527488E+02  0.00000000000E+00 0. -1.
<scales pt_clust_5="13000.00000" pt_clust_6="13000.00000" pt_clust_7="13000.00000" pt_clust_8="13000.00000" pt_clust_9="92.97697"></scales>
<clustering>
<clus scale="   92.376">  7  8 -1 -1</clus>
<clus scale="   92.903">  5  6 -1 -1</clus>
<clus scale="   92.977">  2  9  1 -1</clus>
<clus scale="   93.291">  2  7  1 -1</clus>
<clus scale="   93.813">  1  5  2 -1</clus>
</clustering>
</event>
<event>
 9    1  0.2423659E-006  0.2463293E+03  0.7546771E-02  0.1133042E+00
         -3   -1    0    0    0  501 -0.00000000000E+00  0.00000000000E+00  0.34536696794E+03  0.34536696794E+03  0.00000000000E+00 0.  1.
          3   -1    0    0  502    0  0.00000000000E+00 -0.00000000000E+00 -0.45383796903E+03  0.45383796903E+03  0.00000000000E+00 0. -1.
         23    2    1    2    0    0  0.76929866100E+02 -0.21692490025E+03  0.10785714747E+03  0.26990998302E+03  0.90794372234E+02 0.  0.
         23    2    1    2    0    0  0.11556563593E+03  0.59996337985E+02 -0.23045352905E+03  0.28053680166E+03  0.92935952437E+02 0.  0.
        -11    1    3    3    0    0  0.79894491484E+02 -0.17367759809E+03  0.11895816673E+03  0.22516234872E+03  0.00000000000E+00 0.  1.
         11    1    3    3    0    0 -0.29646253840E+01 -0.43247302155E+02 -0.11101019258E+02  0.44747634305E+02  0.00000000000E+00 0. -1.
        -13    1    4    4    0    0  0.12844720105E+02 -0.22641999204E+02 -0.57044476736E+02  0.62703423261E+02  0.00000000000E+00 0. -1.
         13    1    4    4    0    0  0.10272091582E+03  0.82638337189E+02 -0.17340905231E+03  0.21783337840E+03  0.00000000000E+00 0.  1.
         21    1    1    2  502  501 -0.19249550203E+03  0.15692856226E+03  0.14125380486E+02  0.24875815229E+03  0.00000000000E+00 0. -1.
<scales pt_clust_5="13000.00000" pt_clust_6="13000.00000" pt_clust_7="13000.00000" pt_clust_8="13000.00000" pt_clust_9="228.98584"></scales>
<clustering>
<clus scale="   90.794">  5  6 -1 -1</clus>
<clus scale="   92.936">  7  8 -1 -1</clus>
<clus scale="  159.975">  2  7  1 -1</clus>
<clus scale="  228.986">  2  9  1 -1</clus>
<clus scale="  159.975">  2  5  1 -1</clus>
</clustering>
</event>
<event>
 9    1  0.2423659E-006  0.2057995E+03  0.7546771E-02  0.1145067E+00
         -1   -1    0    0    0  501 -0.00000000000E+00  0.00000000000E+00  0.22055639654E+03  0.22055639654E+03  0.00000000000E+00 0.  1.
          1   -1    0    0  502    0  0.00000000000E+00 -0.00000000000E+00 -0.69385271349E+03  0.69385271349E+03  0.00000000000E+00 0. -1.
         23    2    1    2    0    0  0.17769610376E+03  0.73482594414E+02  0.87188938708E+02  0.22941454734E+03  0.89741442629E+02 0.  0.
         23    2    1    2    0    0 -0.18722119892E+03  0.78306932093E+02 -0.22392275203E+03  0.31566394300E+03  0.91206211935E+02 0.  0.
        -11    1    4    4    0    0 -0.17209474777E+03  0.53218243132E+02 -0.22257613680E+03  0.28633707459E+03  0.00000000000E+00 0. -1.
         11    1    4    4    0    0 -0.15126451151E+02  0.25088688961E+02 -0.13466152284E+01  0.29326868411E+02  0.00000000000E+00 0.  1.
        -13    1    3    3    0    0  0.10095940138E+03 -0.66793514286E+01  0.44071568545E+02  0.11036175794E+03  0.00000000000E+00 0.  1.
         13    1    3    3    0    0  0.76736702381E+02  0.80161945843E+02  0.43117370164E+02  0.11905278940E+03  0.00000000000E+00 0. -1.
         21    1    1    2  502  501  0.95250951599E+01 -0.15178952651E+03 -0.33656250362E+03  0.36933061969E+03  0.00000000000E+00 0. -1.
<scales pt_clust_5="13000.00000" pt_clust_6="13000.00000" pt_clust_7="13000.00000" pt_clust_8="13000.00000" pt_clust_9="152.08809"></scales>
<clustering>
<clus scale="   89.741">  7  8 -1 -1</clus>
<clus scale="   91.206">  5  6 -1 -1</clus>
<clus scale="  152.088">  2  9  1 -1</clus>
<clus scale="  205.155">  1  7  2 -1</clus>
<clus scale="  152.088">  2  5  1 -1</clus>
</clustering>
</event>
<event>
 9    1  0.2423659E-006  0.2348811E+03  0.7546771E-02  0.1153987E+00
          2   -1    0    0  502    0  0.00000000000E+00  0.00000000000E+00  0.22053016526E+04  0.22053016526E+04  0.00000000000E+00 0. -1.
         -2   -1    0    0    0  501 -0.00000000000E+00 -0.00000000000E+00 -0.54641955228E+02  0.54641955228E+02  0.00000000000E+00 0.  1.
         23    2    1    2    0    0 -0.15386435033E+02  0.61521122019E+02  0.11749048664E+03  0.16210609813E+03  0.91939011115E+02 0.  0.
         23    2    1    2    0    0 -0.16141131755E+03 -0.17543544728E+03  0.64564901759E+03  0.69446792003E+03  0.92692116367E+02 0.  0.
        -11    1    3    3    0    0 -0.50043589958E+02  0.21356372832E+02  0.37343804498E+02  0.65992539660E+02  0.00000000000E+00 0.  1.
         11    1    3    3    0    0  0.34657154925E+02  0.40164749186E+02  0.80146682138E+02  0.96113558473E+02  0.00000000000E+00 0. -1.
        -13    1    4    4    0    0 -0.58611806685E+02 -0.92635252947E+02  0.18264910087E+03  0.21301954845E+03  0.00000000000E+00 0.  1.
         13    1    4    4    0    0 -0.10279951086E+03 -0.82800194332E+02  0.46299991672E+03  0.48144837158E+03  0.00000000000E+00 0. -1.
         21    1    1    2  502  501  0.17679775258E+03  0.11391432526E+03  0.13875201932E+04  0.14033695897E+04  0.00000000000E+00 0. -1.
<scales pt_clust_5="13000.00000" pt_clust_6="13000.00000" pt_clust_7="13000.00000" pt_clust_8="13000.00000" pt_clust_9="215.81771"></scales>
<clustering>
<clus scale="   91.939">  5  6 -1 -1</clus>
<clus scale="   92.692">  7  8 -1 -1</clus>
<clus scale="  111.689">  2  5  1 -1</clus>
<clus scale="  215.818">  1  9  2 -1</clus>
<clus scale="  215.818">  1  5  2 -1</clus>
</clustering>
</event>
<event>
 9    1  0.2423659E-006  0.1783934E+03  0.7546771E-02  0.1192599E+00
          1   -1    0    0  502    0  0.00000000000E+00  0.00000000000E+00  0.46572844971E+03  0.46572844971E+03  0.00000000000E+00 0. -1.
         -1   -1    0    0    0  501 -0.00000000000E+00 -0.00000000000E+00 -0.13583881327E+03  0.13583881327E+03  0.00000000000E+00 0.  1.
         23    2    1    2    0    0  0.50570465205E+02 -0.16701644352E+03  0.19015457239E+03  0.27374535810E+03  0.91246344153E+02 0.  0.
         23    2    1    2    0    0 -0.47534856408E+02  0.18826491027E+02  0.14493663550E+03  0.17950962189E+03  0.92752771940E+02 0.  0.
        -11    1    3    3    0    0  0.12481916494E+01 -0.11821901900E+03  0.77250084252E+02  0.14122630758E+03  0.00000000000E+00 0.  1.
         11    1    3    3    0    0  0.49322273556E+02 -0.48797424525E+02  0.11290448814E+03  0.13251905052E+03  0.00000000000E+00 0. -1.
        -11    1    4    4    0    0 -0.35106928244E+02  0.55559132529E+02  0.76536143908E+02  0.10088158872E+03  0.00000000000E+00 0.  1.
         11    1    4    4    0    0 -0.12427928163E+02 -0.36732641502E+02  0.68400491589E+02  0.78628033168E+02  0.00000000000E+00 0. -1.
         21    1    1    2  502  501 -0.30356087974E+01  0.14818995250E+03 -0.52015714477E+01  0.14831228299E+03  0.00000000000E+00 0.  1.
<scales pt_clust_5="13000.00000" pt_clust_6="13000.00000" pt_clust_7="13000.00000" pt_clust_8="13000.00000" pt_clust_9="153.29163"></scales>
<clustering>
<clus scale="   91.246">  5  6 -1 -1</clus>
<clus scale="   92.753">  7  8 -1 -1</clus>
<clus scale="  105.911">  1  7  2 -1</clus>
<clus scale="  153.292">  2  9  1 -1</clus>
<clus scale="  105.911">  1  5  2 -1</clus>
</clustering>
</event>
<event>
 9    1  0.2423659E-006  0.9066834E+02  0.7546771E-02  0.1306222E+00
          1   -1    0    0  502    0  0.00000000000E+00  0.00000000000E+00  0.11600180486E+03  0.11600180486E+03  0.00000000000E+00 0. -1.
         -1   -1    0    0    0  501 -0.00000000000E+00 -0.00000000000E+00 -0.10119859979E+03  0.10119859979E+03  0.00000000000E+00 0.  1.
         23    2    1    2    0    0  0.16509020150E+01 -0.73499050930E+01 -0.24682678222E+02  0.85136891533E+02  0.81131431107E+02 0.  0.
         23    2    1    2    0    0 -0.12805263958E+02  0.34217558302E+02  0.35458022113E+02  0.10269492029E+03  0.89186093310E+02 0.  0.
        -11    1    4    4    0    0 -0.51183780720E+02  0.21823763944E+02  0.25187920402E+02  0.61077716195E+02  0.00000000000E+00 0. -1.
         11    1    4    4    0    0  0.38378516762E+02  0.12393794359E+02  0.10270101711E+02  0.41617204094E+02  0.00000000000E+00 0.  1.
        -13    1    3    3    0    0  0.29372566563E+02  0.24553724640E+02 -0.18156855240E+02  0.42371033176E+02  0.00000000000E+00 0.  1.
         13    1    3    3    0    0 -0.27721664548E+02 -0.31903629733E+02 -0.65258229815E+01  0.42765858357E+02  0.00000000000E+00 0. -1.
         21    1    1    2  502  501  0.11154361943E+02 -0.26867653209E+02  0.40278611816E+01  0.29368592834E+02  0.00000000000E+00 0. -1.
<scales pt_clust_5="13000.00000" pt_clust_6="13000.00000" pt_clust_7="13000.00000" pt_clust_8="13000.00000" pt_clust_9="29.09107"></scales>
<clustering>
<clus scale="   29.091">  1  9  2 -1</clus>
<clus scale="   81.131">  7  8 -1 -1</clus>
<clus scale="   82.758">  2  7  1 -1</clus>
<clus scale="   89.186">  5  6 -1 -1</clus>
<clus scale="   29.091">  1  5  2 -1</clus>
</clustering>
</event>
<event>
 9    1  0.2423659E-006  0.9320266E+02  0.7546771E-02  0.1295496E+00
          1   -1    0    0  502    0  0.00000000000E+00  0.00000000000E+00  0.47376895615E+03  0.47376895615E+03  0.00000000000E+00 0. -1.
         -1   -1    0    0    0  501 -0.00000000000E+00 -0.00000000000E+00 -0.10901361598E+03  0.10901361598E+03  0.00000000000E+00 0.  1.
         23    2    1    2    0    0 -0.22933373279E+02 -0.64228421402E+01 -0.36637651059E+02  0.10276257578E+03  0.93008800631E+02 0.  0.
         23    2    1    2    0    0 -0.67864926823E+02 -0.15437615252E+02  0.63938224525E+02  0.12988012363E+03  0.89088617127E+02 0.  0.
        -11    1    3    3    0    0  0.29426479242E+02 -0.24863388402E+02 -0.49441094284E+01  0.38840056404E+02  0.00000000000E+00 0. -1.
         11    1    3    3    0    0 -0.52359852521E+02  0.18440546262E+02 -0.31693541631E+02  0.63922519377E+02  0.00000000000E+00 0.  1.
        -13    1    4    4    0    0 -0.13938908311E+02 -0.42598034361E+02  0.43219924100E+01  0.45028494476E+02  0.00000000000E+00 0. -1.
         13    1    4    4    0    0 -0.53926018512E+02  0.27160419109E+02  0.59616232115E+02  0.84851629156E+02  0.00000000000E+00 0.  1.
         21    1    1    2  502  501  0.90798300103E+02  0.21860457393E+02  0.33745476670E+03  0.35013987272E+03  0.00000000000E+00 0. -1.
<scales pt_clust_5="13000.00000" pt_clust_6="13000.00000" pt_clust_7="13000.00000" pt_clust_8="13000.00000" pt_clust_9="93.39278"></scales>
<clustering>
<clus scale="   89.089">  7  8 -1 -1</clus>
<clus scale="   93.009">  5  6 -1 -1</clus>
<clus scale="   93.393">  1  9  2 -1</clus>
<clus scale="   93.393">  1  7  2 -1</clus>
<clus scale="   93.203">  1  5  2 -1</clus>
</clustering>
</event>
<event>
 9    1  0.2423659E-006  0.1078221E+03  0.7546771E-02  0.1265012E+00
          2   -1    0    0  502    0  0.00000000000E+00  0.00000000000E+00  0.59385143521E+03  0.59385143521E+03  0.00000000000E+00 0. -1.
         -2   -1    0    0    0  501 -0.00000000000E+00 -0.00000000000E+00 -0.61062496094E+02  0.61062496094E+02  0.00000000000E+00 0.  1.
         23    2    1    2    0    0  0.14131881847E+02 -0.23020714950E+02 -0.11942733508E+01  0.94159747391E+02  0.90194059331E+02 0.  0.
         23    2    1    2    0    0 -0.91093184650E+01  0.61237656783E+02  0.49021516158E+03  0.50243263503E+03  0.91074792372E+02 0.  0.
        -13    1    3    3    0    0  0.49294305756E+02  0.37596799000E+01 -0.55415547655E+01  0.49747086368E+02  0.00000000000E+00 0.  1.
         13    1    3    3    0    0 -0.35162423909E+02 -0.26780394850E+02  0.43472814147E+01  0.44412661023E+02  0.00000000000E+00 0. -1.
        -13    1    4    4    0    0 -0.34173381047E+01  0.83643185460E+02  0.42687203062E+03  0.43500297838E+03  0.00000000000E+00 0. -1.
         13    1    4    4    0    0 -0.56919803603E+01 -0.22405528677E+02  0.63343130963E+02  0.67429656650E+02  0.00000000000E+00 0.  1.
         21    1    1    2  502  501 -0.50225633825E+01 -0.38216941833E+02  0.43768050887E+02  0.58321548886E+02  0.00000000000E+00 0.  1.
<scales pt_clust_5="13000.00000" pt_clust_6="13000.00000" pt_clust_7="13000.00000" pt_clust_8="13000.00000" pt_clust_9="38.54557"></scales>
<clustering>
<clus scale="   38.546">  2  9  1 -1</clus>
<clus scale="   90.194">  5  6 -1 -1</clus>
<clus scale="   91.075">  7  8 -1 -1</clus>
<clus scale="  107.079">  2  5  1 -1</clus>
<clus scale="  107.822">  1  5  2 -1</clus>
</clustering>
</event>
<event>
 9    1  0.2423659E-006  0.1493149E+03  0.7546771E-02  0.1203397E+00
         -2   -1    0    0    0  501 -0.00000000000E+00  0.00000000000E+00  0.51707692130E+02  0.51707692130E+02  0.00000000000E+00 0.  1.
          2   -1    0    0  502    0  0.00000000000E+00 -0.00000000000E+00 -0.15573439853E+04  0.15573439853E+04  0.00000000000E+00 0. -1.
         23    2    1    2    0    0 -0.11286653548E+03  0.37939059717E+02 -0.17171681498E+03  0.23129757768E+03  0.99164902103E+02 0.  0.
         23    2    1    2    0    0  0.32128923880E+02 -0.13776853215E+03 -0.37856769177E+03  0.41381347850E+03  0.88970003546E+02 0.  0.
        -11    1    4    4    0    0  0.54340338686E+02 -0.96161404612E+02 -0.32053512852E+03  0.33903194062E+03  0.00000000000E+00 0.  1.
         11    1    4    4    0    0 -0.22211414806E+02 -0.41607127538E+02 -0.58032563259E+02  0.74781537883E+02  0.00000000000E+00 0. -1.
        -13    1    3    3    0    0 -0.15044449119E+02  0.53256167143E+02 -0.51971563321E+02  0.75918365249E+02  0.00000000000E+00 0. -1.
         13    1    3    3    0    0 -0.97822086365E+02 -0.15317107426E+02 -0.11974525166E+03  0.15537921243E+03  0.00000000000E+00 0.  1.
         21    1    1    2  502  501  0.80737611604E+02  0.99829472433E+02 -0.95535178639E+03  0.96394062122E+03  0.00000000000E+00 0. -1.
<scales pt_clust_5="13000.00000" pt_clust_6="13000.00000" pt_clust_7="13000.00000" pt_clust_8="13000.00000" pt_clust_9="128.39192"></scales>
<clustering>
<clus scale="   88.970">  5  6 -1 -1</clus>
<clus scale="   99.165">  7  8 -1 -1</clus>
<clus scale="  128.392">  2  9  1 -1</clus>
<clus scale="  142.748">  2  5  1 -1</clus>
<clus scale="  128.392">  2  5  1 -1</clus>
</clustering>
</event>
<event>
 9    1  0.2423659E-006  0.1312433E+03  0.7546771E-02  0.1240759E+00
          1   -1    0    0  502    0  0.00000000000E+00  0.00000000000E+00  0.21386636609E+03  0.21386636609E+03  0.00000000000E+00 0. -1.
         -1   -1    0    0    0  501 -0.00000000000E+00 -0.00000000000E+00 -0.19135348030E+03  0.19135348030E+03  0.00000000000E+00 0.  1.
         23    2    1    2    0    0 -0.19724771523E+02 -0.21415708286E+02 -0.59297079058E+02  0.11298388271E+03  0.91659778499E+02 0.  0.
         23    2    1    2    0    0 -0.61867637567E+02 -0.44351563913E+02 -0.49221637610E+02  0.12445057649E+03  0.85267289041E+02 0.  0.
        -11    1    3    3    0    0 -0.44482870787E+02 -0.43665867178E+02 -0.44315635669E+02  0.76480777419E+02  0.00000000000E+00 0.  1.
         11    1    3    3    0    0  0.24758099264E+02  0.22250158892E+02 -0.14981443389E+02  0.36503105292E+02  0.00000000000E+00 0. -1.
        -13    1    4    4    0    0 -0.50493527906E+02  0.15920276471E+02 -0.21546708825E+02  0.57160407840E+02  0.00000000000E+00 0. -1.
         13    1    4    4    0    0 -0.11374109661E+02 -0.60271840383E+02 -0.27674928785E+02  0.67290168651E+02  0.00000000000E+00 0.  1.
         21    1    1    2  502  501  0.81592409089E+02  0.65767272199E+02  0.13103160245E+03  0.16778538719E+03  0.00000000000E+00 0. -1.
<scales pt_clust_5="13000.00000" pt_clust_6="13000.00000" pt_clust_7="13000.00000" pt_clust_8="13000.00000" pt_clust_9="99.77124"></scales>
<clustering>
<clus scale="   85.267">  7  8 -1 -1</clus>
<clus scale="   91.660">  5  6 -1 -1</clus>
<clus scale="   96.173">  2  5  1 -1</clus>
<clus scale="   99.771">  1  9  2 -1</clus>
<clus scale="   99.771">  1  5  2 -1</clus>
</clustering>
</event>
<event>
 9    1  0.2423659E-006  0.1351014E+03  0.7546771E-02  0.1231938E+00
          1   -1    0    0  502    0  0.00000000000E+00  0.00000000000E+00  0.20134328964E+03  0.20134328964E+03  0.00000000000E+00 0. -1.
         -1   -1    0    0    0  501 -0.00000000000E+00 -0.00000000000E+00 -0.59490964973E+03  0.59490964973E+03  0.00000000000E+00 0.  1.
         23    2    1    2    0    0 -0.47513707646E+02 -0.13705795342E+02 -0.51602035453E+03  0.52671065520E+03  0.93282939380E+02 0.  0.
         23    2    1    2    0    0 -0.70265425388E+02 -0.17178418365E+02  0.42996939882E+02  0.12414908503E+03  0.91279408478E+02 0.  0.
        -11    1    3    3    0    0 -0.42174946645E+02 -0.51977417219E+02 -0.32872888390E+03  0.33547437627E+03  0.00000000000E+00 0.  1.
         11    1    3    3    0    0 -0.53387610014E+01  0.38271621877E+02 -0.18729147063E+03  0.19123627893E+03  0.00000000000E+00 0. -1.
        -13    1    4    4    0    0 -0.50745042495E+02  0.17214569340E+02  0.60572535689E+02  0.80872942416E+02  0.00000000000E+00 0.  1.
         13    1    4    4    0    0 -0.19520382893E+02 -0.34392987704E+02 -0.17575595807E+02  0.43276142613E+02  0.00000000000E+00 0. -1.
         21    1    1    2  502  501  0.11777913303E+03  0.30884213706E+02  0.79457054554E+02  0.14539319913E+03  0.00000000000E+00 0. -1.
<scales pt_clust_5="13000.00000" pt_clust_6="13000.00000" pt_clust_7="13000.00000" pt_clust_8="13000.00000" pt_clust_9="99.60144"></scales>
<clustering>
<clus scale="   91.279">  7  8 -1 -1</clus>
<clus scale="   93.283">  5  6 -1 -1</clus>
<clus scale="  105.580">  2  5  1 -1</clus>
<clus scale="   99.601">  2  9  1 -1</clus>
<clus scale="  135.101">  1  5  2 -1</clus>
</clustering>
</event>
<event>
 9    1  0.2423659E-006  0.1066316E+03  0.7546771E-02  0.1267568E+00
         -2   -1    0    0    0  501 -0.00000000000E+00  0.00000000000E+00  0.49904117378E+02  0.49904117378E+02  0.00000000000E+00 0.  1.
          2   -1    0    0  502    0  0.00000000000E+00 -0.00000000000E+00 -0.48079504456E+03  0.48079504456E+03  0.00000000000E+00 0. -1.
         23    2    1    2    0    0  0.33746359797E+02  0.41997389867E+02 -0.15996959670E+03  0.19171131419E+03  0.90886514754E+02 0.  0.
         23    2    1    2    0    0 -0.13341319264E+01 -0.57373582737E+02 -0.28134028390E+03  0.30163099546E+03  0.92387197003E+02 0.  0.
        -11    1    3    3    0    0  0.33276828759E+02  0.69913954895E+02 -0.11092701495E+03  0.13527790310E+03  0.00000000000E+00 0.  1.
         11    1    3    3    0    0  0.46953103826E+00 -0.27916565028E+02 -0.49042581752E+02  0.56433411090E+02  0.00000000000E+00 0. -1.
        -11    1    4    4    0    0 -0.38613965289E+02  0.92929308612E+00 -0.82544424133E+02  0.91134427394E+02  0.00000000000E+00 0.  1.
         11    1    4    4    0    0  0.37279833363E+02 -0.58302875823E+02 -0.19879585977E+03  0.21049656806E+03  0.00000000000E+00 0. -1.
         21    1    1    2  502  501 -0.32412227870E+02  0.15376192869E+02  0.10418953423E+02  0.37356852291E+02  0.00000000000E+00 0.  1.
<scales pt_clust_5="13000.00000" pt_clust_6="13000.00000" pt_clust_7="13000.00000" pt_clust_8="13000.00000" pt_clust_9="35.87450"></scales>
<clustering>
<clus scale="   35.875">  1  9  2 -1</clus>
<clus scale="   90.887">  5  6 -1 -1</clus>
<clus scale="   92.387">  7  8 -1 -1</clus>
<clus scale="  105.334">  1  5  2 -1</clus>
<clus scale="  106.632">  2  5  1 -1</clus>
</clustering>
</event>
<event>
 9    1  0.2423659E-006  0.9524691E+02  0.7546771E-02  0.1293493E+00
          1   -1    0    0  502    0  0.00000000000E+00  0.00000000000E+00  0.44794082295E+02  0.44794082295E+02  0.00000000000E+00 0. -1.
         -1   -1    0    0    0  501 -0.00000000000E+00 -0.00000000000E+00 -0.26447166154E+03  0.26447166154E+03  0.00000000000E+00 0.  1.
         23    2    1    2    0    0  0.78955847811E+01 -0.20992509943E+02 -0.13391039572E+03  0.16518558763E+03  0.94081127465E+02 0.  0.
         23    2    1    2    0    0  0.10000376988E+02  0.10893586287E+02 -0.50947780499E+02  0.10364941872E+03  0.89044078417E+02 0.  0.
        -13    1    4    4    0    0 -0.24587037132E+02  0.25822240939E+02  0.52022966051E+01  0.36032962853E+02  0.00000000000E+00 0. -1.
         13    1    4    4    0    0  0.34587414120E+02 -0.14928654651E+02 -0.56150077104E+02  0.67616455867E+02  0.00000000000E+00 0.  1.
        -13    1    3    3    0    0 -0.34799518974E+02  0.49532366517E+01 -0.19165052890E+02  0.40035488337E+02  0.00000000000E+00 0. -1.
         13    1    3    3    0    0  0.42695103755E+02 -0.25945746595E+02 -0.11474534283E+03  0.12515009929E+03  0.00000000000E+00 0.  1.
         21    1    1    2  502  501 -0.17895961769E+02  0.10098923656E+02 -0.34819403022E+02  0.40430737484E+02  0.00000000000E+00 0. -1.
<scales pt_clust_5="13000.00000" pt_clust_6="13000.00000" pt_clust_7="13000.00000" pt_clust_8="13000.00000" pt_clust_9="20.54881"></scales>
<clustering>
<clus scale="   20.549">  2  9  1 -1</clus>
<clus scale="   89.044">  5  6 -1 -1</clus>
<clus scale="   90.275">  1  5  2 -1</clus>
<clus scale="   94.081">  7  8 -1 -1</clus>
<clus scale="   90.275">  1  5  2 -1</clus>
</clustering>
</event>
<event>
 9    1  0.2423659E-006  0.1072048E+03  0.7546771E-02  0.1267152E+00
          2   -1    0    0  502    0  0.00000000000E+00  0.00000000000E+00  0.19932551251E+03  0.19932551251E+03  0.00000000000E+00 0. -1.
         -2   -1    0    0    0  501 -0.00000000000E+00 -0.00000000000E+00 -0.13853677526E+03  0.13853677526E+03  0.00000000000E+00 0.  1.
         23    2    1    2    0    0  0.29683323195E+02 -0.34987631733E+02 -0.14617179278E+02  0.10283651319E+03  0.90865023331E+02 0.  0.
         23    2    1    2    0    0  0.45079688648E+02  0.52134766666E+02  0.10095073548E+03  0.15417981023E+03  0.93968881356E+02 0.  0.
        -11    1    4    4    0    0  0.45724782447E+01 -0.27020001847E+02  0.19921669716E+02  0.33880097127E+02  0.00000000000E+00 0.  1.
         11    1    4    4    0    0  0.40507210403E+02  0.79154768512E+02  0.81029065768E+02  0.12029971310E+03  0.00000000000E+00 0. -1.
        -13    1    3    3    0    0  0.55557190171E+02 -0.46709354212E+02 -0.46460758829E+01  0.72732050512E+02  0.00000000000E+00 0.  1.
         13    1    3    3    0    0 -0.25873866977E+02  0.11721722479E+02 -0.99711033953E+01  0.30104462678E+02  0.00000000000E+00 0. -1.
         21    1    1    2  502  501 -0.74763011842E+02 -0.17147134933E+02 -0.25544818960E+02  0.80845964351E+02  0.00000000000E+00 0.  1.
<scales pt_clust_5="13000.00000" pt_clust_6="13000.00000" pt_clust_7="13000.00000" pt_clust_8="13000.00000" pt_clust_9="76.70419"></scales>
<clustering>
<clus scale="   76.704">  2  9  1 -1</clus>
<clus scale="   90.865">  7  8 -1 -1</clus>
<clus scale="   93.969">  5  6 -1 -1</clus>
<clus scale="  104.495">  2  7  1 -1</clus>
<clus scale="  107.205">  1  5  2 -1</clus>
</clustering>
</event>
<event>
 9    1  0.2423659E-006  0.1248959E+03  0.7546771E-02  0.1235364E+00
          2   -1    0    0  502    0  0.00000000000E+00  0.00000000000E+00  0.64995199381E+03  0.64995199381E+03  0.00000000000E+00 0. -1.
         -2   -1    0    0    0  501 -0.00000000000E+00 -0.00000000000E+00 -0.53419035775E+02  0.53419035775E+02  0.00000000000E+00 0.  1.
         23    2    1    2    0    0  0.11141857004E+03  0.48221805577E+02  0.24740866008E+03  0.29007777447E+03  0.90524194968E+02 0.  0.
         23    2    1    2    0    0 -0.68617381418E+02  0.36449324820E+02  0.24355012916E+03  0.27135296067E+03  0.90988271438E+02 0.  0.
        -11    1    3    3    0    0  0.56271049328E+02  0.42324230991E+01  0.35336772118E+02  0.66581017276E+02  0.00000000000E+00 0.  1.
         11    1    3    3    0    0  0.55147520714E+02  0.43989382478E+02  0.21207188796E+03  0.22349675719E+03  0.00000000000E+00 0. -1.
        -13    1    4    4    0    0 -0.89164852907E+02  0.40644860478E+02  0.18861813692E+03  0.21255393963E+03  0.00000000000E+00 0. -1.
         13    1    4    4    0    0  0.20547471489E+02 -0.41955356573E+01  0.54931992239E+02  0.58799021041E+02  0.00000000000E+00 0.  1.
         21    1    1    2  502  501 -0.42801188624E+02 -0.84671130398E+02  0.10557416880E+03  0.14194029445E+03  0.00000000000E+00 0.  1.
<scales pt_clust_5="13000.00000" pt_clust_6="13000.00000" pt_clust_7="13000.00000" pt_clust_8="13000.00000" pt_clust_9="94.87435"></scales>
<clustering>
<clus scale="   90.524">  5  6 -1 -1</clus>
<clus scale="   90.988">  7  8 -1 -1</clus>
<clus scale="   94.874">  2  9  1 -1</clus>
<clus scale="  124.558">  2  5  1 -1</clus>
<clus scale="  124.896">  1  5  2 -1</clus>
</clustering>
</event>
<event>
 9    1  0.2423659E-006  0.9536375E+02  0.7546771E-02  0.1291366E+00
         -2   -1    0    0    0  501 -0.00000000000E+00  0.00000000000E+00  0.72753484187E+02  0.72753484187E+02  0.00000000000E+00 0.  1.
          2   -1    0    0  502    0  0.00000000000E+00 -0.00000000000E+00 -0.24315973438E+03  0.24315973438E+03  0.00000000000E+00 0. -1.
         23    2    1    2    0    0 -0.47169129701E+02 -0.19216173211E+01 -0.51146365113E+02  0.11604599436E+03  0.92855278438E+02 0.  0.
         23    2    1    2    0    0 -0.82180333974E+01 -0.26408156471E+01 -0.10669989333E+03  0.14289085170E+03  0.94648921188E+02 0.  0.
        -11    1    3    3    0    0  0.25642249777E+02 -0.12558792988E+02 -0.44543953792E+01  0.28897921951E+02  0.00000000000E+00 0. -1.
         11    1    3    3    0    0 -0.72811379478E+02  0.10637175666E+02 -0.46691969734E+02  0.87148072413E+02  0.00000000000E+00 0.  1.
        -11    1    4    4    0    0  0.42039673105E+02  0.78077894583E+01 -0.58624849010E+02  0.72561481603E+02  0.00000000000E+00 0. -1.
         11    1    4    4    0    0 -0.50257706503E+02 -0.10448605105E+02 -0.48075044320E+02  0.70329370095E+02  0.00000000000E+00 0.  1.
         21    1    1    2  502  501  0.55387163098E+02  0.45624329683E+01 -0.12559991745E+02  0.56976372501E+02  0.00000000000E+00 0. -1.
<scales pt_clust_5="13000.00000" pt_clust_6="13000.00000" pt_clust_7="13000.00000" pt_clust_8="13000.00000" pt_clust_9="55.57476"></scales>
<clustering>
<clus scale="   55.575">  1  9  2 -1</clus>
<clus scale="   92.855">  5  6 -1 -1</clus>
<clus scale="   93.584">  1  5  2 -1</clus>
<clus scale="   94.649">  7  8 -1 -1</clus>
<clus scale="   95.364">  2  5  1 -1</clus>
</clustering>
</event>
<event>
 9    1  0.2423659E-006  0.1183095E+03  0.7546771E-02  0.1253940E+00
         -1   -1    0    0    0  501 -0.00000000000E+00  0.00000000000E+00  0.55221391977E+02  0.55221391977E+02  0.00000000000E+00 0.  1.
          1   -1    0    0  502    0  0.00000000000E+00 -0.00000000000E+00 -0.40379679333E+03  0.40379679333E+03  0.00000000000E+00 0. -1.
         23    2    1    2    0    0  0.59763628126E+02  0.29937632242E+02 -0.86544284006E+02  0.15476717858E+03  0.10952174853E+03 0.  0.
         23    2    1    2    0    0 -0.14706315214E+02 -0.38981669861E+02 -0.22218900075E+03  0.24342872201E+03  0.90298086086E+02 0.  0.
        -11    1    4    4    0    0 -0.49302633365E+02 -0.30898410600E+01 -0.10295308743E+03  0.11419122114E+03  0.00000000000E+00 0.  1.
         11    1    4    4    0    0  0.34596318151E+02 -0.35891828801E+02 -0.11923591332E+03  0.12923750087E+03  0.00000000000E+00 0. -1.
        -13    1    3    3    0    0 -0.13276501519E+02  0.32803719021E+02 -0.72015734097E+02  0.80240983492E+02  0.00000000000E+00 0. -1.
         13    1    3    3    0    0  0.73040129646E+02 -0.28660867788E+01 -0.14528549909E+02  0.74526195090E+02  0.00000000000E+00 0.  1.
         21    1    1    2  502  501 -0.45057312913E+02  0.90440376186E+01 -0.39842116591E+02  0.60822284714E+02  0.00000000000E+00 0. -1.
<scales pt_clust_5="13000.00000" pt_clust_6="13000.00000" pt_clust_7="13000.00000" pt_clust_8="13000.00000" pt_clust_9="45.95602"></scales>
<clustering>
<clus scale="   45.956">  1  9  2 -1</clus>
<clus scale="   90.298">  5  6 -1 -1</clus>
<clus scale="  100.776">  2  5  1 -1</clus>
<clus scale="  109.522">  7  8 -1 -1</clus>
<clus scale="  100.776">  2  5  1 -1</clus>
</clustering>
</event>
<event>
 9    1  0.2423659E-006  0.1204795E+03  0.7546771E-02  0.1242723E+00
          1   -1    0    0  502    0  0.00000000000E+00  0.00000000000E+00  0.45576005252E+02  0.45576005252E+02  0.00000000000E+00 0. -1.
         -1   -1    0    0    0  501 -0.00000000000E+00 -0.00000000000E+00 -0.59266382780E+03  0.59266382780E+03  0.00000000000E+00 0.  1.
         23    2    1    2    0    0  0.11009837122E+03 -0.21455039005E+02 -0.33768380601E+03  0.36697371506E+03  0.89762935898E+02 0.  0.
         23    2    1    2    0    0 -0.67416585514E+02 -0.70114038331E+01 -0.10372756448E+03  0.15379448006E+03  0.91099828092E+02 0.  0.
        -11    1    4    4    0    0 -0.33314950006E+02 -0.57333977393E+01  0.98422962958E+01  0.35208358949E+02  0.00000000000E+00 0. -1.
         11    1    4    4    0    0 -0.34101635508E+02 -0.12780060938E+01 -0.11356986078E+03  0.11858612111E+03  0.00000000000E+00 0.  1.
        -13    1    3    3    0    0  0.10629945158E+03  0.92432154716E+01 -0.29884568297E+03  0.31732278939E+03  0.00000000000E+00 0.  1.
         13    1    3    3    0    0  0.37989196319E+01 -0.30698254477E+02 -0.38838123042E+02  0.49650925669E+02  0.00000000000E+00 0. -1.
         21    1    1    2  502  501 -0.42681785701E+02  0.28466442838E+02 -0.10567645206E+03  0.11747163794E+03  0.00000000000E+00 0. -1.
<scales pt_clust_5="13000.00000" pt_clust_6="13000.00000" pt_clust_7="13000.00000" pt_clust_8="13000.00000" pt_clust_9="51.30373"></scales>
<clustering>
<clus scale="   51.304">  2  9  1 -1</clus>
<clus scale="   89.763">  7  8 -1 -1</clus>
<clus scale="   91.100">  5  6 -1 -1</clus>
<clus scale="  119.472">  2  7  1 -1</clus>
<clus scale="  120.480">  1  5  2 -1</clus>
</clustering>
</event>
<event>
 9    1  0.2423659E-006  0.2542681E+03  0.7546771E-02  0.1150725E+00
         -2   -1    0    0    0  501 -0.00000000000E+00  0.00000000000E+00  0.64275564559E+03  0.64275564559E+03  0.00000000000E+00 0.  1.
          2   -1    0    0  502    0  0.00000000000E+00 -0.00000000000E+00 -0.18906247560E+03  0.18906247560E+03  0.00000000000E+00 0. -1.
         23    2    1    2    0    0 -0.94820273345E+01 -0.40259955637E+02  0.27200060355E+03  0.28814096264E+03  0.85616079970E+02 0.  0.
         23    2    1    2    0    0  0.24476842921E+03  0.18701905858E+01  0.15991174770E+03  0.30428653836E+03  0.84281960257E+02 0.  0.
        -11    1    3    3    0    0  0.36533187207E+02 -0.45502205591E+01  0.10838857403E+03  0.11447035098E+03  0.00000000000E+00 0. -1.
         11    1    3    3    0    0 -0.46015214542E+02 -0.35709735078E+02  0.16361202952E+03  0.17367061166E+03  0.00000000000E+00 0.  1.
        -13    1    4    4    0    0  0.18479077041E+03  0.22791273921E+02  0.81164289301E+02  0.20311256203E+03  0.00000000000E+00 0.  1.
         13    1    4    4    0    0  0.59977658803E+02 -0.20921083335E+02  0.78747458400E+02  0.10117397634E+03  0.00000000000E+00 0. -1.
         21    1    1    2  502  501 -0.23528640188E+03  0.38389765051E+02  0.21780818738E+02  0.23939062019E+03  0.00000000000E+00 0. -1.
<scales pt_clust_5="13000.00000" pt_clust_6="13000.00000" pt_clust_7="13000.00000" pt_clust_8="13000.00000" pt_clust_9="239.89336"></scales>
<clustering>
<clus scale="   84.282">  7  8 -1 -1</clus>
<clus scale="   85.616">  5  6 -1 -1</clus>
<clus scale="   95.084">  1  5  2 -1</clus>
<clus scale="  239.893">  2  9  1 -1</clus>
<clus scale="  239.893">  2  5  1 -1</clus>
</clustering>
</event>
<event>
 9    1  0.2423659E-006  0.1301537E+03  0.7546771E-02  0.1243681E+00
         -2   -1    0    0    0  501 -0.00000000000E+00  0.00000000000E+00  0.52160069911E+03  0.52160069911E+03  0.00000000000E+00 0.  1.
          2   -1    0    0  502    0  0.00000000000E+00 -0.00000000000E+00 -0.73681018140E+02  0.73681018140E+02  0.00000000000E+00 0. -1.
         23    2    1    2    0    0  0.89208555019E+02 -0.13848386103E+02  0.35655617304E+03  0.37880888542E+03  0.90630695985E+02 0.  0.
         23    2    1    2    0    0  0.13774859465E+02  0.13266892356E+02  0.37217286252E+02  0.10012105868E+03  0.90957917789E+02 0.  0.
        -11    1    4    4    0    0 -0.38620989812E+01 -0.26734363807E+02 -0.15886716922E+02  0.31337354567E+02  0.00000000000E+00 0. -1.
         11    1    4    4    0    0  0.17636958446E+02  0.40001256164E+02  0.53104003174E+02  0.68783704109E+02  0.00000000000E+00 0.  1.
        -13    1    3    3    0    0  0.29620423046E+02  0.37116584270E+02  0.16842838608E+03  0.17499466143E+03  0.00000000000E+00 0.  1.
         13    1    3    3    0    0  0.59588131973E+02 -0.50964970373E+02  0.18812778696E+03  0.20381422400E+03  0.00000000000E+00 0. -1.
         21    1    1    2  502  501 -0.10298341448E+03  0.58149374604E+00  0.54146221677E+02  0.11635177315E+03  0.00000000000E+00 0.  1.
<scales pt_clust_5="13000.00000" pt_clust_6="13000.00000" pt_clust_7="13000.00000" pt_clust_8="13000.00000" pt_clust_9="93.41337"></scales>
<clustering>
<clus scale="   90.631">  7  8 -1 -1</clus>
<clus scale="   90.958">  5  6 -1 -1</clus>
<clus scale="   92.947">  2  5  1 -1</clus>
<clus scale="   93.413">  2  9  1 -1</clus>
<clus scale="   92.947">  2  5  1 -1</clus>
</clustering>
</event>
<event>
 9    1  0.2423659E-006  0.9492905E+02  0.7546771E-02  0.1292660E+00
         -1   -1    0    0    0  501 -0.00000000000E+00  0.00000000000E+00  0.15734297250E+03  0.15734297250E+03  0.00000000000E+00 0.  1.
          1   -1    0    0  502    0  0.00000000000E+00 -0.00000000000E+00 -0.10957409696E+03  0.10957409696E+03  0.00000000000E+00 0. -1.
         23    2    1    2    0    0  0.12780630627E+02  0.88737485341E+01  0.14640827124E+02  0.92618969201E+02  0.90121205632E+02 0.  0.
         23    2    1    2    0    0 -0.53087798739E+01  0.42742732558E+02 -0.15238571701E+02  0.10316850294E+03  0.92500819463E+02 0.  0.
        -13    1    3    3    0    0 -0.31430875244E+02  0.22552166689E+02  0.23831454352E+02  0.45436090914E+02  0.00000000000E+00 0.  1.
         13    1    3    3    0    0  0.44211505871E+02 -0.13678418155E+02 -0.91906272279E+01  0.47182878287E+02  0.00000000000E+00 0. -1.
        -13    1    4    4    0    0 -0.96659880303E+01 -0.28686230225E+02 -0.15594372994E+01  0.30311103144E+02  0.00000000000E+00 0. -1.
         13    1    4    4    0    0  0.43572081564E+01  0.71428962783E+02 -0.13679134402E+02  0.72857399797E+02  0.00000000000E+00 0.  1.
         21    1    1    2  502  501 -0.74718507535E+01 -0.51616481092E+02  0.48366620117E+02  0.71129597324E+02  0.00000000000E+00 0. -1.
<scales pt_clust_5="13000.00000" pt_clust_6="13000.00000" pt_clust_7="13000.00000" pt_clust_8="13000.00000" pt_clust_9="52.15448"></scales>
<clustering>
<clus scale="   52.154">  1  9  2 -1</clus>
<clus scale="   90.121">  5  6 -1 -1</clus>
<clus scale="   92.501">  7  8 -1 -1</clus>
<clus scale="   92.612">  1  5  2 -1</clus>
<clus scale="   94.929">  2  5  1 -1</clus>
</clustering>
</event>
<event>
 9    1  0.2423659E-006  0.1400554E+03  0.7546771E-02  0.1213463E+00
         -1   -1    0    0    0  501 -0.00000000000E+00  0.00000000000E+00  0.14414407123E+03  0.14414407123E+03  0.00000000000E+00 0.  1.
          1   -1    0    0  502    0  0.00000000000E+00 -0.00000000000E+00 -0.29142210128E+03  0.29142210128E+03  0.00000000000E+00 0. -1.
         23    2    1    2    0    0 -0.40599916097E+02 -0.77760519831E+02 -0.26380287773E+02  0.12980627707E+03  0.91971182188E+02 0.  0.
         23    2    1    2    0    0  0.23362030773E+02  0.11355691622E+03 -0.18117810499E+03  0.23356398964E+03  0.91025676748E+02 0.  0.
        -13    1    4    4    0    0  0.46247113907E+02  0.27745341483E+02 -0.98127269130E+02  0.11197124839E+03  0.00000000000E+00 0.  1.
         13    1    4    4    0    0 -0.22885083134E+02  0.85811574738E+02 -0.83050835861E+02  0.12159274126E+03  0.00000000000E+00 0. -1.
        -13    1    3    3    0    0 -0.74736245507E+01 -0.80752215407E+02  0.85818916448E+01  0.81550133177E+02  0.00000000000E+00 0.  1.
         13    1    3    3    0    0 -0.33126291546E+02  0.29916955762E+01 -0.34962179417E+02  0.48256143895E+02  0.00000000000E+00 0. -1.
         21    1    1    2  502  501  0.17237885324E+02 -0.35796396390E+02  0.60280362713E+02  0.72195905797E+02  0.00000000000E+00 0.  1.
<scales pt_clust_5="13000.00000" pt_clust_6="13000.00000" pt_clust_7="13000.00000" pt_clust_8="13000.00000" pt_clust_9="39.73068"></scales>
<clustering>
<clus scale="   39.731">  1  9  2 -1</clus>
<clus scale="   91.026">  5  6 -1 -1</clus>
<clus scale="   91.971">  7  8 -1 -1</clus>
<clus scale="  139.436">  2  5  1 -1</clus>
<clus scale="  139.436">  2  5  1 -1</clus>
</clustering>
</event>
<event>
 9    1  0.2423659E-006  0.9319405E+02  0.7546771E-02  0.1295615E+00
         -1   -1    0    0    0  501 -0.00000000000E+00  0.00000000000E+00  0.11142900726E+03  0.11142900726E+03  0.00000000000E+00 0.  1.
          1   -1    0    0  502    0  0.00000000000E+00 -0.00000000000E+00 -0.19336088322E+03  0.19336088322E+03  0.00000000000E+00 0. -1.
         23    2    1    2    0    0 -0.45418385697E+01  0.19623793954E+02  0.62281639882E+02  0.11252572689E+03  0.91527673191E+02 0.  0.
         23    2    1    2    0    0 -0.24838241177E+02 -0.66369231280E+01 -0.11478309523E+03  0.14869814980E+03  0.90966993080E+02 0.  0.
        -11    1    3    3    0    0  0.94296585257E+01  0.37009563576E+02  0.76897463474E+02  0.85859455768E+02  0.00000000000E+00 0.  1.
         11    1    3    3    0    0 -0.13971497095E+02 -0.17385769622E+02 -0.14615823593E+02  0.26666271125E+02  0.00000000000E+00 0. -1.
        -11    1    4    4    0    0  0.39985197623E+01 -0.43446232511E+02 -0.77326061735E+02  0.88785601891E+02  0.00000000000E+00 0. -1.
         11    1    4    4    0    0 -0.28836760940E+02  0.36809309383E+02 -0.37457033496E+02  0.59912547910E+02  0.00000000000E+00 0.  1.
         21    1    1    2  502  501  0.29380079747E+02 -0.12986870826E+02 -0.29430420605E+02  0.43566013781E+02  0.00000000000E+00 0. -1.
<scales pt_clust_5="13000.00000" pt_clust_6="13000.00000" pt_clust_7="13000.00000" pt_clust_8="13000.00000" pt_clust_9="32.12239"></scales>
<clustering>
<clus scale="   32.122">  2  9  1 -1</clus>
<clus scale="   90.967">  7  8 -1 -1</clus>
<clus scale="   91.528">  5  6 -1 -1</clus>
<clus scale="   92.643">  2  7  1 -1</clus>
<clus scale="   32.122">  2  5  1 -1</clus>
</clustering>
</event>
<event>
 9    1  0.2423659E-006  0.9831600E+02  0.7546771E-02  0.1284642E+00
         -1   -1    0    0    0  501 -0.00000000000E+00  0.00000000000E+00  0.10058655106E+03  0.10058655106E+03  0.00000000000E+00 0.  1.
          1   -1    0    0  502    0  0.00000000000E+00 -0.00000000000E+00 -0.23778407147E+03  0.23778407147E+03  0.00000000000E+00 0. -1.
         23    2    1    2    0    0 -0.17011141026E+02  0.38079023092E+02 -0.35216528341E+02  0.10831845343E+03  0.93559032524E+02 0.  0.
         23    2    1    2    0    0  0.47183817429E+02  0.48690619905E+02 -0.56852023313E+02  0.12769990889E+03  0.92076191725E+02 0.  0.
        -13    1    4    4    0    0 -0.20309752100E+02  0.36371572013E+02 -0.38392846222E+02  0.56651460017E+02  0.00000000000E+00 0.  1.
         13    1    4    4    0    0  0.67493569529E+02  0.12319047892E+02 -0.18459177091E+02  0.71048448876E+02  0.00000000000E+00 0. -1.
        -13    1    3    3    0    0 -0.36110475310E+02  0.10058393221E+01 -0.52039868200E+02  0.63349238529E+02  0.00000000000E+00 0.  1.
         13    1    3    3    0    0  0.19099334284E+02  0.37073183770E+02  0.16823339859E+02  0.44969214903E+02  0.00000000000E+00 0. -1.
         21    1    1    2  502  501 -0.30172676403E+02 -0.86769642997E+02 -0.45128968763E+02  0.10235226020E+03  0.00000000000E+00 0.  1.
<scales pt_clust_5="13000.00000" pt_clust_6="13000.00000" pt_clust_7="13000.00000" pt_clust_8="13000.00000" pt_clust_9="91.86600"></scales>
<clustering>
<clus scale="   91.866">  2  9  1 -1</clus>
<clus scale="   92.076">  5  6 -1 -1</clus>
<clus scale="   93.559">  7  8 -1 -1</clus>
<clus scale="   96.906">  2  5  1 -1</clus>
<clus scale="   91.866">  2  5  1 -1</clus>
</clustering>
</event>
<event>
 9    1  0.2423659E-006  0.1056213E+03  0.7546771E-02  0.1273277E+00
          2   -1    0    0  502    0  0.00000000000E+00  0.00000000000E+00  0.15760474299E+03  0.15760474299E+03  0.00000000000E+00 0. -1.
         -2   -1    0    0    0  501 -0.00000000000E+00 -0.00000000000E+00 -0.42170292173E+03  0.42170292173E+03  0.00000000000E+00 0.  1.
         23    2    1    2    0    0  0.24729189162E+02  0.68375476489E+02 -0.20430154000E+03  0.23853225015E+03  0.99356814227E+02 0.  0.
         23    2    1    2    0    0 -0.35969768876E+02 -0.21324255777E+01  0.11674965234E+03  0.15187574459E+03  0.90207477300E+02 0.  0.
        -13    1    4    4    0    0 -0.27358299646E+02  0.42423644052E+02  0.49142719036E+02  0.70450329797E+02  0.00000000000E+00 0.  1.
         13    1    4    4    0    0 -0.86114692295E+01 -0.44556069630E+02  0.67606933302E+02  0.81425414790E+02  0.00000000000E+00 0. -1.
        -13    1    3    3    0    0  0.36548907273E+02  0.32328621195E+02 -0.24176896778E+02  0.54456264185E+02  0.00000000000E+00 0. -1.
         13    1    3    3    0    0 -0.11819718110E+02  0.36046855294E+02 -0.18012464323E+03  0.18407598597E+03  0.00000000000E+00 0.  1.
         21    1    1    2  502  501  0.11240579713E+02 -0.66243050911E+02 -0.17654629107E+03  0.18889966998E+03  0.00000000000E+00 0.  1.
<scales pt_clust_5="13000.00000" pt_clust_6="13000.00000" pt_clust_7="13000.00000" pt_clust_8="13000.00000" pt_clust_9="67.18997"></scales>
<clustering>
<clus scale="   67.190">  2  9  1 -1</clus>
<clus scale="   90.207">  5  6 -1 -1</clus>
<clus scale="   97.064">  1  5  2 -1</clus>
<clus scale="   99.357">  7  8 -1 -1</clus>
<clus scale="   97.064">  1  5  2 -1</clus>
</clustering>
</event>
<event>
 9    1  0.2423659E-006  0.1652203E+03  0.7546771E-02  0.1183097E+00
         -1   -1    0    0    0  501 -0.00000000000E+00  0.00000000000E+00  0.14881713014E+03  0.14881713014E+03  0.00000000000E+00 0.  1.
          1   -1    0    0  502    0  0.00000000000E+00 -0.00000000000E+00 -0.59640300336E+03  0.59640300336E+03  0.00000000000E+00 0. -1.
         23    2    1    2    0    0 -0.69690304160E+01 -0.13907478723E+03  0.14447354769E+02  0.16700328016E+03  0.91054959761E+02 0.  0.
         23    2    1    2    0    0 -0.62795507781E+02  0.12430229645E+03 -0.47696393855E+03  0.50535916060E+03  0.92189727327E+02 0.  0.
        -11    1    4    4    0    0 -0.62991836850E+02  0.99344937982E+02 -0.46090876629E+03  0.47568296066E+03  0.00000000000E+00 0. -1.
         11    1    4    4    0    0  0.19632906905E+00  0.24957358471E+02 -0.16055172257E+02  0.29676199944E+02  0.00000000000E+00 0.  1.
        -13    1    3    3    0    0  0.30356639666E+01 -0.47785719146E+02  0.49347672892E+02  0.68759603183E+02  0.00000000000E+00 0.  1.
         13    1    3    3    0    0 -0.10004694383E+02 -0.91289068086E+02 -0.34900318122E+02  0.98243676981E+02  0.00000000000E+00 0. -1.
         21    1    1    2  502  501  0.69764538197E+02  0.14772490779E+02  0.14930710565E+02  0.72857692741E+02  0.00000000000E+00 0.  1.
<scales pt_clust_5="13000.00000" pt_clust_6="13000.00000" pt_clust_7="13000.00000" pt_clust_8="13000.00000" pt_clust_9="71.31141"></scales>
<clustering>
<clus scale="   71.311">  1  9  2 -1</clus>
<clus scale="   91.055">  7  8 -1 -1</clus>
<clus scale="   92.190">  5  6 -1 -1</clus>
<clus scale="  164.590">  1  7  2 -1</clus>
<clus scale="  165.220">  2  5  1 -1</clus>
</clustering>
</event>
<event>
 9    1  0.2423659E-006  0.1137976E+03  0.7546771E-02  0.1253728E+00
         -3   -1    0    0    0  501 -0.00000000000E+00  0.00000000000E+00  0.13999016298E+03  0.13999016298E+03  0.00000000000E+00 0.  1.
          3   -1    0    0  502    0  0.00000000000E+00 -0.00000000000E+00 -0.33045736549E+03  0.33045736549E+03  0.00000000000E+00 0. -1.
         23    2    1    2    0    0 -0.43559038301E+02 -0.10003337314E+03  0.53644571761E+02  0.15206206542E+03  0.91329437210E+02 0.  0.
         23    2    1    2    0    0  0.14172296887E+02  0.61521536591E+02 -0.24597878590E+03  0.26990631435E+03  0.91422655573E+02 0.  0.
        -13    1    3    3    0    0 -0.43478888568E+02 -0.41501318130E+02 -0.14901171971E+02  0.61925908017E+02  0.00000000000E+00 0. -1.
         13    1    3    3    0    0 -0.80149733620E-01 -0.58532055015E+02  0.68545743732E+02  0.90136157407E+02  0.00000000000E+00 0.  1.
        -13    1    4    4    0    0  0.50209294049E+02  0.36140367331E+02 -0.10163241152E+03  0.11898002534E+03  0.00000000000E+00 0. -1.
         13    1    4    4    0    0 -0.36036997162E+02  0.25381169259E+02 -0.14434637438E+03  0.15092628901E+03  0.00000000000E+00 0.  1.
         21    1    1    2  502  501  0.29386741415E+02  0.38511836554E+02  0.18670116182E+01  0.48479148694E+02  0.00000000000E+00 0. -1.
<scales pt_clust_5="13000.00000" pt_clust_6="13000.00000" pt_clust_7="13000.00000" pt_clust_8="13000.00000" pt_clust_9="48.44318"></scales>
<clustering>
<clus scale="   48.443">  1  9  2 -1</clus>
<clus scale="   91.329">  5  6 -1 -1</clus>
<clus scale="   91.423">  7  8 -1 -1</clus>
<clus scale="  113.723">  1  5  2 -1</clus>
<clus scale="  113.798">  2  5  1 -1</clus>
</clustering>
</event>
<event>
 9    1  0.2423659E-006  0.9632897E+02  0.7546771E-02  0.1288986E+00
         -1   -1    0    0    0  501 -0.00000000000E+00  0.00000000000E+00  0.10062715441E+03  0.10062715441E+03  0.00000000000E+00 0.  1.
          1   -1    0    0  502    0  0.00000000000E+00 -0.00000000000E+00 -0.24324481483E+03  0.24324481483E+03  0.00000000000E+00 0. -1.
         23    2    1    2    0    0 -0.37652722540E+02  0.50326441089E+02  0.57752235093E+01  0.10953493137E+03  0.89521337103E+02 0.  0.
         23    2    1    2    0    0 -0.32708348617E+01  0.24452498973E+02 -0.61225941078E+02  0.11241614814E+03  0.90995337439E+02 0.  0.
        -11    1    3    3    0    0 -0.13720121124E+02  0.72191173046E+02  0.16644079617E+02  0.75344758118E+02  0.00000000000E+00 0.  1.
         11    1    3    3    0    0 -0.23932601416E+02 -0.21864731957E+02 -0.10868856108E+02  0.34190173255E+02  0.00000000000E+00 0. -1.
        -13    1    4    4    0    0 -0.44963598117E+02  0.76763278520E+01 -0.15180163396E+02  0.48073782102E+02  0.00000000000E+00 0. -1.
         13    1    4    4    0    0  0.41692763255E+02  0.16776171121E+02 -0.46045777682E+02  0.64342366041E+02  0.00000000000E+00 0.  1.
         21    1    1    2  502  501  0.40923557402E+02 -0.74778940062E+02 -0.87166942849E+02  0.12192088973E+03  0.00000000000E+00 0.  1.
<scales pt_clust_5="13000.00000" pt_clust_6="13000.00000" pt_clust_7="13000.00000" pt_clust_8="13000.00000" pt_clust_9="85.24452"></scales>
<clustering>
<clus scale="   85.245">  2  9  1 -1</clus>
<clus scale="   89.521">  5  6 -1 -1</clus>
<clus scale="   90.995">  7  8 -1 -1</clus>
<clus scale="   94.938">  1  5  2 -1</clus>
<clus scale="   85.245">  2  5  1 -1</clus>
</clustering>
</event>
<event>
 9    1  0.2423659E-006  0.9302762E+02  0.7546771E-02  0.1296369E+00
          1   -1    0    0  502    0  0.00000000000E+00  0.00000000000E+00  0.34745514743E+03  0.34745514743E+03  0.00000000000E+00 0. -1.
         -1   -1    0    0    0  501 -0.00000000000E+00 -0.00000000000E+00 -0.15074003713E+03  0.15074003713E+03  0.00000000000E+00 0.  1.
         23    2    1    2    0    0  0.11654867075E+02  0.54341615893E+01 -0.12021205417E+03  0.15197020100E+03  0.92079519903E+02 0.  0.
         23    2    1    2    0    0 -0.10523009922E+01 -0.39197194390E+02  0.26910550886E+03  0.28673324013E+03  0.90888110952E+02 0.  0.
        -11    1    3    3    0    0  0.44518619756E+02  0.45455501738E+01 -0.10799209762E+03  0.11689680355E+03  0.00000000000E+00 0.  1.
         11    1    3    3    0    0 -0.32863752682E+02  0.88861141546E+00 -0.12219956545E+02  0.35073397448E+02  0.00000000000E+00 0. -1.
        -11    1    4    4    0    0 -0.28495397823E+02 -0.57746722769E+02  0.15309803667E+03  0.16608937509E+03  0.00000000000E+00 0. -1.
         11    1    4    4    0    0  0.27443096831E+02  0.18549528380E+02  0.11600747219E+03  0.12064386504E+03  0.00000000000E+00 0.  1.
         21    1    1    2  502  501 -0.10602566083E+02  0.33763032801E+02  0.47821655601E+02  0.59491743426E+02  0.00000000000E+00 0. -1.
<scales pt_clust_5="13000.00000" pt_clust_6="13000.00000" pt_clust_7="13000.00000" pt_clust_8="13000.00000" pt_clust_9="35.38865"></scales>
<clustering>
<clus scale="   35.389">  1  9  2 -1</clus>
<clus scale="   90.888">  7  8 -1 -1</clus>
<clus scale="   91.849">  1  7  2 -1</clus>
<clus scale="   92.080">  5  6 -1 -1</clus>
<clus scale="   35.389">  1  5  2 -1</clus>
</clustering>
</event>
<event>
 9    1  0.2423659E-006  0.1215416E+03  0.7546771E-02  0.1242090E+00
          1   -1    0    0  502    0  0.00000000000E+00  0.00000000000E+00  0.82784123506E+02  0.82784123506E+02  0.00000000000E+00 0. -1.
         -1   -1    0    0    0  501 -0.00000000000E+00 -0.00000000000E+00 -0.75400534928E+03  0.75400534928E+03  0.00000000000E+00 0.  1.
         23    2    1    2    0    0 -0.41322414360E+02 -0.63100424739E+02 -0.54786431344E+03  0.56037995201E+03  0.90449870869E+02 0.  0.
         23    2    1    2    0    0 -0.40574802548E+02  0.10875711184E+03 -0.98010246347E+02  0.17928001603E+03  0.95188716679E+02 0.  0.
        -13    1    3    3    0    0 -0.57124559842E+02 -0.51409695888E+01 -0.24628799949E+03  0.25287827823E+03  0.00000000000E+00 0. -1.
         13    1    3    3    0    0  0.15802145482E+02 -0.57959455150E+02 -0.30157631395E+03  0.30750167379E+03  0.00000000000E+00 0.  1.
        -13    1    4    4    0    0 -0.59974194598E+02  0.11491227731E+03 -0.81952419783E+02  0.15335558223E+03  0.00000000000E+00 0. -1.
         13    1    4    4    0    0  0.19399392050E+02 -0.61551654716E+01 -0.16057826564E+02  0.25924433800E+02  0.00000000000E+00 0.  1.
         21    1    1    2  502  501  0.81897216908E+02 -0.45656687099E+02 -0.25346665980E+02  0.97129504737E+02  0.00000000000E+00 0.  1.
<scales pt_clust_5="13000.00000" pt_clust_6="13000.00000" pt_clust_7="13000.00000" pt_clust_8="13000.00000" pt_clust_9="93.76400"></scales>
<clustering>
<clus scale="   90.450">  5  6 -1 -1</clus>
<clus scale="   93.764">  1  9  2 -1</clus>
<clus scale="   95.189">  7  8 -1 -1</clus>
<clus scale="  117.867">  2  5  1 -1</clus>
<clus scale="   93.764">  1  5  2 -1</clus>
</clustering>
</event>
<event>
 9    1  0.2423659E-006  0.1405254E+03  0.7546771E-02  0.1214145E+00
          3   -1    0    0  502    0  0.00000000000E+00  0.00000000000E+00  0.96376541138E+02  0.96376541138E+02  0.00000000000E+00 0. -1.
         -3   -1    0    0    0  501 -0.00000000000E+00 -0.00000000000E+00 -0.48836500449E+03  0.48836500449E+03  0.00000000000E+00 0.  1.
         23    2    1    2    0    0  0.74674235251E+02  0.13177640503E+03 -0.14428639163E+03  0.22606853680E+03  0.85715565596E+02 0.  0.
         23    2    1    2    0    0 -0.94290591523E+02 -0.66680718378E+01 -0.11648176856E+03  0.17631165210E+03  0.92642417007E+02 0.  0.
        -13    1    4    4    0    0 -0.10569339721E+03 -0.25249001903E+02 -0.10711056600E+03  0.15258204239E+03  0.00000000000E+00 0.  1.
         13    1    4    4    0    0  0.11402805690E+02  0.18580930065E+02 -0.93712025583E+01  0.23729609712E+02  0.00000000000E+00 0. -1.
        -13    1    3    3    0    0  0.37778581225E+02  0.20755956696E+02 -0.38349940081E+01  0.43275144330E+02  0.00000000000E+00 0.  1.
         13    1    3    3    0    0  0.36895654026E+02  0.11102044833E+03 -0.14045139763E+03  0.18279339247E+03  0.00000000000E+00 0. -1.
         21    1    1    2  502  501  0.19616356272E+02 -0.12510833319E+03 -0.13122030316E+03  0.18236135673E+03  0.00000000000E+00 0.  1.
<scales pt_clust_5="13000.00000" pt_clust_6="13000.00000" pt_clust_7="13000.00000" pt_clust_8="13000.00000" pt_clust_9="126.63687"></scales>
<clustering>
<clus scale="   85.716">  7  8 -1 -1</clus>
<clus scale="   92.642">  5  6 -1 -1</clus>
<clus scale="  126.637">  2  9  1 -1</clus>
<clus scale="  136.059">  2  7  1 -1</clus>
<clus scale="  140.525">  1  5  2 -1</clus>
</clustering>
</event>
<event>
 9    1  0.2423659E-006  0.9645649E+02  0.7546771E-02  0.1288118E+00
         -2   -1    0    0    0  501 -0.00000000000E+00  0.00000000000E+00  0.69812606535E+02  0.69812606535E+02  0.00000000000E+00 0.  1.
          2   -1    0    0  502    0  0.00000000000E+00 -0.00000000000E+00 -0.44218175958E+03  0.44218175958E+03  0.00000000000E+00 0. -1.
         23    2    1    2    0    0  0.40456227213E+02  0.50962821011E+02 -0.35026091180E+02  0.11742103217E+03  0.91252157714E+02 0.  0.
         23    2    1    2    0    0  0.54886709292E-02  0.21712557639E+02 -0.78143718107E+02  0.12235437627E+03  0.91611776112E+02 0.  0.
        -11    1    3    3    0    0  0.69200724347E+02  0.37090075735E+02 -0.33800800277E+02  0.85480454301E+02  0.00000000000E+00 0. -1.
         11    1    3    3    0    0 -0.28744497134E+02  0.13872745275E+02 -0.12252909027E+01  0.31940577871E+02  0.00000000000E+00 0.  1.
        -13    1    4    4    0    0  0.81645460633E+00 -0.24925740156E+02 -0.70889407323E+02  0.75148301319E+02  0.00000000000E+00 0.  1.
         13    1    4    4    0    0 -0.81096593540E+00  0.46638297795E+02 -0.72543107842E+01  0.47206074947E+02  0.00000000000E+00 0. -1.
         21    1    1    2  502  501 -0.40461715884E+02 -0.72675378650E+02 -0.25919934376E+03  0.27221895768E+03  0.00000000000E+00 0.  1.
<scales pt_clust_5="13000.00000" pt_clust_6="13000.00000" pt_clust_7="13000.00000" pt_clust_8="13000.00000" pt_clust_9="83.17969"></scales>
<clustering>
<clus scale="   83.180">  2  9  1 -1</clus>
<clus scale="   91.252">  5  6 -1 -1</clus>
<clus scale="   91.612">  7  8 -1 -1</clus>
<clus scale="   96.115">  1  5  2 -1</clus>
<clus scale="   83.180">  2  5  1 -1</clus>
</clustering>
</event>
<event>
 9    1  0.2423659E-006  0.1130550E+03  0.7546771E-02  0.1255394E+00
         -1   -1    0    0    0  501 -0.00000000000E+00  0.00000000000E+00  0.96443681618E+03  0.96443681618E+03  0.00000000000E+00 0.  1.
          1   -1    0    0  502    0  0.00000000000E+00 -0.00000000000E+00 -0.39255679190E+02  0.39255679190E+02  0.00000000000E+00 0. -1.
         23    2    1    2    0    0 -0.54818541540E+02  0.34266777796E+02  0.25610573023E+03  0.27963079420E+03  0.91782086780E+02 0.  0.
         23    2    1    2    0    0 -0.29061017581E+02 -0.87549554440E+02  0.16195758566E+03  0.20729935810E+03  0.90737517562E+02 0.  0.
        -11    1    4    4    0    0 -0.31421424557E+02 -0.61813266521E-01  0.11929846411E+02  0.33609983301E+02  0.00000000000E+00 0.  1.
         11    1    4    4    0    0  0.23604069760E+01 -0.87487741174E+02  0.15002773924E+03  0.17368937480E+03  0.00000000000E+00 0. -1.
        -13    1    3    3    0    0 -0.10149149865E+02 -0.25240009118E+02  0.25383680374E+02  0.37207452648E+02  0.00000000000E+00 0. -1.
         13    1    3    3    0    0 -0.44669391675E+02  0.59506786914E+02  0.23072204986E+03  0.24242334156E+03  0.00000000000E+00 0.  1.
         21    1    1    2  502  501  0.83879559121E+02  0.53282776644E+02  0.50711782111E+03  0.51676234306E+03  0.00000000000E+00 0. -1.
<scales pt_clust_5="13000.00000" pt_clust_6="13000.00000" pt_clust_7="13000.00000" pt_clust_8="13000.00000" pt_clust_9="99.37220"></scales>
<clustering>
<clus scale="   90.738">  5  6 -1 -1</clus>
<clus scale="   91.782">  7  8 -1 -1</clus>
<clus scale="   99.372">  1  9  2 -1</clus>
<clus scale="  112.209">  2  5  1 -1</clus>
<clus scale="  112.209">  2  5  1 -1</clus>
</clustering>
</event>
<event>
 9    1  0.2423659E-006  0.1728799E+03  0.7546771E-02  0.1199795E+00
         -2   -1    0    0    0  501 -0.00000000000E+00  0.00000000000E+00  0.33409262185E+03  0.33409262185E+03  0.00000000000E+00 0.  1.
          2   -1    0    0  502    0  0.00000000000E+00 -0.00000000000E+00 -0.24708563564E+03  0.24708563564E+03  0.00000000000E+00 0. -1.
         23    2    1    2    0    0  0.14215966276E+03  0.67026950797E+02  0.23723471635E+03  0.29934867591E+03  0.92883460747E+02 0.  0.
         23    2    1    2    0    0 -0.30787777799E+02 -0.24421210510E+02 -0.12538554807E+03  0.16002613386E+03  0.91337533739E+02 0.  0.
        -11    1    3    3    0    0  0.13595527722E+03  0.37081107508E+02  0.14509204423E+03  0.20226355885E+03  0.00000000000E+00 0.  1.
         11    1    3    3    0    0  0.62043855353E+01  0.29945843290E+02  0.92142672120E+02  0.97085117065E+02  0.00000000000E+00 0. -1.
        -13    1    4    4    0    0  0.19149600972E+01 -0.48188731623E+02 -0.30957128599E+02  0.57307632464E+02  0.00000000000E+00 0.  1.
         13    1    4    4    0    0 -0.32702737896E+02  0.23767521113E+02 -0.94428419469E+02  0.10271850140E+03  0.00000000000E+00 0. -1.
         21    1    1    2  502  501 -0.11137188496E+03 -0.42605740287E+02 -0.24842182073E+02  0.12180344771E+03  0.00000000000E+00 0. -1.
<scales pt_clust_5="13000.00000" pt_clust_6="13000.00000" pt_clust_7="13000.00000" pt_clust_8="13000.00000" pt_clust_9="145.80847"></scales>
<clustering>
<clus scale="   91.338">  7  8 -1 -1</clus>
<clus scale="   92.883">  5  6 -1 -1</clus>
<clus scale="   99.433">  2  7  1 -1</clus>
<clus scale="  145.808">  2  9  1 -1</clus>
<clus scale="   99.433">  2  5  1 -1</clus>
</clustering>
</event>
<event>
 9    1  0.2423659E-006  0.1168393E+03  0.7546771E-02  0.1253293E+00
         -1   -1    0    0    0  501 -0.00000000000E+00  0.00000000000E+00  0.25520780120E+03  0.25520780120E+03  0.00000000000E+00 0.  1.
          1   -1    0    0  502    0  0.00000000000E+00 -0.00000000000E+00 -0.27463850064E+03  0.27463850064E+03  0.00000000000E+00 0. -1.
         23    2    1    2    0    0 -0.14711953372E+02 -0.26850515724E+02  0.96554284711E+02  0.13755545767E+03  0.93066547551E+02 0.  0.
         23    2    1    2    0    0  0.37332533123E+02  0.74663221922E+02  0.10155587045E+03  0.16841192840E+03  0.10526475226E+03 0.  0.
        -11    1    4    4    0    0 -0.70177018166E+01  0.57586264093E+02  0.19450398460E+01  0.58044888931E+02  0.00000000000E+00 0. -1.
         11    1    4    4    0    0  0.44350234939E+02  0.17076957829E+02  0.99610830604E+02  0.11036703947E+03  0.00000000000E+00 0.  1.
        -11    1    3    3    0    0  0.19509390973E+02 -0.51789837313E+02  0.49457649753E+02  0.74221713158E+02  0.00000000000E+00 0.  1.
         11    1    3    3    0    0 -0.34221344345E+02  0.24939321588E+02  0.47096634958E+02  0.63333744516E+02  0.00000000000E+00 0. -1.
         21    1    1    2  502  501 -0.22620579751E+02 -0.47812706198E+02 -0.21754085461E+03  0.22387891577E+03  0.00000000000E+00 0. -1.
<scales pt_clust_5="13000.00000" pt_clust_6="13000.00000" pt_clust_7="13000.00000" pt_clust_8="13000.00000" pt_clust_9="52.89372"></scales>
<clustering>
<clus scale="   52.894">  2  9  1 -1</clus>
<clus scale="   93.067">  7  8 -1 -1</clus>
<clus scale="  105.265">  5  6 -1 -1</clus>
<clus scale="  105.982">  1  7  2 -1</clus>
<clus scale="   52.894">  2  5  1 -1</clus>
</clustering>
</event>
<event>
 9    1  0.2423659E-006  0.1145039E+03  0.7546771E-02  0.1253022E+00
          2   -1    0    0  502    0  0.00000000000E+00  0.00000000000E+00  0.78145173013E+02  0.78145173013E+02  0.00000000000E+00 0. -1.
         -2   -1    0    0    0  501 -0.00000000000E+00 -0.00000000000E+00 -0.24290134894E+03  0.24290134894E+03  0.00000000000E+00 0.  1.
         23    2    1    2    0    0 -0.23031086638E+02 -0.67433299389E+02 -0.11092644268E+03  0.15973495698E+03  0.90182592440E+02 0.  0.
         23    2    1    2    0    0  0.52612360028E+02  0.45729930747E+02 -0.38235874782E+02  0.12144608657E+03  0.91803501183E+02 0.  0.
        -11    1    4    4    0    0  0.92144527899E+01  0.27203942589E+02  0.28005999610E+02  0.40116039769E+02  0.00000000000E+00 0.  1.
         11    1    4    4    0    0  0.43397907239E+02  0.18525988158E+02 -0.66241874393E+02  0.81330046803E+02  0.00000000000E+00 0. -1.
        -11    1    3    3    0    0  0.66531195436E+01 -0.28389021994E+02  0.87130220913E+01  0.30432175791E+02  0.00000000000E+00 0. -1.
         11    1    3    3    0    0 -0.29684206181E+02 -0.39044277395E+02 -0.11963946477E+03  0.12930278119E+03  0.00000000000E+00 0.  1.
         21    1    1    2  502  501 -0.29581273391E+02  0.21703368642E+02 -0.15593858466E+02  0.39865478396E+02  0.00000000000E+00 0. -1.
<scales pt_clust_5="13000.00000" pt_clust_6="13000.00000" pt_clust_7="13000.00000" pt_clust_8="13000.00000" pt_clust_9="36.68907"></scales>
<clustering>
<clus scale="   36.689">  1  9  2 -1</clus>
<clus scale="   90.183">  7  8 -1 -1</clus>
<clus scale="   91.804">  5  6 -1 -1</clus>
<clus scale="  113.209">  2  7  1 -1</clus>
<clus scale="   36.689">  1  5  2 -1</clus>
</clustering>
</event>
<event>
 9    1  0.2423659E-006  0.9628615E+02  0.7546771E-02  0.1288534E+00
          2   -1    0    0  502    0  0.00000000000E+00  0.00000000000E+00  0.30136561028E+03  0.30136561028E+03  0.00000000000E+00 0. -1.
         -2   -1    0    0    0  501 -0.00000000000E+00 -0.00000000000E+00 -0.50676884876E+02  0.50676884876E+02  0.00000000000E+00 0.  1.
         23    2    1    2    0    0  0.10358893938E+02 -0.17728876782E+01  0.49072562088E+02  0.10306541808E+03  0.90021743152E+02 0.  0.
         23    2    1    2    0    0 -0.45475645423E+02 -0.12974893199E+01  0.18382831299E+03  0.20949263623E+03  0.89580121516E+02 0.  0.
        -11    1    3    3    0    0  0.20591572770E+02  0.37650623451E+02  0.44920721974E+02  0.62124500626E+02  0.00000000000E+00 0.  1.
         11    1    3    3    0    0 -0.10232678832E+02 -0.39423511129E+02  0.41518401140E+01  0.40940917456E+02  0.00000000000E+00 0. -1.
        -13    1    4    4    0    0  0.16836147776E+01 -0.35306224849E+02  0.35144794924E+02  0.49844966466E+02  0.00000000000E+00 0.  1.
         13    1    4    4    0    0 -0.47159260200E+02  0.34008735529E+02  0.14868351807E+03  0.15964766976E+03  0.00000000000E+00 0. -1.
         21    1    1    2  502  501  0.35116751485E+02  0.30703769981E+01  0.17787850323E+02  0.39484440845E+02  0.00000000000E+00 0.  1.
<scales pt_clust_5="13000.00000" pt_clust_6="13000.00000" pt_clust_7="13000.00000" pt_clust_8="13000.00000" pt_clust_9="35.25072"></scales>
<clustering>
<clus scale="   35.251">  2  9  1 -1</clus>
<clus scale="   89.580">  7  8 -1 -1</clus>
<clus scale="   90.022">  5  6 -1 -1</clus>
<clus scale="   95.873">  1  7  2 -1</clus>
<clus scale="   95.873">  1  5  2 -1</clus>
</clustering>
</event>
<event>
 9    1  0.2423659E-006  0.1738121E+03  0.7546771E-02  0.1204245E+00
         -2   -1    0    0    0  501 -0.00000000000E+00  0.00000000000E+00  0.42049750672E+02  0.42049750672E+02  0.00000000000E+00 0.  1.
          2   -1    0    0  502    0  0.00000000000E+00 -0.00000000000E+00 -0.11843447200E+04  0.11843447200E+04  0.00000000000E+00 0. -1.
         23    2    1    2    0    0 -0.93999510847E+01  0.86657874290E+01 -0.18047389090E+03  0.20116227136E+03  0.87931673298E+02 0.  0.
         23    2    1    2    0    0 -0.13400951497E+03  0.53689943280E+02 -0.69817608241E+03  0.71869803151E+03  0.90751629938E+02 0.  0.
        -11    1    4    4    0    0 -0.86119913205E+01  0.42998374537E+02 -0.21278817613E+03  0.21725983178E+03  0.00000000000E+00 0.  1.
         11    1    4    4    0    0 -0.12539752365E+03  0.10691568743E+02 -0.48538790628E+03  0.50143819973E+03  0.00000000000E+00 0. -1.
        -13    1    3    3    0    0 -0.30828132301E+02 -0.14396365143E+02 -0.24208418155E+02  0.41757353605E+02  0.00000000000E+00 0.  1.
         13    1    3    3    0    0  0.21428181217E+02  0.23062152572E+02 -0.15626547274E+03  0.15940491775E+03  0.00000000000E+00 0. -1.
         21    1    1    2  502  501  0.14340946606E+03 -0.62355730709E+02 -0.26364499604E+03  0.30653416782E+03  0.00000000000E+00 0.  1.
<scales pt_clust_5="13000.00000" pt_clust_6="13000.00000" pt_clust_7="13000.00000" pt_clust_8="13000.00000" pt_clust_9="148.23893"></scales>
<clustering>
<clus scale="   87.932">  7  8 -1 -1</clus>
<clus scale="   88.856">  1  7  2 -1</clus>
<clus scale="   90.752">  5  6 -1 -1</clus>
<clus scale="  148.239">  1  9  2 -1</clus>
<clus scale="  173.812">  2  5  1 -1</clus>
</clustering>
</event>
<event>
 9    1  0.2423659E-006  0.9865661E+02  0.7546771E-02  0.1285052E+00
          1   -1    0    0  502    0  0.00000000000E+00  0.00000000000E+00  0.30279316254E+03  0.30279316254E+03  0.00000000000E+00 0. -1.
         -1   -1    0    0    0  501 -0.00000000000E+00 -0.00000000000E+00 -0.24954112125E+03  0.24954112125E+03  0.00000000000E+00 0.  1.
         23    2    1    2    0    0  0.22014838112E+02  0.81581494374E+02  0.60082000369E+02  0.13850247063E+03  0.91830791567E+02 0.  0.
         23    2    1    2    0    0  0.17458051071E+02 -0.56496627213E+01  0.18210555533E+03  0.20641826335E+03  0.95442987835E+02 0.  0.
        -11    1    3    3    0    0 -0.33147132402E+01 -0.19875759463E+02  0.11445184020E+02  0.23173807960E+02  0.00000000000E+00 0.  1.
         11    1    3    3    0    0  0.25329551352E+02  0.10145725384E+03  0.48636816349E+02  0.11532866267E+03  0.00000000000E+00 0. -1.
        -13    1    4    4    0    0 -0.28960449905E+02 -0.26754801366E+02  0.11855693054E+03  0.12494107745E+03  0.00000000000E+00 0.  1.
         13    1    4    4    0    0  0.46418500976E+02  0.21105138644E+02  0.63548624792E+02  0.81477185905E+02  0.00000000000E+00 0. -1.
         21    1    1    2  502  501 -0.39472889183E+02 -0.75931831653E+02 -0.18893551442E+03  0.20741354981E+03  0.00000000000E+00 0.  1.
<scales pt_clust_5="13000.00000" pt_clust_6="13000.00000" pt_clust_7="13000.00000" pt_clust_8="13000.00000" pt_clust_9="85.57892"></scales>
<clustering>
<clus scale="   85.579">  2  9  1 -1</clus>
<clus scale="   91.831">  5  6 -1 -1</clus>
<clus scale="   95.166">  2  5  1 -1</clus>
<clus scale="   95.443">  7  8 -1 -1</clus>
<clus scale="   98.657">  1  5  2 -1</clus>
</clustering>
</event>
<event>
 9    1  0.2423659E-006  0.9570474E+02  0.7546771E-02  0.1291460E+00
          3   -1    0    0  502    0  0.00000000000E+00  0.00000000000E+00  0.30610043384E+02  0.30610043384E+02  0.00000000000E+00 0. -1.
         -3   -1    0    0    0  501 -0.00000000000E+00 -0.00000000000E+00 -0.37051035654E+03  0.37051035654E+03  0.00000000000E+00 0.  1.
         23    2    1    2    0    0  0.58172592397E+01 -0.59622014193E+01 -0.16044995723E+03  0.18588705864E+03  0.93490221106E+02 0.  0.
         23    2    1    2    0    0 -0.17642142794E+02  0.25757898617E+02 -0.13716668533E+03  0.16707105005E+03  0.90129471625E+02 0.  0.
        -11    1    3    3    0    0  0.38075594000E+02 -0.28934022128E+02 -0.53072632647E+02  0.71439714662E+02  0.00000000000E+00 0. -1.
         11    1    3    3    0    0 -0.32258334760E+02  0.22971820709E+02 -0.10737732458E+03  0.11444734397E+03  0.00000000000E+00 0.  1.
        -13    1    4    4    0    0 -0.52059227662E+02  0.25978365967E+02 -0.65764982583E+02  0.87807013485E+02  0.00000000000E+00 0.  1.
         13    1    4    4    0    0  0.34417084868E+02 -0.22046735019E+00 -0.71401702751E+02  0.79264036564E+02  0.00000000000E+00 0. -1.
         21    1    1    2  502  501  0.11824883554E+02 -0.19795697198E+02 -0.42283670590E+02  0.48162291237E+02  0.00000000000E+00 0.  1.
<scales pt_clust_5="13000.00000" pt_clust_6="13000.00000" pt_clust_7="13000.00000" pt_clust_8="13000.00000" pt_clust_9="23.05857"></scales>
<clustering>
<clus scale="   23.059">  2  9  1 -1</clus>
<clus scale="   90.129">  7  8 -1 -1</clus>
<clus scale="   92.425">  1  7  2 -1</clus>
<clus scale="   93.490">  5  6 -1 -1</clus>
<clus scale="   92.425">  1  5  2 -1</clus>
</clustering>
</event>
<event>
 9    1  0.2423659E-006  0.9035855E+02  0.7546771E-02  0.1304130E+00
         -2   -1    0    0    0  501 -0.00000000000E+00  0.00000000000E+00  0.96757703209E+02  0.96757703209E+02  0.00000000000E+00 0.  1.
          2   -1    0    0  502    0  0.00000000000E+00 -0.00000000000E+00 -0.10500298720E+03  0.10500298720E+03  0.00000000000E+00 0. -1.
         23    2    1    2    0    0  0.11022229858E+02 -0.30346853953E+02 -0.90576111196E+01  0.93537297075E+02  0.87319897670E+02 0.  0.
         23    2    1    2    0    0  0.31982412895E+01  0.16263864262E+02 -0.92320385327E+01  0.85830499828E+02  0.83707240649E+02 0.  0.
        -11    1    4    4    0    0  0.39892092972E+02  0.15931536502E+02 -0.20288060109E+02  0.47505771438E+02  0.00000000000E+00 0.  1.
         11    1    4    4    0    0 -0.36693851682E+02  0.33232776065E+00  0.11056021577E+02  0.38324728389E+02  0.00000000000E+00 0. -1.
        -11    1    3    3    0    0  0.34015836912E+02 -0.27583598900E+02 -0.36938780081E+02  0.57292281880E+02  0.00000000000E+00 0. -1.
         11    1    3    3    0    0 -0.22993607054E+02 -0.27632550530E+01  0.27881168962E+02  0.36245015195E+02  0.00000000000E+00 0.  1.
         21    1    1    2  502  501 -0.14220471148E+02  0.14082989691E+02  0.10044365657E+02  0.22392893510E+02  0.00000000000E+00 0.  1.
<scales pt_clust_5="13000.00000" pt_clust_6="13000.00000" pt_clust_7="13000.00000" pt_clust_8="13000.00000" pt_clust_9="20.01381"></scales>
<clustering>
<clus scale="   20.014">  1  9  2 -1</clus>
<clus scale="   83.707">  5  6 -1 -1</clus>
<clus scale="   86.872">  2  5  1 -1</clus>
<clus scale="   87.320">  7  8 -1 -1</clus>
<clus scale="   86.872">  2  5  1 -1</clus>
</clustering>
</event>
<event>
 9    1  0.3595608E-006  0.9583500E+02  0.7546771E-02  0.1295867E+00
          2   -1    0    0  502    0  0.00000000000E+00  0.00000000000E+00  0.18703037879E+03  0.18703037879E+03  0.00000000000E+00 0. -1.
         -2   -1    0    0    0  501 -0.00000000000E+00 -0.00000000000E+00 -0.18557549345E+03  0.18557549345E+03  0.00000000000E+00 0.  1.
         23    2    1    2    0    0 -0.15489780323E+02 -0.47675458654E+01 -0.12776542796E+03  0.15276160094E+03  0.82154971561E+02 0.  0.
         23    2    1    2    0    0 -0.21535766667E+02  0.11225988228E+02  0.14884180299E+03  0.17744609368E+03  0.93506266023E+02 0.  0.
        -11    1    3    3    0    0 -0.16844686220E+02 -0.41187098639E+02 -0.50343250672E+02  0.67190501088E+02  0.00000000000E+00 0.  1.
         11    1    3    3    0    0  0.13549058966E+01  0.36419552773E+02 -0.77422177286E+02  0.85571099852E+02  0.00000000000E+00 0. -1.
        -11    1    4    4    0    0 -0.35647253199E+02 -0.33512714376E+02  0.64780822469E+02  0.81181177900E+02  0.00000000000E+00 0.  1.
         11    1    4    4    0    0  0.14111486533E+02  0.44738702605E+02  0.84060980525E+02  0.96264915778E+02  0.00000000000E+00 0. -1.
         21    1    1    2  502  501  0.37025546990E+02 -0.64584423629E+01 -0.19621489692E+02  0.42398177619E+02  0.00000000000E+00 0. -1.
<scales pt_clust_5="13000.00000" pt_clust_6="13000.00000" pt_clust_7="13000.00000" pt_clust_8="13000.00000" pt_clust_9="37.58461"></scales>
<clustering>
<clus scale="   37.585">  2  9  1 -1</clus>
<clus scale="   82.155">  5  6 -1 -1</clus>
<clus scale="   84.796">  2  5  1 -1</clus>
<clus scale="   93.506">  7  8 -1 -1</clus>
<clus scale="   95.835">  1  5  2 -1</clus>
</clustering>
</event>
<event>
 9    1  0.2423659E-006  0.1283484E+03  0.7546771E-02  0.1235655E+00
         -1   -1    0    0    0  501 -0.00000000000E+00  0.00000000000E+00  0.60873442834E+02  0.60873442834E+02  0.00000000000E+00 0.  1.
          1   -1    0    0  502    0  0.00000000000E+00 -0.00000000000E+00 -0.36241123617E+03  0.36241123617E+03  0.00000000000E+00 0. -1.
         23    2    1    2    0    0  0.52036618606E+02 -0.24316751642E+02 -0.84647033514E+02  0.13466716780E+03  0.87584312037E+02 0.  0.
         23    2    1    2    0    0 -0.81313217918E+02  0.56352573321E+02 -0.14602096187E+03  0.20551551724E+03  0.10548485481E+03 0.  0.
        -11    1    4    4    0    0 -0.67437440886E+02  0.85945486828E+02 -0.94209805233E+02  0.14425644714E+03  0.00000000000E+00 0.  1.
         11    1    4    4    0    0 -0.13875777033E+02 -0.29592913507E+02 -0.51811156633E+02  0.61259070102E+02  0.00000000000E+00 0. -1.
        -13    1    3    3    0    0 -0.58497869642E+01 -0.21628425977E+02  0.93214802711E+01  0.24267237424E+02  0.00000000000E+00 0.  1.
         13    1    3    3    0    0  0.57886405570E+02 -0.26883256650E+01 -0.93968513785E+02  0.11039993038E+03  0.00000000000E+00 0. -1.
         21    1    1    2  502  501  0.29276599313E+02 -0.32035821680E+02 -0.70869797960E+02  0.83101993964E+02  0.00000000000E+00 0. -1.
<scales pt_clust_5="13000.00000" pt_clust_6="13000.00000" pt_clust_7="13000.00000" pt_clust_8="13000.00000" pt_clust_9="43.39831"></scales>
<clustering>
<clus scale="   43.398">  2  9  1 -1</clus>
<clus scale="   87.584">  7  8 -1 -1</clus>
<clus scale="  105.485">  5  6 -1 -1</clus>
<clus scale="  114.093">  1  7  2 -1</clus>
<clus scale="   43.398">  2  5  1 -1</clus>
</clustering>
</event>
<event>
 9    1  0.2423659E-006  0.1918468E+03  0.7546771E-02  0.1177189E+00
          2   -1    0    0  502    0  0.00000000000E+00  0.00000000000E+00  0.52057447115E+03  0.52057447115E+03  0.00000000000E+00 0. -1.
         -2   -1    0    0    0  501 -0.00000000000E+00 -0.00000000000E+00 -0.17404993215E+03  0.17404993215E+03  0.00000000000E+00 0.  1.
         23    2    1    2    0    0  0.13957429696E+02  0.77225937413E+02 -0.23946849384E+02  0.12242386936E+03  0.90859765252E+02 0.  0.
         23    2    1    2    0    0  0.15025134506E+03 -0.13416968685E+02  0.17362923893E+02  0.17758465249E+03  0.92083418328E+02 0.  0.
        -11    1    3    3    0    0  0.44296427945E+02  0.57292794944E+02 -0.39999005913E+02  0.82731846077E+02  0.00000000000E+00 0.  1.
         11    1    3    3    0    0 -0.30338998249E+02  0.19933142468E+02  0.16052156529E+02  0.39692023288E+02  0.00000000000E+00 0. -1.
        -13    1    4    4    0    0  0.13944155084E+03 -0.42343110018E+02  0.11781048529E+02  0.14620423445E+03  0.00000000000E+00 0.  1.
         13    1    4    4    0    0  0.10809794222E+02  0.28926141333E+02  0.55818753646E+01  0.31380418036E+02  0.00000000000E+00 0. -1.
         21    1    1    2  502  501 -0.16420877476E+03 -0.63808968728E+02  0.35310846449E+03  0.39461588145E+03  0.00000000000E+00 0. -1.
<scales pt_clust_5="13000.00000" pt_clust_6="13000.00000" pt_clust_7="13000.00000" pt_clust_8="13000.00000" pt_clust_9="168.30283"></scales>
<clustering>
<clus scale="   90.860">  5  6 -1 -1</clus>
<clus scale="   92.083">  7  8 -1 -1</clus>
<clus scale="  120.059">  2  5  1 -1</clus>
<clus scale="  168.303">  1  9  2 -1</clus>
<clus scale="  168.303">  1  5  2 -1</clus>
</clustering>
</event>
<event>
 9    1  0.2423659E-006  0.1099541E+03  0.7546771E-02  0.1261362E+00
          1   -1    0    0  502    0  0.00000000000E+00  0.00000000000E+00  0.66211539448E+03  0.66211539448E+03  0.00000000000E+00 0. -1.
         -1   -1    0    0    0  501 -0.00000000000E+00 -0.00000000000E+00 -0.53322562859E+02  0.53322562859E+02  0.00000000000E+00 0.  1.
         23    2    1    2    0    0  0.20427116111E+02  0.56299113423E+01  0.20855569176E+02  0.95901556354E+02  0.91176700813E+02 0.  0.
         23    2    1    2    0    0 -0.42051457355E+02  0.52823361668E+02  0.49120075494E+03  0.50446099464E+03  0.92973549264E+02 0.  0.
        -13    1    4    4    0    0  0.23043847738E+02  0.41944227659E+02  0.17362515858E+03  0.18010006342E+03  0.00000000000E+00 0.  1.
         13    1    4    4    0    0 -0.65095305093E+02  0.10879134009E+02  0.31757559636E+03  0.32436093122E+03  0.00000000000E+00 0. -1.
        -13    1    3    3    0    0  0.50765068238E+02  0.16412481058E+02 -0.63770545314E+01  0.53732006404E+02  0.00000000000E+00 0.  1.
         13    1    3    3    0    0 -0.30337952127E+02 -0.10782569716E+02  0.27232623707E+02  0.42169549949E+02  0.00000000000E+00 0. -1.
         21    1    1    2  502  501  0.21624341243E+02 -0.58453273011E+02  0.96736507511E+02  0.11507540634E+03  0.00000000000E+00 0.  1.
<scales pt_clust_5="13000.00000" pt_clust_6="13000.00000" pt_clust_7="13000.00000" pt_clust_8="13000.00000" pt_clust_9="62.32493"></scales>
<clustering>
<clus scale="   62.325">  2  9  1 -1</clus>
<clus scale="   91.177">  7  8 -1 -1</clus>
<clus scale="   92.974">  5  6 -1 -1</clus>
<clus scale="  108.439">  2  7  1 -1</clus>
<clus scale="  109.954">  1  5  2 -1</clus>
</clustering>
</event>
<event>
 9    1  0.2423659E-006  0.3358835E+03  0.7546771E-02  0.1068753E+00
          1   -1    0    0  502    0  0.00000000000E+00  0.00000000000E+00  0.96802643864E+03  0.96802643864E+03  0.00000000000E+00 0. -1.
         -1   -1    0    0    0  501 -0.00000000000E+00 -0.00000000000E+00 -0.34144553390E+03  0.34144553390E+03  0.00000000000E+00 0.  1.
         23    2    1    2    0    0  0.78913399407E+02 -0.33093225851E+03 -0.18140366464E+03  0.39469584099E+03  0.84463205125E+02 0.  0.
         23    2    1    2    0    0 -0.15936759451E+03  0.19503168047E+03  0.56022721437E+03  0.62096402905E+03  0.91139492459E+02 0.  0.
        -11    1    4    4    0    0 -0.16088405036E+03  0.15306244361E+03  0.42724705916E+03  0.48150995718E+03  0.00000000000E+00 0.  1.
         11    1    4    4    0    0  0.15164558496E+01  0.41969236861E+02  0.13298015520E+03  0.13945407186E+03  0.00000000000E+00 0. -1.
        -13    1    3    3    0    0 -0.16523062822E+02 -0.65932305861E+02 -0.24309781032E+02  0.72187575212E+02  0.00000000000E+00 0. -1.
         13    1    3    3    0    0  0.95436462229E+02 -0.26499995265E+03 -0.15709388361E+03  0.32250826577E+03  0.00000000000E+00 0.  1.
         21    1    1    2  502  501  0.80454195105E+02  0.13590057803E+03  0.24775735501E+03  0.29381210251E+03  0.00000000000E+00 0. -1.
<scales pt_clust_5="13000.00000" pt_clust_6="13000.00000" pt_clust_7="13000.00000" pt_clust_8="13000.00000" pt_clust_9="157.92987"></scales>
<clustering>
<clus scale="   84.463">  7  8 -1 -1</clus>
<clus scale="   91.139">  5  6 -1 -1</clus>
<clus scale="  157.930">  1  9  2 -1</clus>
<clus scale="  334.134">  2  7  1 -1</clus>
<clus scale="  157.930">  1  5  2 -1</clus>
</clustering>
</event>
<event>
 9    1  0.2423659E-006  0.1006763E+03  0.7546771E-02  0.1279439E+00
          1   -1    0    0  502    0  0.00000000000E+00  0.00000000000E+00  0.21634003732E+03  0.21634003732E+03  0.00000000000E+00 0. -1.
         -1   -1    0    0    0  501 -0.00000000000E+00 -0.00000000000E+00 -0.13297194627E+03  0.13297194627E+03  0.00000000000E+00 0.  1.
         23    2    1    2    0    0 -0.31442415892E+02  0.41854928814E+01 -0.38230101147E+02  0.10448159628E+03  0.91916916074E+02 0.  0.
         23    2    1    2    0    0  0.54627559985E+02  0.11638221444E+02 -0.12988541194E+02  0.10734755331E+03  0.90747873201E+02 0.  0.
        -11    1    4    4    0    0 -0.11375941816E+02  0.28056001080E+02 -0.23760305840E+02  0.38485105982E+02  0.00000000000E+00 0.  1.
         11    1    4    4    0    0  0.66003501801E+02 -0.16417779636E+02  0.10771764646E+02  0.68862447326E+02  0.00000000000E+00 0. -1.
        -13    1    3    3    0    0 -0.63813099943E+02 -0.55871463489E+00 -0.31130067577E+02  0.71003556205E+02  0.00000000000E+00 0. -1.
         13    1    3    3    0    0  0.32370684051E+02  0.47442075162E+01 -0.71000335696E+01  0.33478040079E+02  0.00000000000E+00 0.  1.
         21    1    1    2  502  501 -0.23185144093E+02 -0.15823714326E+02  0.13458673339E+03  0.13748283401E+03  0.00000000000E+00 0. -1.
<scales pt_clust_5="13000.00000" pt_clust_6="13000.00000" pt_clust_7="13000.00000" pt_clust_8="13000.00000" pt_clust_9="28.07028"></scales>
<clustering>
<clus scale="   28.070">  1  9  2 -1</clus>
<clus scale="   90.748">  5  6 -1 -1</clus>
<clus scale="   91.917">  7  8 -1 -1</clus>
<clus scale="   99.610">  1  5  2 -1</clus>
<clus scale="   28.070">  1  5  2 -1</clus>
</clustering>
</event>
<event>
 9    1  0.2423659E-006  0.9312602E+02  0.7546771E-02  0.1296356E+00
          4   -1    0    0  502    0  0.00000000000E+00  0.00000000000E+00  0.10683778592E+03  0.10683778592E+03  0.00000000000E+00 0. -1.
         -4   -1    0    0    0  501 -0.00000000000E+00 -0.00000000000E+00 -0.16151150206E+03  0.16151150206E+03  0.00000000000E+00 0.  1.
         23    2    1    2    0    0  0.73942566654E+01  0.11649678443E+02 -0.22757847538E+02  0.94754818431E+02  0.90940452780E+02 0.  0.
         23    2    1    2    0    0  0.14406684628E+01  0.51257990369E+02 -0.37932329368E+02  0.10978515598E+03  0.89355815485E+02 0.  0.
        -11    1    4    4    0    0 -0.44249244255E+01  0.76226928498E+02 -0.34915780072E+02  0.83959730124E+02  0.00000000000E+00 0.  1.
         11    1    4    4    0    0  0.58655928882E+01 -0.24968938129E+02 -0.30165492961E+01  0.25825425861E+02  0.00000000000E+00 0. -1.
        -13    1    3    3    0    0  0.39261894715E+02  0.33519429151E+02 -0.39597617744E+01  0.51775749348E+02  0.00000000000E+00 0.  1.
         13    1    3    3    0    0 -0.31867638050E+02 -0.21869750708E+02 -0.18798085764E+02  0.42979069083E+02  0.00000000000E+00 0. -1.
         21    1    1    2  502  501 -0.88349251282E+01 -0.62907668812E+02  0.60164607595E+01  0.63809313563E+02  0.00000000000E+00 0. -1.
<scales pt_clust_5="13000.00000" pt_clust_6="13000.00000" pt_clust_7="13000.00000" pt_clust_8="13000.00000" pt_clust_9="63.52504"></scales>
<clustering>
<clus scale="   63.525">  1  9  2 -1</clus>
<clus scale="   89.356">  5  6 -1 -1</clus>
<clus scale="   90.940">  7  8 -1 -1</clus>
<clus scale="   91.579">  1  5  2 -1</clus>
<clus scale="   63.525">  1  5  2 -1</clus>
</clustering>
</event>
<event>
 9    1  0.2423659E-006  0.1632922E+03  0.7546771E-02  0.1185659E+00
          2   -1    0    0  502    0  0.00000000000E+00  0.00000000000E+00  0.33023429397E+03  0.33023429397E+03  0.00000000000E+00 0. -1.
         -2   -1    0    0    0  501 -0.00000000000E+00 -0.00000000000E+00 -0.18990708080E+03  0.18990708080E+03  0.00000000000E+00 0.  1.
         23    2    1    2    0    0 -0.77080683012E+01 -0.86534135111E+02  0.34235195559E+02  0.13393405576E+03  0.96014123028E+02 0.  0.
         23    2    1    2    0    0  0.10622650961E+03  0.16688232830E+03 -0.36881893918E+01  0.21823884197E+03  0.92091294711E+02 0.  0.
        -11    1    4    4    0    0  0.47117633290E+02  0.43463863582E+02 -0.41381614504E+02  0.76299520466E+02  0.00000000000E+00 0. -1.
         11    1    4    4    0    0  0.59108876322E+02  0.12341846472E+03  0.37693425112E+02  0.14193932151E+03  0.00000000000E+00 0.  1.
        -11    1    3    3    0    0 -0.28007991707E+01 -0.10757472251E+03  0.31684427725E+02  0.11217873399E+03  0.00000000000E+00 0. -1.
         11    1    3    3    0    0 -0.49072691305E+01  0.21040587404E+02  0.25507678342E+01  0.21755321766E+02  0.00000000000E+00 0.  1.
         21    1    1    2  502  501 -0.98518441311E+02 -0.80348193188E+02  0.10978020701E+03  0.16796847704E+03  0.00000000000E+00 0. -1.
<scales pt_clust_5="13000.00000" pt_clust_6="13000.00000" pt_clust_7="13000.00000" pt_clust_8="13000.00000" pt_clust_9="127.12874"></scales>
<clustering>
<clus scale="   92.091">  5  6 -1 -1</clus>
<clus scale="   96.014">  7  8 -1 -1</clus>
<clus scale="  127.129">  1  9  2 -1</clus>
<clus scale="  161.017">  1  5  2 -1</clus>
<clus scale="  127.129">  1  5  2 -1</clus>
</clustering>
</event>
<event>
 9    1  0.3311944E-006  0.9659705E+02  0.7546771E-02  0.1289243E+00
         -2   -1    0    0    0  501 -0.00000000000E+00  0.00000000000E+00  0.50927893288E+03  0.50927893288E+03  0.00000000000E+00 0.  1.
          2   -1    0    0  502    0  0.00000000000E+00 -0.00000000000E+00 -0.78573277669E+02  0.78573277669E+02  0.00000000000E+00 0. -1.
         23    2    1    2    0    0 -0.25893197201E+02  0.16075297987E+02  0.37383809412E+03  0.38684245220E+03  0.94674649970E+02 0.  0.
         23    2    1    2    0    0  0.17183064583E+02  0.89174289914E+01 -0.39024148728E+02  0.10153251057E+03  0.91712530610E+02 0.  0.
        -11    1    3    3    0    0  0.26105572803E+02 -0.20727058211E+02  0.17162343191E+03  0.17483053010E+03  0.00000000000E+00 0. -1.
         11    1    3    3    0    0 -0.51998770004E+02  0.36802356198E+02  0.20221466220E+03  0.21201192210E+03  0.00000000000E+00 0.  1.
        -13    1    4    4    0    0 -0.30976402602E+02 -0.17489533445E+02 -0.28563222556E+02  0.45621036607E+02  0.00000000000E+00 0.  1.
         13    1    4    4    0    0  0.48159467185E+02  0.26406962436E+02 -0.10460926172E+02  0.55911473966E+02  0.00000000000E+00 0. -1.
         21    1    1    2  502  501  0.87101326179E+01 -0.24992726979E+02  0.95891709823E+02  0.99477247775E+02  0.00000000000E+00 0. -1.
<scales pt_clust_5="13000.00000" pt_clust_6="13000.00000" pt_clust_7="13000.00000" pt_clust_8="13000.00000" pt_clust_9="26.46701"></scales>
<clustering>
<clus scale="   26.467">  1  9  2 -1</clus>
<clus scale="   91.713">  7  8 -1 -1</clus>
<clus scale="   93.696">  2  7  1 -1</clus>
<clus scale="   94.675">  5  6 -1 -1</clus>
<clus scale="   93.696">  2  5  1 -1</clus>
</clustering>
</event>
<event>
 9    1  0.2423659E-006  0.1383336E+03  0.7546771E-02  0.1227079E+00
          1   -1    0    0  502    0  0.00000000000E+00  0.00000000000E+00  0.84198010483E+03  0.84198010483E+03  0.00000000000E+00 0. -1.
         -1   -1    0    0    0  501 -0.00000000000E+00 -0.00000000000E+00 -0.47259564025E+02  0.47259564025E+02  0.00000000000E+00 0.  1.
         23    2    1    2    0    0  0.30912947578E+02  0.47163471665E+02  0.94346747471E+02  0.14396393871E+03  0.92974746592E+02 0.  0.
         23    2    1    2    0    0  0.81926798634E+02 -0.36882618079E+02  0.25387832707E+03  0.28462759364E+03  0.92121301832E+02 0.  0.
        -11    1    4    4    0    0  0.28513379010E+02 -0.33520319122E+02  0.27239349178E+02  0.51755257899E+02  0.00000000000E+00 0. -1.
         11    1    4    4    0    0  0.53413419624E+02 -0.33622989566E+01  0.22663897790E+03  0.23287233574E+03  0.00000000000E+00 0.  1.
        -11    1    3    3    0    0  0.25805287628E+02 -0.63710501415E+01 -0.84997246055E+01  0.27906065072E+02  0.00000000000E+00 0.  1.
         11    1    3    3    0    0  0.51076599499E+01  0.53534521807E+02  0.10284647208E+03  0.11605787364E+03  0.00000000000E+00 0. -1.
         21    1    1    2  502  501 -0.11283974621E+03 -0.10280853586E+02  0.44649546626E+03  0.46064813650E+03  0.00000000000E+00 0. -1.
<scales pt_clust_5="13000.00000" pt_clust_6="13000.00000" pt_clust_7="13000.00000" pt_clust_8="13000.00000" pt_clust_9="103.19816"></scales>
<clustering>
<clus scale="   92.121">  5  6 -1 -1</clus>
<clus scale="   92.975">  7  8 -1 -1</clus>
<clus scale="  108.740">  2  7  1 -1</clus>
<clus scale="  103.198">  1  9  2 -1</clus>
<clus scale="  103.198">  1  5  2 -1</clus>
</clustering>
</event>
<event>
 9    1  0.2423659E-006  0.1712545E+03  0.7546771E-02  0.1179102E+00
         -2   -1    0    0    0  501 -0.00000000000E+00  0.00000000000E+00  0.15625517875E+03  0.15625517875E+03  0.00000000000E+00 0.  1.
          2   -1    0    0  502    0  0.00000000000E+00 -0.00000000000E+00 -0.61381712326E+03  0.61381712326E+03  0.00000000000E+00 0. -1.
         23    2    1    2    0    0 -0.11258807132E+03 -0.81345902566E+01 -0.21293844172E+02  0.14602781773E+03  0.90157919172E+02 0.  0.
         23    2    1    2    0    0  0.19393489559E+03  0.11834191438E+03 -0.94573539226E+02  0.25591660812E+03  0.70239615358E+02 0.  0.
        -11    1    4    4    0    0  0.17350191818E+03  0.76310568411E+02 -0.87066132850E+02  0.20858266935E+03  0.00000000000E+00 0.  1.
         11    1    4    4    0    0  0.20432977414E+02  0.42031345965E+02 -0.75074063760E+01  0.47333938777E+02  0.00000000000E+00 0. -1.
        -13    1    3    3    0    0 -0.94153035176E+01 -0.29657847191E+02  0.15021807440E+02  0.34552721154E+02  0.00000000000E+00 0.  1.
         13    1    3    3    0    0 -0.10317276780E+03  0.21523256934E+02 -0.36315651612E+02  0.11147509657E+03  0.00000000000E+00 0. -1.
         21    1    1    2  502  501 -0.81346824273E+02 -0.11020732412E+03 -0.34169456112E+03  0.36812787616E+03  0.00000000000E+00 0. -1.
<scales pt_clust_5="13000.00000" pt_clust_6="13000.00000" pt_clust_7="13000.00000" pt_clust_8="13000.00000" pt_clust_9="136.97795"></scales>
<clustering>
<clus scale="   70.240">  5  6 -1 -1</clus>
<clus scale="   90.158">  7  8 -1 -1</clus>
<clus scale="  136.978">  2  9  1 -1</clus>
<clus scale="  161.658">  2  5  1 -1</clus>
<clus scale="  136.978">  2  5  1 -1</clus>
</clustering>
</event>
<event>
 9    1  0.2423659E-006  0.1045352E+03  0.7546771E-02  0.1271898E+00
          4   -1    0    0  502    0  0.00000000000E+00  0.00000000000E+00  0.41848580482E+03  0.41848580482E+03  0.00000000000E+00 0. -1.
         -4   -1    0    0    0  501 -0.00000000000E+00 -0.00000000000E+00 -0.43344439770E+02  0.43344439770E+02  0.00000000000E+00 0.  1.
         23    2    1    2    0    0  0.54587634362E+02  0.11781751418E+02  0.12752960608E+03  0.16627865721E+03  0.90918490554E+02 0.  0.
         23    2    1    2    0    0 -0.43460548503E+02  0.18077819619E+02  0.24166495525E+03  0.26313599705E+03  0.92859977971E+02 0.  0.
        -11    1    3    3    0    0 -0.16276551508E+02  0.20191224888E+02  0.69889282877E+02  0.74546116952E+02  0.00000000000E+00 0.  1.
         11    1    3    3    0    0  0.70864185870E+02 -0.84094734699E+01  0.57640323202E+02  0.91732540257E+02  0.00000000000E+00 0. -1.
        -11    1    4    4    0    0  0.28728113143E+02  0.89457826215E+01  0.53315383037E+02  0.61219780952E+02  0.00000000000E+00 0. -1.
         11    1    4    4    0    0 -0.72188661646E+02  0.91320369980E+01  0.18834957221E+03  0.20191621610E+03  0.00000000000E+00 0.  1.
         21    1    1    2  502  501 -0.11127085859E+02 -0.29859571038E+02  0.59468037253E+01  0.32415590336E+02  0.00000000000E+00 0. -1.
<scales pt_clust_5="13000.00000" pt_clust_6="13000.00000" pt_clust_7="13000.00000" pt_clust_8="13000.00000" pt_clust_9="31.86544"></scales>
<clustering>
<clus scale="   31.865">  2  9  1 -1</clus>
<clus scale="   90.918">  5  6 -1 -1</clus>
<clus scale="   92.860">  7  8 -1 -1</clus>
<clus scale="  102.814">  2  5  1 -1</clus>
<clus scale="  104.535">  1  5  2 -1</clus>
</clustering>
</event>
<event>
 9    1  0.2423659E-006  0.1150888E+03  0.7546771E-02  0.1251915E+00
         -1   -1    0    0    0  501 -0.00000000000E+00  0.00000000000E+00  0.74760063789E+02  0.74760063789E+02  0.00000000000E+00 0.  1.
          1   -1    0    0  502    0  0.00000000000E+00 -0.00000000000E+00 -0.37551498505E+03  0.37551498505E+03  0.00000000000E+00 0. -1.
         23    2    1    2    0    0 -0.12989198633E+02 -0.35962359139E+02 -0.52666412243E+02  0.11122435977E+03  0.90194770755E+02 0.  0.
         23    2    1    2    0    0  0.81124217968E+02  0.43813317544E+02 -0.23598216770E+03  0.26940456996E+03  0.91599635959E+02 0.  0.
        -13    1    4    4    0    0  0.43784621217E+02  0.15981134486E+01 -0.19463365464E+03  0.19950415169E+03  0.00000000000E+00 0. -1.
         13    1    4    4    0    0  0.37339596751E+02  0.42215204096E+02 -0.41348513056E+02  0.69900418270E+02  0.00000000000E+00 0.  1.
        -13    1    3    3    0    0  0.32446307588E+02 -0.87831346584E+01 -0.47273766742E+02  0.58006166504E+02  0.00000000000E+00 0.  1.
         13    1    3    3    0    0 -0.45435506221E+02 -0.27179224480E+02 -0.53926455007E+01  0.53218193265E+02  0.00000000000E+00 0. -1.
         21    1    1    2  502  501 -0.68135019335E+02 -0.78509584054E+01 -0.12106341324E+02  0.69646119116E+02  0.00000000000E+00 0.  1.
<scales pt_clust_5="13000.00000" pt_clust_6="13000.00000" pt_clust_7="13000.00000" pt_clust_8="13000.00000" pt_clust_9="68.58585"></scales>
<clustering>
<clus scale="   68.586">  1  9  2 -1</clus>
<clus scale="   90.195">  7  8 -1 -1</clus>
<clus scale="   91.600">  5  6 -1 -1</clus>
<clus scale="  113.974">  1  7  2 -1</clus>
<clus scale="  115.089">  2  5  1 -1</clus>
</clustering>
</event>
<event>
 9    1  0.2423659E-006  0.9915794E+02  0.7546771E-02  0.1282432E+00
          2   -1    0    0  502    0  0.00000000000E+00  0.00000000000E+00  0.26271648718E+03  0.26271648718E+03  0.00000000000E+00 0. -1.
         -2   -1    0    0    0  501 -0.00000000000E+00 -0.00000000000E+00 -0.62942522171E+02  0.62942522171E+02  0.00000000000E+00 0.  1.
         23    2    1    2    0    0  0.32045743449E+02  0.42958437663E+02  0.80949040924E+02  0.13375991269E+03  0.92014183557E+02 0.  0.
         23    2    1    2    0    0  0.18754089015E+02 -0.31179262521E+02  0.82915328988E+02  0.12858345116E+03  0.91295617999E+02 0.  0.
        -11    1    3    3    0    0  0.54117127882E+02  0.55815668725E+02  0.45541297738E+02  0.90100289705E+02  0.00000000000E+00 0. -1.
         11    1    3    3    0    0 -0.22071384432E+02 -0.12857231061E+02  0.35407743186E+02  0.43659622981E+02  0.00000000000E+00 0.  1.
        -13    1    4    4    0    0 -0.26327513629E+02 -0.36124155776E+02  0.15456399503E+02  0.47296859198E+02  0.00000000000E+00 0.  1.
         13    1    4    4    0    0  0.45081602643E+02  0.49448932544E+01  0.67458929484E+02  0.81286591965E+02  0.00000000000E+00 0. -1.
         21    1    1    2  502  501 -0.50799832464E+02 -0.11779175142E+02  0.35909595100E+02  0.63315645504E+02  0.00000000000E+00 0. -1.
<scales pt_clust_5="13000.00000" pt_clust_6="13000.00000" pt_clust_7="13000.00000" pt_clust_8="13000.00000" pt_clust_9="52.14760"></scales>
<clustering>
<clus scale="   52.148">  2  9  1 -1</clus>
<clus scale="   91.296">  7  8 -1 -1</clus>
<clus scale="   92.014">  5  6 -1 -1</clus>
<clus scale="   98.492">  1  7  2 -1</clus>
<clus scale="   98.492">  1  5  2 -1</clus>
</clustering>
</event>
<event>
 9    1  0.2423659E-006  0.1252904E+03  0.7546771E-02  0.1240788E+00
         -3   -1    0    0    0  501 -0.00000000000E+00  0.00000000000E+00  0.38912497399E+03  0.38912497399E+03  0.00000000000E+00 0.  1.
          3   -1    0    0  502    0  0.00000000000E+00 -0.00000000000E+00 -0.11386377166E+03  0.11386377166E+03  0.00000000000E+00 0. -1.
         23    2    1    2    0    0 -0.74023395720E+02 -0.98151164482E+02  0.66663429785E+02  0.16721601548E+03  0.91673708122E+02 0.  0.
         23    2    1    2    0    0  0.11282125801E+02  0.28667736115E+02  0.70670669445E+01  0.11355878130E+03  0.10907120573E+03 0.  0.
        -11    1    3    3    0    0 -0.21114443010E+02 -0.96242134241E+02  0.30661743062E+02  0.10319162076E+03  0.00000000000E+00 0. -1.
         11    1    3    3    0    0 -0.52908952710E+02 -0.19090302409E+01  0.36001686723E+02  0.64024394728E+02  0.00000000000E+00 0.  1.
        -13    1    4    4    0    0 -0.34076963121E+02 -0.15393609052E+01 -0.31789294530E+02  0.46627977592E+02  0.00000000000E+00 0. -1.
         13    1    4    4    0    0  0.45359088922E+02  0.30207097020E+02  0.38856361474E+02  0.66930803710E+02  0.00000000000E+00 0.  1.
         21    1    1    2  502  501  0.62741269919E+02  0.69483428367E+02  0.20153070560E+03  0.22221394886E+03  0.00000000000E+00 0.  1.
<scales pt_clust_5="13000.00000" pt_clust_6="13000.00000" pt_clust_7="13000.00000" pt_clust_8="13000.00000" pt_clust_9="93.61845"></scales>
<clustering>
<clus scale="   91.674">  5  6 -1 -1</clus>
<clus scale="   93.618">  1  9  2 -1</clus>
<clus scale="  109.071">  7  8 -1 -1</clus>
<clus scale="  110.477">  1  5  2 -1</clus>
<clus scale="  125.290">  2  5  1 -1</clus>
</clustering>
</event>
<event>
 9    1  0.2423659E-006  0.2789350E+03  0.7546771E-02  0.1134416E+00
          1   -1    0    0  502    0  0.00000000000E+00  0.00000000000E+00  0.70441788205E+03  0.70441788205E+03  0.00000000000E+00 0. -1.
         -1   -1    0    0    0  501 -0.00000000000E+00 -0.00000000000E+00 -0.19879630801E+03  0.19879630801E+03  0.00000000000E+00 0.  1.
         23    2    1    2    0    0 -0.36543407170E+02  0.17256355096E+02 -0.58055972306E+02  0.12133759518E+03  0.98585565298E+02 0.  0.
         23    2    1    2    0    0 -0.20825644245E+03  0.11745705491E+03  0.22546315338E+03  0.34316980803E+03  0.98817903475E+02 0.  0.
        -11    1    4    4    0    0 -0.18723838262E+03  0.10441469958E+03  0.23366282963E+03  0.31711032681E+03  0.00000000000E+00 0. -1.
         11    1    4    4    0    0 -0.21018059825E+02  0.13042355326E+02 -0.81996762533E+01  0.26059481229E+02  0.00000000000E+00 0.  1.
        -13    1    3    3    0    0 -0.44966722630E+02  0.37794554306E+02 -0.73652496361E+02  0.94207880241E+02  0.00000000000E+00 0.  1.
         13    1    3    3    0    0  0.84233154600E+01 -0.20538199210E+02  0.15596524055E+02  0.27129714940E+02  0.00000000000E+00 0. -1.
         21    1    1    2  502  501  0.24479984962E+03 -0.13471341000E+03  0.33821439298E+03  0.43870678685E+03  0.00000000000E+00 0.  1.
<scales pt_clust_5="13000.00000" pt_clust_6="13000.00000" pt_clust_7="13000.00000" pt_clust_8="13000.00000" pt_clust_9="260.84432"></scales>
<clustering>
<clus scale="   98.586">  7  8 -1 -1</clus>
<clus scale="   98.818">  5  6 -1 -1</clus>
<clus scale="  106.547">  2  7  1 -1</clus>
<clus scale="  260.844">  1  9  2 -1</clus>
<clus scale="  260.844">  1  5  2 -1</clus>
</clustering>
</event>
<event>
 9    1  0.3539158E-006  0.1718562E+03  0.7546771E-02  0.1192233E+00
         -1   -1    0    0    0  501 -0.00000000000E+00  0.00000000000E+00  0.23279218497E+03  0.23279218497E+03  0.00000000000E+00 0.  1.
          1   -1    0    0  502    0  0.00000000000E+00 -0.00000000000E+00 -0.60273207014E+03  0.60273207014E+03  0.00000000000E+00 0. -1.
         23    2    1    2    0    0  0.59239225267E+02  0.44124087993E+02  0.10300648830E+03  0.15770813398E+03  0.93836549060E+02 0.  0.
         23    2    1    2    0    0 -0.11479676503E+03  0.90932941927E+02 -0.49994130873E+03  0.52930427619E+03  0.93672874608E+02 0.  0.
        -11    1    3    3    0    0  0.30491520569E+02  0.60463622709E+02  0.23633130768E+02  0.71722432806E+02  0.00000000000E+00 0. -1.
         11    1    3    3    0    0  0.28747704698E+02 -0.16339534716E+02  0.79373357531E+02  0.85985701171E+02  0.00000000000E+00 0.  1.
        -13    1    4    4    0    0 -0.92045517152E+02  0.17551207843E+02 -0.32494749955E+03  0.33818826057E+03  0.00000000000E+00 0. -1.
         13    1    4    4    0    0 -0.22751247873E+02  0.73381734084E+02 -0.17499380918E+03  0.19111601562E+03  0.00000000000E+00 0.  1.
         21    1    1    2  502  501  0.55557539758E+02 -0.13505702992E+03  0.26994935258E+02  0.14851184493E+03  0.00000000000E+00 0.  1.
<scales pt_clust_5="13000.00000" pt_clust_6="13000.00000" pt_clust_7="13000.00000" pt_clust_8="13000.00000" pt_clust_9="144.08317"></scales>
<clustering>
<clus scale="   93.673">  7  8 -1 -1</clus>
<clus scale="   93.837">  5  6 -1 -1</clus>
<clus scale="  119.422">  1  5  2 -1</clus>
<clus scale="  144.083">  1  9  2 -1</clus>
<clus scale="  171.856">  2  5  1 -1</clus>
</clustering>
</event>
<event>
 9    1  0.2423659E-006  0.1490801E+03  0.7546771E-02  0.1217392E+00
         -2   -1    0    0    0  501 -0.00000000000E+00  0.00000000000E+00  0.31844910697E+03  0.31844910697E+03  0.00000000000E+00 0.  1.
          2   -1    0    0  502    0  0.00000000000E+00 -0.00000000000E+00 -0.27508506041E+03  0.27508506041E+03  0.00000000000E+00 0. -1.
         23    2    1    2    0    0 -0.14134661024E+03 -0.69600854447E+02 -0.41042395019E+02  0.18732486035E+03  0.92644384338E+02 0.  0.
         23    2    1    2    0    0  0.32906417088E+02  0.40962508556E+02 -0.12773766557E+03  0.16624149138E+03  0.92512501083E+02 0.  0.
        -11    1    4    4    0    0 -0.20118929895E+02  0.47894730323E-01 -0.83703044249E+02  0.86087009767E+02  0.00000000000E+00 0.  1.
         11    1    4    4    0    0  0.53025346983E+02  0.40914613825E+02 -0.44034621324E+02  0.80154481611E+02  0.00000000000E+00 0. -1.
        -13    1    3    3    0    0 -0.85081379093E+02 -0.13664061863E+02  0.18491342833E+02  0.88133293452E+02  0.00000000000E+00 0.  1.
         13    1    3    3    0    0 -0.56265231149E+02 -0.55936792584E+02 -0.59533737852E+02  0.99191566897E+02  0.00000000000E+00 0. -1.
         21    1    1    2  502  501  0.10844019315E+03  0.28638345891E+02  0.21214410715E+03  0.23996781564E+03  0.00000000000E+00 0.  1.
<scales pt_clust_5="13000.00000" pt_clust_6="13000.00000" pt_clust_7="13000.00000" pt_clust_8="13000.00000" pt_clust_9="116.79852"></scales>
<clustering>
<clus scale="   92.513">  5  6 -1 -1</clus>
<clus scale="   92.644">  7  8 -1 -1</clus>
<clus scale="  106.392">  2  5  1 -1</clus>
<clus scale="  116.799">  1  9  2 -1</clus>
<clus scale="  106.392">  2  5  1 -1</clus>
</clustering>
</event>
<event>
 9    1  0.2423659E-006  0.1017270E+03  0.7546771E-02  0.1276938E+00
          1   -1    0    0  502    0  0.00000000000E+00  0.00000000000E+00  0.55629199333E+03  0.55629199333E+03  0.00000000000E+00 0. -1.
         -1   -1    0    0    0  501 -0.00000000000E+00 -0.00000000000E+00 -0.32057063653E+02  0.32057063653E+02  0.00000000000E+00 0.  1.
         23    2    1    2    0    0  0.64948209284E+01 -0.18957218664E+02  0.16362825270E+03  0.18841680284E+03  0.91242137595E+02 0.  0.
         23    2    1    2    0    0 -0.67852315855E+01  0.63569107343E+02  0.32314501519E+03  0.34167694491E+03  0.90737881082E+02 0.  0.
        -11    1    4    4    0    0 -0.26891948755E+02  0.78611022822E+02  0.21129354743E+03  0.22704147859E+03  0.00000000000E+00 0.  1.
         11    1    4    4    0    0  0.20106717169E+02 -0.15041915480E+02  0.11185146776E+03  0.11463546632E+03  0.00000000000E+00 0. -1.
        -13    1    3    3    0    0  0.39760602855E+02  0.86046788597E+01  0.38382646102E+02  0.55930077414E+02  0.00000000000E+00 0. -1.
         13    1    3    3    0    0 -0.33265781927E+02 -0.27561897524E+02  0.12524560660E+03  0.13248672543E+03  0.00000000000E+00 0.  1.
         21    1    1    2  502  501  0.29041065708E+00 -0.44611888678E+02  0.37461661777E+02  0.58255309225E+02  0.00000000000E+00 0. -1.
<scales pt_clust_5="13000.00000" pt_clust_6="13000.00000" pt_clust_7="13000.00000" pt_clust_8="13000.00000" pt_clust_9="44.61283"></scales>
<clustering>
<clus scale="   44.613">  2  9  1 -1</clus>
<clus scale="   90.738">  5  6 -1 -1</clus>
<clus scale="   91.242">  7  8 -1 -1</clus>
<clus scale="  101.275">  1  5  2 -1</clus>
<clus scale="  101.275">  1  5  2 -1</clus>
</clustering>
</event>
<event>
 9    1  0.2423659E-006  0.1000919E+03  0.7546771E-02  0.1280465E+00
         -2   -1    0    0    0  501 -0.00000000000E+00  0.00000000000E+00  0.79610560456E+02  0.79610560456E+02  0.00000000000E+00 0.  1.
          2   -1    0    0  502    0  0.00000000000E+00 -0.00000000000E+00 -0.18304668703E+03  0.18304668703E+03  0.00000000000E+00 0. -1.
         23    2    1    2    0    0 -0.41506055919E+02 -0.36922634571E+02 -0.31671258428E+02  0.11110089723E+03  0.90853217523E+02 0.  0.
         23    2    1    2    0    0  0.28017641534E+02  0.31007789229E+01 -0.42510151953E+02  0.10484774653E+03  0.91604224065E+02 0.  0.
        -13    1    3    3    0    0 -0.61035289433E+02  0.39741731560E+01 -0.18778844722E+02  0.63982385213E+02  0.00000000000E+00 0.  1.
         13    1    3    3    0    0  0.19529233514E+02 -0.40896807727E+02 -0.12892413705E+02  0.47118512021E+02  0.00000000000E+00 0. -1.
        -13    1    4    4    0    0 -0.11199627033E+01  0.40729297361E+02  0.43170337023E+00  0.40746979616E+02  0.00000000000E+00 0.  1.
         13    1    4    4    0    0  0.29137604238E+02 -0.37628518438E+02 -0.42941855323E+02  0.64100766915E+02  0.00000000000E+00 0. -1.
         21    1    1    2  502  501  0.13488414385E+02  0.33821855648E+02 -0.29254716194E+02  0.46708603722E+02  0.00000000000E+00 0. -1.
<scales pt_clust_5="13000.00000" pt_clust_6="13000.00000" pt_clust_7="13000.00000" pt_clust_8="13000.00000" pt_clust_9="36.41230"></scales>
<clustering>
<clus scale="   36.412">  2  9  1 -1</clus>
<clus scale="   90.853">  5  6 -1 -1</clus>
<clus scale="   91.604">  7  8 -1 -1</clus>
<clus scale="   99.405">  1  5  2 -1</clus>
<clus scale="   36.412">  2  5  1 -1</clus>
</clustering>
</event>
<event>
 9    1  0.2423659E-006  0.1231704E+03  0.7546771E-02  0.1238040E+00
          1   -1    0    0  502    0  0.00000000000E+00  0.00000000000E+00  0.15971206694E+03  0.15971206694E+03  0.00000000000E+00 0. -1.
         -1   -1    0    0    0  501 -0.00000000000E+00 -0.00000000000E+00 -0.24679735933E+03  0.24679735933E+03  0.00000000000E+00 0.  1.
         23    2    1    2    0    0  0.61030794488E+02  0.74283923658E+01 -0.63542261216E+02  0.12741525919E+03  0.91744702437E+02 0.  0.
         23    2    1    2    0    0 -0.79394267290E+02 -0.43823630540E+02  0.90874795904E+02  0.15763112889E+03  0.91462473131E+02 0.  0.
        -11    1    3    3    0    0  0.61034513812E+02 -0.29896577297E+02 -0.21697894675E+02  0.71342945297E+02  0.00000000000E+00 0. -1.
         11    1    3    3    0    0 -0.37193242581E-02  0.37324969663E+02 -0.41844366541E+02  0.56072313894E+02  0.00000000000E+00 0.  1.
        -13    1    4    4    0    0 -0.55388226436E+02  0.13397504860E+02  0.13710698939E+02  0.58611705568E+02  0.00000000000E+00 0.  1.
         13    1    4    4    0    0 -0.24006040854E+02 -0.57221135400E+02  0.77164096965E+02  0.99019423319E+02  0.00000000000E+00 0. -1.
         21    1    1    2  502  501  0.18363472802E+02  0.36395238174E+02 -0.11441782707E+03  0.12146303819E+03  0.00000000000E+00 0.  1.
<scales pt_clust_5="13000.00000" pt_clust_6="13000.00000" pt_clust_7="13000.00000" pt_clust_8="13000.00000" pt_clust_9="40.76556"></scales>
<clustering>
<clus scale="   40.766">  2  9  1 -1</clus>
<clus scale="   91.462">  7  8 -1 -1</clus>
<clus scale="   91.745">  5  6 -1 -1</clus>
<clus scale="  122.960">  1  7  2 -1</clus>
<clus scale="  122.960">  1  5  2 -1</clus>
</clustering>
</event>
<event>
 9    1  0.2423659E-006  0.1185552E+03  0.7546771E-02  0.1245584E+00
          1   -1    0    0  502    0  0.00000000000E+00  0.00000000000E+00  0.19482505304E+03  0.19482505304E+03  0.00000000000E+00 0. -1.
         -1   -1    0    0    0  501 -0.00000000000E+00 -0.00000000000E+00 -0.17221426237E+03  0.17221426237E+03  0.00000000000E+00 0.  1.
         23    2    1    2    0    0  0.20130617665E+01  0.48636373306E+02 -0.72324910511E+02  0.12579996273E+03  0.90692826157E+02 0.  0.
         23    2    1    2    0    0  0.53513761592E+02 -0.67811109798E+02  0.12363873403E+03  0.17585768302E+03  0.90428528873E+02 0.  0.
        -11    1    4    4    0    0 -0.25162195695E+02 -0.24385773569E+02  0.38656910089E+02  0.52174311134E+02  0.00000000000E+00 0. -1.
         11    1    4    4    0    0  0.78675957286E+02 -0.43425336228E+02  0.84981823941E+02  0.12368337189E+03  0.00000000000E+00 0.  1.
        -13    1    3    3    0    0 -0.42017385487E+02  0.28646598965E+02 -0.20252678487E+02  0.54738097348E+02  0.00000000000E+00 0. -1.
         13    1    3    3    0    0  0.44030447253E+02  0.19989774342E+02 -0.52072232024E+02  0.71061865382E+02  0.00000000000E+00 0.  1.
         21    1    1    2  502  501 -0.55526823358E+02  0.19174736491E+02 -0.28703032849E+02  0.65381669652E+02  0.00000000000E+00 0. -1.
<scales pt_clust_5="13000.00000" pt_clust_6="13000.00000" pt_clust_7="13000.00000" pt_clust_8="13000.00000" pt_clust_9="58.74435"></scales>
<clustering>
<clus scale="   58.744">  2  9  1 -1</clus>
<clus scale="   90.429">  5  6 -1 -1</clus>
<clus scale="   90.693">  7  8 -1 -1</clus>
<clus scale="  118.353">  1  5  2 -1</clus>
<clus scale="  118.353">  1  5  2 -1</clus>
</clustering>
</event>
<event>
 9    1  0.2423659E-006  0.1009032E+03  0.7546771E-02  0.1279035E+00
         -2   -1    0    0    0  501 -0.00000000000E+00  0.00000000000E+00  0.12846255336E+03  0.12846255336E+03  0.00000000000E+00 0.  1.
          2   -1    0    0  502    0  0.00000000000E+00 -0.00000000000E+00 -0.16962983602E+03  0.16962983602E+03  0.00000000000E+00 0. -1.
         23    2    1    2    0    0 -0.16204680237E+02 -0.10599504254E+02  0.20230400670E+02  0.93695750346E+02  0.89412993293E+02 0.  0.
         23    2    1    2    0    0 -0.64872741566E+01  0.58781841199E+02 -0.92744925968E+02  0.14259767458E+03  0.90747374181E+02 0.  0.
        -11    1    3    3    0    0 -0.49643526748E+02  0.10531432331E+02  0.18784806143E+02  0.54113397202E+02  0.00000000000E+00 0. -1.
         11    1    3    3    0    0  0.33438846511E+02 -0.21130936585E+02  0.14455945272E+01  0.39582353144E+02  0.00000000000E+00 0.  1.
        -11    1    4    4    0    0  0.31243051873E+02  0.11519693144E+02 -0.17572407496E+01  0.33345457195E+02  0.00000000000E+00 0.  1.
         11    1    4    4    0    0 -0.37730326030E+02  0.47262148055E+02 -0.90987685219E+02  0.10925221738E+03  0.00000000000E+00 0. -1.
         21    1    1    2  502  501  0.22691954394E+02 -0.48182336945E+02  0.31347242637E+02  0.61798964463E+02  0.00000000000E+00 0.  1.
<scales pt_clust_5="13000.00000" pt_clust_6="13000.00000" pt_clust_7="13000.00000" pt_clust_8="13000.00000" pt_clust_9="53.25845"></scales>
<clustering>
<clus scale="   53.258">  1  9  2 -1</clus>
<clus scale="   89.413">  5  6 -1 -1</clus>
<clus scale="   90.747">  7  8 -1 -1</clus>
<clus scale="   99.705">  1  5  2 -1</clus>
<clus scale="  100.903">  2  5  1 -1</clus>
</clustering>
</event>
<event>
 9    1  0.2423659E-006  0.1786359E+03  0.7546771E-02  0.1200087E+00
         -1   -1    0    0    0  501 -0.00000000000E+00  0.00000000000E+00  0.24628829036E+03  0.24628829036E+03  0.00000000000E+00 0.  1.
          1   -1    0    0  502    0  0.00000000000E+00 -0.00000000000E+00 -0.22720853245E+03  0.22720853245E+03  0.00000000000E+00 0. -1.
         23    2    1    2    0    0  0.12434458791E+03 -0.96839978227E+02 -0.21886704297E+02  0.18410184171E+03  0.92600768742E+02 0.  0.
         23    2    1    2    0    0 -0.40045627272E+00  0.10714691311E+02 -0.60009287372E+02  0.10780253959E+03  0.88911798966E+02 0.  0.
        -11    1    3    3    0    0  0.30768941798E+02  0.10556255909E+02  0.16641517358E+02  0.36539053329E+02  0.00000000000E+00 0.  1.
         11    1    3    3    0    0  0.93575646108E+02 -0.10739623414E+03 -0.38528221655E+02  0.14756278838E+03  0.00000000000E+00 0. -1.
        -11    1    4    4    0    0  0.36352220716E+02  0.30218581078E+02 -0.38488689858E+02  0.60959214564E+02  0.00000000000E+00 0.  1.
         11    1    4    4    0    0 -0.36752676988E+02 -0.19503889766E+02 -0.21520597515E+02  0.46843325023E+02  0.00000000000E+00 0. -1.
         21    1    1    2  502  501 -0.12394413163E+03  0.86125286915E+02  0.10097574957E+03  0.18159244151E+03  0.00000000000E+00 0.  1.
<scales pt_clust_5="13000.00000" pt_clust_6="13000.00000" pt_clust_7="13000.00000" pt_clust_8="13000.00000" pt_clust_9="152.76082"></scales>
<clustering>
<clus scale="   88.912">  7  8 -1 -1</clus>
<clus scale="   89.556">  2  7  1 -1</clus>
<clus scale="   92.601">  5  6 -1 -1</clus>
<clus scale="  152.761">  1  9  2 -1</clus>
<clus scale="   89.556">  2  5  1 -1</clus>
</clustering>
</event>
<event>
 9    1  0.2423659E-006  0.1077411E+03  0.7546771E-02  0.1265820E+00
         -2   -1    0    0    0  501 -0.00000000000E+00  0.00000000000E+00  0.61754192090E+02  0.61754192090E+02  0.00000000000E+00 0.  1.
          2   -1    0    0  502    0  0.00000000000E+00 -0.00000000000E+00 -0.91944940053E+03  0.91944940053E+03  0.00000000000E+00 0. -1.
         23    2    1    2    0    0 -0.13899589323E+02 -0.62311192957E+02 -0.21628513329E+02  0.11304963157E+03  0.90755403472E+02 0.  0.
         23    2    1    2    0    0  0.75821585569E+02  0.10436203831E+02 -0.24312070197E+03  0.26973078394E+03  0.88256404242E+02 0.  0.
        -11    1    3    3    0    0 -0.38410785034E+02 -0.73481386701E+02 -0.93297207677E+01  0.83438278314E+02  0.00000000000E+00 0.  1.
         11    1    3    3    0    0  0.24511195711E+02  0.11170193744E+02 -0.12298792561E+02  0.29611353261E+02  0.00000000000E+00 0. -1.
        -11    1    4    4    0    0  0.31861120130E+02 -0.29773336549E+02 -0.44241734276E+02  0.62120154514E+02  0.00000000000E+00 0. -1.
         11    1    4    4    0    0  0.43960465439E+02  0.40209540380E+02 -0.19887896770E+03  0.20761062943E+03  0.00000000000E+00 0.  1.
         21    1    1    2  502  501 -0.61921996246E+02  0.51874989125E+02 -0.59294599314E+03  0.59842317710E+03  0.00000000000E+00 0. -1.
<scales pt_clust_5="13000.00000" pt_clust_6="13000.00000" pt_clust_7="13000.00000" pt_clust_8="13000.00000" pt_clust_9="80.77963"></scales>
<clustering>
<clus scale="   80.780">  2  9  1 -1</clus>
<clus scale="   88.256">  7  8 -1 -1</clus>
<clus scale="   90.755">  5  6 -1 -1</clus>
<clus scale="  105.645">  2  7  1 -1</clus>
<clus scale="   80.780">  2  5  1 -1</clus>
</clustering>
</event>
<event>
 9    1  0.2423659E-006  0.2089929E+03  0.7546771E-02  0.1178052E+00
         -4   -1    0    0    0  501 -0.00000000000E+00  0.00000000000E+00  0.17451710193E+03  0.17451710193E+03  0.00000000000E+00 0.  1.
          4   -1    0    0  502    0  0.00000000000E+00 -0.00000000000E+00 -0.37310476461E+03  0.37310476461E+03  0.00000000000E+00 0. -1.
         23    2    1    2    0    0  0.56975216053E+02 -0.18987284943E+03 -0.13491642715E+03  0.25724090833E+03  0.93126625663E+02 0.  0.
         23    2    1    2    0    0  0.25557617648E+00  0.17291898021E+02 -0.58966825704E+02  0.10849725954E+03  0.89417524781E+02 0.  0.
        -11    1    4    4    0    0 -0.16206347617E+02  0.43995551329E+02 -0.64535271231E+01  0.47327605603E+02  0.00000000000E+00 0.  1.
         11    1    4    4    0    0  0.16461923793E+02 -0.26703653308E+02 -0.52513298581E+02  0.61169653938E+02  0.00000000000E+00 0. -1.
        -11    1    3    3    0    0  0.24172549015E+02 -0.31593006037E+00 -0.38938620385E+01  0.24486202222E+02  0.00000000000E+00 0.  1.
         11    1    3    3    0    0  0.32802667037E+02 -0.18955691937E+03 -0.13102256511E+03  0.23275470611E+03  0.00000000000E+00 0. -1.
         21    1    1    2  502  501 -0.57230792229E+02  0.17258095141E+03 -0.47044098168E+01  0.18188369867E+03  0.00000000000E+00 0.  1.
<scales pt_clust_5="13000.00000" pt_clust_6="13000.00000" pt_clust_7="13000.00000" pt_clust_8="13000.00000" pt_clust_9="187.09745"></scales>
<clustering>
<clus scale="   89.418">  5  6 -1 -1</clus>
<clus scale="   91.075">  2  5  1 -1</clus>
<clus scale="   93.127">  7  8 -1 -1</clus>
<clus scale="  187.097">  1  9  2 -1</clus>
<clus scale="   91.075">  2  5  1 -1</clus>
</clustering>
</event>
<event>
 9    1  0.2423659E-006  0.9230057E+02  0.7546771E-02  0.1297567E+00
         -1   -1    0    0    0  501 -0.00000000000E+00  0.00000000000E+00  0.89934048118E+02  0.89934048118E+02  0.00000000000E+00 0.  1.
          1   -1    0    0  502    0  0.00000000000E+00 -0.00000000000E+00 -0.31948212662E+03  0.31948212662E+03  0.00000000000E+00 0. -1.
         23    2    1    2    0    0  0.36818488318E+02  0.94036101445E+01 -0.12428663136E+03  0.15904986901E+03  0.91682414517E+02 0.  0.
         23    2    1    2    0    0  0.10843131924E+02 -0.25486807558E+01 -0.15555484869E+03  0.18073839220E+03  0.91350895906E+02 0.  0.
        -13    1    3    3    0    0 -0.26836232763E+02  0.17332963454E+02 -0.23814666232E+02  0.39846622677E+02  0.00000000000E+00 0.  1.
         13    1    3    3    0    0  0.63654721081E+02 -0.79293533095E+01 -0.10047196513E+03  0.11920324634E+03  0.00000000000E+00 0. -1.
        -13    1    4    4    0    0  0.42483387609E+02  0.17469608158E+02 -0.12237078615E+03  0.13070820454E+03  0.00000000000E+00 0.  1.
         13    1    4    4    0    0 -0.31640255686E+02 -0.20018288914E+02 -0.33184062537E+02  0.50030187660E+02  0.00000000000E+00 0. -1.
         21    1    1    2  502  501 -0.47661620242E+02 -0.68549293887E+01  0.50293401552E+02  0.69627913517E+02  0.00000000000E+00 0.  1.
<scales pt_clust_5="13000.00000" pt_clust_6="13000.00000" pt_clust_7="13000.00000" pt_clust_8="13000.00000" pt_clust_9="48.15205"></scales>
<clustering>
<clus scale="   48.152">  1  9  2 -1</clus>
<clus scale="   91.351">  7  8 -1 -1</clus>
<clus scale="   91.682">  5  6 -1 -1</clus>
<clus scale="   91.971">  2  7  1 -1</clus>
<clus scale="   91.971">  2  5  1 -1</clus>
</clustering>
</event>
<event>
 9    1  0.2423659E-006  0.1053713E+03  0.7546771E-02  0.1271015E+00
          1   -1    0    0  502    0  0.00000000000E+00  0.00000000000E+00  0.38823223913E+03  0.38823223913E+03  0.00000000000E+00 0. -1.
         -1   -1    0    0    0  501 -0.00000000000E+00 -0.00000000000E+00 -0.65283495930E+02  0.65283495930E+02  0.00000000000E+00 0.  1.
         23    2    1    2    0    0  0.22883233794E+02 -0.41289607489E+02  0.25403897291E+01  0.10118212941E+03  0.89458904847E+02 0.  0.
         23    2    1    2    0    0  0.72428008639E+01  0.50694494886E+02  0.28845991649E+03  0.30742556075E+03  0.93160946787E+02 0.  0.
        -11    1    4    4    0    0  0.36840308799E+02 -0.58908607657E+01  0.64224635914E+02  0.74274588193E+02  0.00000000000E+00 0. -1.
         11    1    4    4    0    0 -0.29597507935E+02  0.56585355651E+02  0.22423528057E+03  0.23315097256E+03  0.00000000000E+00 0.  1.
        -13    1    3    3    0    0  0.49467430328E+02 -0.33874029806E+01 -0.14800758026E+02  0.51745179489E+02  0.00000000000E+00 0. -1.
         13    1    3    3    0    0 -0.26584196534E+02 -0.37902204509E+02  0.17341147755E+02  0.49436949921E+02  0.00000000000E+00 0.  1.
         21    1    1    2  502  501 -0.30126034657E+02 -0.94048873964E+01  0.31948436984E+02  0.44908044901E+02  0.00000000000E+00 0.  1.
<scales pt_clust_5="13000.00000" pt_clust_6="13000.00000" pt_clust_7="13000.00000" pt_clust_8="13000.00000" pt_clust_9="31.55994"></scales>
<clustering>
<clus scale="   31.560">  2  9  1 -1</clus>
<clus scale="   89.459">  7  8 -1 -1</clus>
<clus scale="   93.161">  5  6 -1 -1</clus>
<clus scale="  102.113">  2  7  1 -1</clus>
<clus scale="  105.371">  1  5  2 -1</clus>
</clustering>
</event>
<event>
 9    1  0.2423659E-006  0.1068926E+03  0.7546771E-02  0.1266944E+00
         -1   -1    0    0    0  501 -0.00000000000E+00  0.00000000000E+00  0.59209607333E+03  0.59209607333E+03  0.00000000000E+00 0.  1.
          1   -1    0    0  502    0  0.00000000000E+00 -0.00000000000E+00 -0.80424973214E+02  0.80424973214E+02  0.00000000000E+00 0. -1.
         23    2    1    2    0    0 -0.59112854229E+02  0.44606621378E+02  0.40924918971E+03  0.42590847265E+03  0.91809844734E+02 0.  0.
         23    2    1    2    0    0  0.49678294624E+02 -0.18984928490E+02 -0.31715980293E+02  0.10972409453E+03  0.90582079068E+02 0.  0.
        -11    1    3    3    0    0 -0.36706264059E+02  0.72743568532E+02  0.30140544236E+03  0.31222462630E+03  0.00000000000E+00 0.  1.
         11    1    3    3    0    0 -0.22406590170E+02 -0.28136947154E+02  0.10784374735E+03  0.11368384635E+03  0.00000000000E+00 0. -1.
        -11    1    4    4    0    0  0.25338360847E+02  0.15587893173E+02  0.25085269871E+02  0.38913824131E+02  0.00000000000E+00 0.  1.
         11    1    4    4    0    0  0.24339933776E+02 -0.34572821663E+02 -0.56801250164E+02  0.70810270400E+02  0.00000000000E+00 0. -1.
         21    1    1    2  502  501  0.94345596056E+01 -0.25621692888E+02  0.13413789070E+03  0.13688847937E+03  0.00000000000E+00 0.  1.
<scales pt_clust_5="13000.00000" pt_clust_6="13000.00000" pt_clust_7="13000.00000" pt_clust_8="13000.00000" pt_clust_9="27.30352"></scales>
<clustering>
<clus scale="   27.304">  1  9  2 -1</clus>
<clus scale="   90.582">  7  8 -1 -1</clus>
<clus scale="   91.810">  5  6 -1 -1</clus>
<clus scale="  105.840">  2  7  1 -1</clus>
<clus scale="  105.840">  2  5  1 -1</clus>
</clustering>
</event>
<event>
 9    1  0.2423659E-006  0.1359428E+03  0.7546771E-02  0.1219458E+00
          2   -1    0    0  502    0  0.00000000000E+00  0.00000000000E+00  0.19278782274E+03  0.19278782274E+03  0.00000000000E+00 0. -1.
         -2   -1    0    0    0  501 -0.00000000000E+00 -0.00000000000E+00 -0.21718226134E+03  0.21718226134E+03  0.00000000000E+00 0.  1.
         23    2    1    2    0    0  0.10642971172E+03  0.34850892814E+02 -0.11853194548E+03  0.18626930148E+03  0.90025342585E+02 0.  0.
         23    2    1    2    0    0 -0.63770442558E+02  0.24779742911E+02  0.96860404246E+02  0.15033157834E+03  0.92395565554E+02 0.  0.
        -11    1    3    3    0    0  0.62599868181E+02  0.64411715257E+02 -0.63791113289E+02  0.11016768443E+03  0.00000000000E+00 0.  1.
         11    1    3    3    0    0  0.43829843541E+02 -0.29560822444E+02 -0.54740832186E+02  0.76101617044E+02  0.00000000000E+00 0. -1.
        -13    1    4    4    0    0  0.16373344033E+01  0.31703764487E+02  0.74298092933E+02  0.80796139512E+02  0.00000000000E+00 0. -1.
         13    1    4    4    0    0 -0.65407776961E+02 -0.69240215766E+01  0.22562311313E+02  0.69535438832E+02  0.00000000000E+00 0.  1.
         21    1    1    2  502  501 -0.42659269164E+02 -0.59630635724E+02 -0.27228973744E+01  0.73369204252E+02  0.00000000000E+00 0.  1.
<scales pt_clust_5="13000.00000" pt_clust_6="13000.00000" pt_clust_7="13000.00000" pt_clust_8="13000.00000" pt_clust_9="73.31866"></scales>
<clustering>
<clus scale="   73.319">  1  9  2 -1</clus>
<clus scale="   90.025">  5  6 -1 -1</clus>
<clus scale="   92.396">  7  8 -1 -1</clus>
<clus scale="  134.343">  2  5  1 -1</clus>
<clus scale="   73.319">  1  5  2 -1</clus>
</clustering>
</event>
<event>
 9    1  0.2423659E-006  0.1673799E+03  0.7546771E-02  0.1207464E+00
          1   -1    0    0  502    0  0.00000000000E+00  0.00000000000E+00  0.82942544695E+03  0.82942544695E+03  0.00000000000E+00 0. -1.
         -1   -1    0    0    0  501 -0.00000000000E+00 -0.00000000000E+00 -0.61782450256E+02  0.61782450256E+02  0.00000000000E+00 0.  1.
         23    2    1    2    0    0 -0.18854690863E+02  0.19112722302E+01  0.59700030570E+02  0.11038255188E+03  0.90890383317E+02 0.  0.
         23    2    1    2    0    0 -0.72621520722E+02 -0.11173028373E+03  0.22469147951E+03  0.27688079293E+03  0.91756040434E+02 0.  0.
        -11    1    3    3    0    0 -0.15381654511E+02  0.46056552641E+02  0.31862937996E+02  0.58077948952E+02  0.00000000000E+00 0.  1.
         11    1    3    3    0    0 -0.34730363515E+01 -0.44145280411E+02  0.27837092574E+02  0.52304602924E+02  0.00000000000E+00 0. -1.
        -13    1    4    4    0    0 -0.43475190803E+02  0.78450180380E-01  0.86003093109E+02  0.96367164501E+02  0.00000000000E+00 0.  1.
         13    1    4    4    0    0 -0.29146329919E+02 -0.11180873391E+03  0.13868838640E+03  0.18051362843E+03  0.00000000000E+00 0. -1.
         21    1    1    2  502  501  0.91476211585E+02  0.10981901150E+03  0.48325148661E+03  0.50394455239E+03  0.00000000000E+00 0.  1.
<scales pt_clust_5="13000.00000" pt_clust_6="13000.00000" pt_clust_7="13000.00000" pt_clust_8="13000.00000" pt_clust_9="139.98876"></scales>
<clustering>
<clus scale="   90.890">  5  6 -1 -1</clus>
<clus scale="   91.756">  7  8 -1 -1</clus>
<clus scale="   92.845">  2  5  1 -1</clus>
<clus scale="  139.989">  1  9  2 -1</clus>
<clus scale="  139.989">  1  5  2 -1</clus>
</clustering>
</event>
<event>
 9    1  0.2423659E-006  0.1128199E+03  0.7546771E-02  0.1256120E+00
         -1   -1    0    0    0  501 -0.00000000000E+00  0.00000000000E+00  0.11363360207E+03  0.11363360207E+03  0.00000000000E+00 0.  1.
          1   -1    0    0  502    0  0.00000000000E+00 -0.00000000000E+00 -0.14283651181E+03  0.14283651181E+03  0.00000000000E+00 0. -1.
         23    2    1    2    0    0 -0.71914829658E+02 -0.28486951025E+02 -0.22203833195E+02  0.12048567101E+03  0.89669044862E+02 0.  0.
         23    2    1    2    0    0  0.44539839987E+02  0.33734674057E+02 -0.11045216722E+02  0.10781886269E+03  0.91548264641E+02 0.  0.
        -13    1    3    3    0    0 -0.80090491282E+02 -0.72632637483E+01  0.10022978523E+02  0.81041359148E+02  0.00000000000E+00 0.  1.
         13    1    3    3    0    0  0.81756616247E+01 -0.21223687277E+02 -0.32226811718E+02  0.39444311861E+02  0.00000000000E+00 0. -1.
        -13    1    4    4    0    0 -0.21040846255E+02  0.24118200207E+02 -0.24348393477E+02  0.40215035214E+02  0.00000000000E+00 0.  1.
         13    1    4    4    0    0  0.65580686241E+02  0.96164738491E+01  0.13303176755E+02  0.67603827473E+02  0.00000000000E+00 0. -1.
         21    1    1    2  502  501  0.27374989671E+02 -0.52477230316E+01  0.40461401800E+01  0.28165580180E+02  0.00000000000E+00 0. -1.
<scales pt_clust_5="13000.00000" pt_clust_6="13000.00000" pt_clust_7="13000.00000" pt_clust_8="13000.00000" pt_clust_9="27.87344"></scales>
<clustering>
<clus scale="   27.873">  1  9  2 -1</clus>
<clus scale="   89.669">  5  6 -1 -1</clus>
<clus scale="   91.548">  7  8 -1 -1</clus>
<clus scale="  111.300">  1  5  2 -1</clus>
<clus scale="  112.820">  2  5  1 -1</clus>
</clustering>
</event>
<event>
 9    1  0.2423659E-006  0.9646363E+02  0.7546771E-02  0.1289407E+00
         -1   -1    0    0    0  501 -0.00000000000E+00  0.00000000000E+00  0.13178123128E+03  0.13178123128E+03  0.00000000000E+00 0.  1.
          1   -1    0    0  502    0  0.00000000000E+00 -0.00000000000E+00 -0.25306916657E+03  0.25306916657E+03  0.00000000000E+00 0. -1.
         23    2    1    2    0    0 -0.51255069372E+02 -0.16775436778E+02  0.15198324157E+02  0.10323840900E+03  0.86710337453E+02 0.  0.
         23    2    1    2    0    0  0.63818103237E+01 -0.59684768322E+02  0.12174228181E+02  0.10852324592E+03  0.89588414435E+02 0.  0.
        -11    1    4    4    0    0 -0.21903596953E+02 -0.27799398111E+01 -0.26220052924E+02  0.34278080462E+02  0.00000000000E+00 0. -1.
         11    1    4    4    0    0  0.28285407277E+02 -0.56904828511E+02  0.38394281104E+02  0.74245165460E+02  0.00000000000E+00 0.  1.
        -11    1    3    3    0    0 -0.16544210572E+02 -0.48227484981E+02 -0.68917152109E+01  0.51449946060E+02  0.00000000000E+00 0.  1.
         11    1    3    3    0    0 -0.34710858801E+02  0.31452048203E+02  0.22090039368E+02  0.51788462944E+02  0.00000000000E+00 0. -1.
         21    1    1    2  502  501  0.44873259048E+02  0.76460205100E+02 -0.14866048763E+03  0.17308874291E+03  0.00000000000E+00 0. -1.
<scales pt_clust_5="13000.00000" pt_clust_6="13000.00000" pt_clust_7="13000.00000" pt_clust_8="13000.00000" pt_clust_9="88.65536"></scales>
<clustering>
<clus scale="   86.710">  7  8 -1 -1</clus>
<clus scale="   88.655">  2  9  1 -1</clus>
<clus scale="   89.588">  5  6 -1 -1</clus>
<clus scale="   93.797">  1  7  2 -1</clus>
<clus scale="   88.655">  2  5  1 -1</clus>
</clustering>
</event>
<event>
 9    1  0.2423659E-006  0.9765914E+02  0.7546771E-02  0.1287781E+00
         -3   -1    0    0    0  501 -0.00000000000E+00  0.00000000000E+00  0.57193705645E+02  0.57193705645E+02  0.00000000000E+00 0.  1.
          3   -1    0    0  502    0  0.00000000000E+00 -0.00000000000E+00 -0.30433535528E+03  0.30433535528E+03  0.00000000000E+00 0. -1.
         23    2    1    2    0    0  0.74764887477E+01  0.29290398184E+02 -0.12703315866E+02  0.97268602480E+02  0.91575004694E+02 0.  0.
         23    2    1    2    0    0 -0.24770680364E+02 -0.42704646264E+02 -0.19796332010E+03  0.22172273709E+03  0.86799899900E+02 0.  0.
        -11    1    4    4    0    0  0.44710334826E+01 -0.44357197318E+02 -0.18391152408E+03  0.18923794488E+03  0.00000000000E+00 0. -1.
         11    1    4    4    0    0 -0.29241713846E+02  0.16525510536E+01 -0.14051796016E+02  0.32484792210E+02  0.00000000000E+00 0.  1.
        -13    1    3    3    0    0 -0.18118358999E+01  0.58587599867E+02  0.94632508267E+01  0.59374596620E+02  0.00000000000E+00 0.  1.
         13    1    3    3    0    0  0.92883246476E+01 -0.29297201683E+02 -0.22166566692E+02  0.37894005860E+02  0.00000000000E+00 0. -1.
         21    1    1    2  502  501  0.17294191616E+02  0.13414248080E+02 -0.36475013673E+02  0.42537721350E+02  0.00000000000E+00 0.  1.
<scales pt_clust_5="13000.00000" pt_clust_6="13000.00000" pt_clust_7="13000.00000" pt_clust_8="13000.00000" pt_clust_9="21.88678"></scales>
<clustering>
<clus scale="   21.887">  2  9  1 -1</clus>
<clus scale="   86.800">  5  6 -1 -1</clus>
<clus scale="   91.575">  7  8 -1 -1</clus>
<clus scale="   93.196">  2  5  1 -1</clus>
<clus scale="   21.887">  2  5  1 -1</clus>
</clustering>
</event>
<event>
 9    1  0.2423659E-006  0.1036484E+03  0.7546771E-02  0.1273398E+00
         -1   -1    0    0    0  501 -0.00000000000E+00  0.00000000000E+00  0.27939458561E+03  0.27939458561E+03  0.00000000000E+00 0.  1.
          1   -1    0    0  502    0  0.00000000000E+00 -0.00000000000E+00 -0.15344858090E+03  0.15344858090E+03  0.00000000000E+00 0. -1.
         23    2    1    2    0    0  0.11676292378E+02  0.62213174486E+02  0.19265607817E+03  0.22184313381E+03  0.89951079361E+02 0.  0.
         23    2    1    2    0    0 -0.41222670047E+02  0.53777590066E+01  0.14431600820E+02  0.10133921914E+03  0.91286019829E+02 0.  0.
        -13    1    4    4    0    0  0.18747978459E+02  0.27987518825E+02 -0.56896902362E+01  0.34163730494E+02  0.00000000000E+00 0.  1.
         13    1    4    4    0    0 -0.59970648507E+02 -0.22609759818E+02  0.20121291056E+02  0.67175488648E+02  0.00000000000E+00 0. -1.
        -13    1    3    3    0    0 -0.11533467826E+02  0.62553664219E+02  0.18759504845E+03  0.19808554715E+03  0.00000000000E+00 0.  1.
         13    1    3    3    0    0  0.23209760204E+02 -0.34048973297E+00  0.50610297240E+01  0.23757586659E+02  0.00000000000E+00 0. -1.
         21    1    1    2  502  501  0.29546377669E+02 -0.67590933492E+02 -0.81141674283E+02  0.10966081355E+03  0.00000000000E+00 0. -1.
<scales pt_clust_5="13000.00000" pt_clust_6="13000.00000" pt_clust_7="13000.00000" pt_clust_8="13000.00000" pt_clust_9="73.76668"></scales>
<clustering>
<clus scale="   73.767">  2  9  1 -1</clus>
<clus scale="   89.951">  7  8 -1 -1</clus>
<clus scale="   91.286">  5  6 -1 -1</clus>
<clus scale="  102.475">  1  7  2 -1</clus>
<clus scale="   73.767">  2  5  1 -1</clus>
</clustering>
</event>
<event>
 9    1  0.2423659E-006  0.1184176E+03  0.7546771E-02  0.1246488E+00
          4   -1    0    0  502    0  0.00000000000E+00  0.00000000000E+00  0.92950172944E+02  0.92950172944E+02  0.00000000000E+00 0. -1.
         -4   -1    0    0    0  501 -0.00000000000E+00 -0.00000000000E+00 -0.26222106492E+03  0.26222106492E+03  0.00000000000E+00 0.  1.
         23    2    1    2    0    0 -0.16353882427E+02 -0.72540559993E+02 -0.14586919745E+03  0.18630128409E+03  0.88886238396E+02 0.  0.
         23    2    1    2    0    0  0.37238996302E+02  0.66905233742E+02  0.19632453020E+02  0.12070479272E+03  0.91220395894E+02 0.  0.
        -11    1    3    3    0    0  0.11687131591E+02 -0.57847517022E+02 -0.14277697798E+03  0.15449333225E+03  0.00000000000E+00 0.  1.
         11    1    3    3    0    0 -0.28041014017E+02 -0.14693042972E+02 -0.30922194677E+01  0.31807951838E+02  0.00000000000E+00 0. -1.
        -11    1    4    4    0    0  0.48983115937E+02  0.41185275650E+02  0.48499117558E+02  0.80297801846E+02  0.00000000000E+00 0. -1.
         11    1    4    4    0    0 -0.11744119635E+02  0.25719958092E+02 -0.28866664538E+02  0.40406990878E+02  0.00000000000E+00 0.  1.
         21    1    1    2  502  501 -0.20885113876E+02  0.56353262512E+01 -0.43034147553E+02  0.48165161052E+02  0.00000000000E+00 0.  1.
<scales pt_clust_5="13000.00000" pt_clust_6="13000.00000" pt_clust_7="13000.00000" pt_clust_8="13000.00000" pt_clust_9="21.63203"></scales>
<clustering>
<clus scale="   21.632">  2  9  1 -1</clus>
<clus scale="   88.886">  5  6 -1 -1</clus>
<clus scale="   91.220">  7  8 -1 -1</clus>
<clus scale="  116.629">  2  5  1 -1</clus>
<clus scale="  118.418">  1  5  2 -1</clus>
</clustering>
</event>
<event>
 9    1  0.2423659E-006  0.1233123E+03  0.7546771E-02  0.1238155E+00
          1   -1    0    0  502    0  0.00000000000E+00  0.00000000000E+00  0.36169676425E+03  0.36169676425E+03  0.00000000000E+00 0. -1.
         -1   -1    0    0    0  501 -0.00000000000E+00 -0.00000000000E+00 -0.68832583663E+02  0.68832583663E+02  0.00000000000E+00 0.  1.
         23    2    1    2    0    0  0.43240452029E+02  0.24415130017E+02  0.61820266108E+02  0.12208624565E+03  0.92830333463E+02 0.  0.
         23    2    1    2    0    0 -0.77950990337E+02 -0.69540433331E+02  0.20042257742E+03  0.24379961262E+03  0.91415604870E+02 0.  0.
        -13    1    3    3    0    0  0.24117174732E+02 -0.95200314362E+01  0.76257105639E+02  0.80544492525E+02  0.00000000000E+00 0. -1.
         13    1    3    3    0    0  0.19123277298E+02  0.33935161453E+02 -0.14436839531E+02  0.41541753130E+02  0.00000000000E+00 0.  1.
        -13    1    4    4    0    0 -0.96342023565E+02 -0.41002928018E+02  0.15623816241E+03  0.18807814600E+03  0.00000000000E+00 0. -1.
         13    1    4    4    0    0  0.18391033228E+02 -0.28537505313E+02  0.44184415008E+02  0.55721466620E+02  0.00000000000E+00 0.  1.
         21    1    1    2  502  501  0.34710538308E+02  0.45125303314E+02  0.30621337061E+02  0.64643489635E+02  0.00000000000E+00 0.  1.
<scales pt_clust_5="13000.00000" pt_clust_6="13000.00000" pt_clust_7="13000.00000" pt_clust_8="13000.00000" pt_clust_9="56.93079"></scales>
<clustering>
<clus scale="   56.931">  2  9  1 -1</clus>
<clus scale="   91.416">  7  8 -1 -1</clus>
<clus scale="   92.830">  5  6 -1 -1</clus>
<clus scale="  122.251">  1  7  2 -1</clus>
<clus scale="  122.251">  1  5  2 -1</clus>
</clustering>
</event>
<event>
 9    1  0.2423659E-006  0.1247990E+03  0.7546771E-02  0.1236737E+00
          1   -1    0    0  502    0  0.00000000000E+00  0.00000000000E+00  0.74122171630E+03  0.74122171630E+03  0.00000000000E+00 0. -1.
         -1   -1    0    0    0  501 -0.00000000000E+00 -0.00000000000E+00 -0.64625504000E+02  0.64625504000E+02  0.00000000000E+00 0.  1.
         23    2    1    2    0    0 -0.65289793671E+02  0.83587779160E+01  0.55322524926E+02  0.12707674760E+03  0.93569715676E+02 0.  0.
         23    2    1    2    0    0  0.12627680405E+03 -0.65997301282E+02  0.27310621615E+03  0.32063334417E+03  0.88978992333E+02 0.  0.
        -13    1    4    4    0    0  0.10186263912E+02 -0.34891302450E+02  0.22634385935E+02  0.42819135744E+02  0.00000000000E+00 0. -1.
         13    1    4    4    0    0  0.11609054014E+03 -0.31105998832E+02  0.25047183021E+03  0.27781420843E+03  0.00000000000E+00 0.  1.
        -13    1    3    3    0    0 -0.30801265639E+02 -0.27630716730E+02  0.64265118467E+02  0.76434154169E+02  0.00000000000E+00 0.  1.
         13    1    3    3    0    0 -0.34488528032E+02  0.35989494646E+02 -0.89425935403E+01  0.50642593436E+02  0.00000000000E+00 0. -1.
         21    1    1    2  502  501 -0.60987010378E+02  0.57638523366E+02  0.34816747122E+03  0.35813712852E+03  0.00000000000E+00 0. -1.
<scales pt_clust_5="13000.00000" pt_clust_6="13000.00000" pt_clust_7="13000.00000" pt_clust_8="13000.00000" pt_clust_9="83.91433"></scales>
<clustering>
<clus scale="   83.914">  1  9  2 -1</clus>
<clus scale="   88.979">  5  6 -1 -1</clus>
<clus scale="   93.570">  7  8 -1 -1</clus>
<clus scale="  121.395">  1  5  2 -1</clus>
<clus scale="   83.914">  1  5  2 -1</clus>
</clustering>
</event>
<event>
 9    1  0.2423659E-006  0.9500693E+02  0.7546771E-02  0.1293568E+00
          2   -1    0    0  502    0  0.00000000000E+00  0.00000000000E+00  0.40102161607E+03  0.40102161607E+03  0.00000000000E+00 0. -1.
         -2   -1    0    0    0  501 -0.00000000000E+00 -0.00000000000E+00 -0.73869470619E+02  0.73869470619E+02  0.00000000000E+00 0.  1.
         23    2    1    2    0    0  0.48705728531E+02 -0.72652390909E+02  0.11705609492E+03  0.16648797800E+03  0.79784080894E+02 0.  0.
         23    2    1    2    0    0  0.54625219426E+00 -0.36683596905E+01  0.19586412168E+03  0.21646202769E+03  0.92083114727E+02 0.  0.
        -13    1    3    3    0    0  0.67443603766E+02 -0.51871718197E+02  0.10711082641E+03  0.13679197334E+03  0.00000000000E+00 0. -1.
         13    1    3    3    0    0 -0.18737875235E+02 -0.20780672712E+02  0.99452685097E+01  0.29696004654E+02  0.00000000000E+00 0.  1.
        -13    1    4    4    0    0 -0.12918736955E+02  0.33862187673E+02  0.33775407334E+02  0.49541090612E+02  0.00000000000E+00 0.  1.
         13    1    4    4    0    0  0.13464989149E+02 -0.37530547363E+02  0.16208871434E+03  0.16692093708E+03  0.00000000000E+00 0. -1.
         21    1    1    2  502  501 -0.49251980726E+02  0.76320750599E+02  0.14231928864E+02  0.91941081007E+02  0.00000000000E+00 0.  1.
<scales pt_clust_5="13000.00000" pt_clust_6="13000.00000" pt_clust_7="13000.00000" pt_clust_8="13000.00000" pt_clust_9="90.83289"></scales>
<clustering>
<clus scale="   79.784">  5  6 -1 -1</clus>
<clus scale="   90.833">  2  9  1 -1</clus>
<clus scale="   90.833">  2  5  1 -1</clus>
<clus scale="   92.083">  7  8 -1 -1</clus>
<clus scale="   95.007">  1  5  2 -1</clus>
</clustering>
</event>
<event>
 9    1  0.2423659E-006  0.1259840E+03  0.7546771E-02  0.1249409E+00
          1   -1    0    0  502    0  0.00000000000E+00  0.00000000000E+00  0.38773727579E+03  0.38773727579E+03  0.00000000000E+00 0. -1.
         -1   -1    0    0    0  501 -0.00000000000E+00 -0.00000000000E+00 -0.12364037935E+03  0.12364037935E+03  0.00000000000E+00 0.  1.
         23    2    1    2    0    0 -0.12796628223E+02  0.12634522470E+02 -0.38793915020E+02  0.98696291895E+02  0.88952826484E+02 0.  0.
         23    2    1    2    0    0 -0.48011938501E+02 -0.47694172408E+02  0.49745457822E+02  0.14998490171E+03  0.12426173927E+03 0.  0.
        -13    1    4    4    0    0 -0.35419148419E+02 -0.76380910033E+02 -0.77070859482E+01  0.84545601104E+02  0.00000000000E+00 0.  1.
         13    1    4    4    0    0 -0.12592790082E+02  0.28686737625E+02  0.57452543770E+02  0.65439300602E+02  0.00000000000E+00 0. -1.
        -13    1    3    3    0    0 -0.43092115456E+02  0.26346018269E+02 -0.41446904421E+02  0.65336735296E+02  0.00000000000E+00 0. -1.
         13    1    3    3    0    0  0.30295487233E+02 -0.13711495799E+02  0.26529894016E+01  0.33359556599E+02  0.00000000000E+00 0.  1.
         21    1    1    2  502  501  0.60808566724E+02  0.35059649938E+02  0.25314535363E+03  0.26269646154E+03  0.00000000000E+00 0. -1.
<scales pt_clust_5="13000.00000" pt_clust_6="13000.00000" pt_clust_7="13000.00000" pt_clust_8="13000.00000" pt_clust_9="70.19160"></scales>
<clustering>
<clus scale="   70.192">  1  9  2 -1</clus>
<clus scale="   88.953">  7  8 -1 -1</clus>
<clus scale="   91.343">  2  7  1 -1</clus>
<clus scale="  124.262">  5  6 -1 -1</clus>
<clus scale="   70.192">  1  5  2 -1</clus>
</clustering>
</event>
<event>
 9    1  0.2423659E-006  0.1733245E+03  0.7546771E-02  0.1199341E+00
          1   -1    0    0  502    0  0.00000000000E+00  0.00000000000E+00  0.92126852889E+03  0.92126852889E+03  0.00000000000E+00 0. -1.
         -1   -1    0    0    0  501 -0.00000000000E+00 -0.00000000000E+00 -0.15276267671E+03  0.15276267671E+03  0.00000000000E+00 0.  1.
         23    2    1    2    0    0  0.11048407985E+02 -0.45370605565E+02 -0.10300153932E+03  0.14331417675E+03  0.88028841782E+02 0.  0.
         23    2    1    2    0    0  0.13894035675E+03 -0.15072786459E+02  0.41775331301E+03  0.44900882160E+03  0.86945268524E+02 0.  0.
        -11    1    4    4    0    0  0.33186784929E+01  0.22451531777E+02  0.41463802336E+02  0.47268719152E+02  0.00000000000E+00 0. -1.
         11    1    4    4    0    0  0.13562167825E+03 -0.37524318236E+02  0.37628951067E+03  0.40174010245E+03  0.00000000000E+00 0.  1.
        -13    1    3    3    0    0 -0.20882809668E+02 -0.58107632316E+02 -0.83305882194E+02  0.10369406290E+03  0.00000000000E+00 0.  1.
         13    1    3    3    0    0  0.31931217654E+02  0.12737026751E+02 -0.19695657127E+02  0.39620113843E+02  0.00000000000E+00 0. -1.
         21    1    1    2  502  501 -0.14998876473E+03  0.60443392024E+02  0.45375407850E+03  0.48170820726E+03  0.00000000000E+00 0. -1.
<scales pt_clust_5="13000.00000" pt_clust_6="13000.00000" pt_clust_7="13000.00000" pt_clust_8="13000.00000" pt_clust_9="149.93962"></scales>
<clustering>
<clus scale="   86.945">  5  6 -1 -1</clus>
<clus scale="   88.029">  7  8 -1 -1</clus>
<clus scale="   99.648">  2  7  1 -1</clus>
<clus scale="  149.940">  2  9  1 -1</clus>
<clus scale="  173.324">  1  5  2 -1</clus>
</clustering>
</event>
<event>
 9    1  0.2423659E-006  0.1081149E+03  0.7546771E-02  0.1264274E+00
          1   -1    0    0  502    0  0.00000000000E+00  0.00000000000E+00  0.16630958266E+03  0.16630958266E+03  0.00000000000E+00 0. -1.
         -1   -1    0    0    0  501 -0.00000000000E+00 -0.00000000000E+00 -0.36041991394E+03  0.36041991394E+03  0.00000000000E+00 0.  1.
         23    2    1    2    0    0  0.69513389558E+02 -0.61386968036E+02 -0.21508789126E+03  0.25134342277E+03  0.91160539871E+02 0.  0.
         23    2    1    2    0    0 -0.51768290285E+02  0.18375212719E+02  0.12321472654E+03  0.16305914978E+03  0.91590464407E+02 0.  0.
        -13    1    3    3    0    0  0.18292099685E+02  0.23202741336E+02 -0.34248079581E+02  0.45231615839E+02  0.00000000000E+00 0.  1.
         13    1    3    3    0    0  0.51221289873E+02 -0.84589709371E+02 -0.18083981168E+03  0.20611180693E+03  0.00000000000E+00 0. -1.
        -13    1    4    4    0    0 -0.75778268821E+02  0.24768965065E+02  0.78381466803E+02  0.11180117170E+03  0.00000000000E+00 0. -1.
         13    1    4    4    0    0  0.24009978536E+02 -0.63937523460E+01  0.44833259733E+02  0.51257978078E+02  0.00000000000E+00 0.  1.
         21    1    1    2  502  501 -0.17745099273E+02  0.43011755317E+02 -0.10223716655E+03  0.11232692406E+03  0.00000000000E+00 0.  1.
<scales pt_clust_5="13000.00000" pt_clust_6="13000.00000" pt_clust_7="13000.00000" pt_clust_8="13000.00000" pt_clust_9="46.52848"></scales>
<clustering>
<clus scale="   46.528">  2  9  1 -1</clus>
<clus scale="   91.161">  5  6 -1 -1</clus>
<clus scale="   91.590">  7  8 -1 -1</clus>
<clus scale="  107.751">  2  5  1 -1</clus>
<clus scale="  108.115">  1  5  2 -1</clus>
</clustering>
</event>
<event>
 9    1  0.2423659E-006  0.3015042E+03  0.7546771E-02  0.1115170E+00
         -1   -1    0    0    0  501 -0.00000000000E+00  0.00000000000E+00  0.99886946554E+03  0.99886946554E+03  0.00000000000E+00 0.  1.
          1   -1    0    0  502    0  0.00000000000E+00 -0.00000000000E+00 -0.13730256020E+03  0.13730256020E+03  0.00000000000E+00 0. -1.
         23    2    1    2    0    0  0.66778984873E+02 -0.70323424547E+02  0.22873306152E+03  0.26608935134E+03  0.95288575402E+02 0.  0.
         23    2    1    2    0    0 -0.11370276168E+02  0.32236717135E+03  0.30644752844E+03  0.45400070872E+03  0.90314337089E+02 0.  0.
        -11    1    3    3    0    0 -0.14421667589E+02 -0.32984864935E+02  0.25629201918E+02  0.44190969686E+02  0.00000000000E+00 0.  1.
         11    1    3    3    0    0  0.81200652462E+02 -0.37338559612E+02  0.20310385960E+03  0.22189838165E+03  0.00000000000E+00 0. -1.
        -11    1    4    4    0    0 -0.42987815034E+02  0.20059223926E+03  0.22311420832E+03  0.30309264037E+03  0.00000000000E+00 0. -1.
         11    1    4    4    0    0  0.31617538866E+02  0.12177493210E+03  0.83333320122E+02  0.15090806835E+03  0.00000000000E+00 0.  1.
         21    1    1    2  502  501 -0.55408708705E+02 -0.25204374680E+03  0.32638631537E+03  0.41608196568E+03  0.00000000000E+00 0.  1.
<scales pt_clust_5="13000.00000" pt_clust_6="13000.00000" pt_clust_7="13000.00000" pt_clust_8="13000.00000" pt_clust_9="287.65973"></scales>
<clustering>
<clus scale="   90.314">  7  8 -1 -1</clus>
<clus scale="   95.289">  5  6 -1 -1</clus>
<clus scale="  135.959">  1  5  2 -1</clus>
<clus scale="  287.660">  1  9  2 -1</clus>
<clus scale="  301.504">  2  5  1 -1</clus>
</clustering>
</event>
<event>
 9    1  0.2423659E-006  0.1211894E+03  0.7546771E-02  0.1242085E+00
          3   -1    0    0  502    0  0.00000000000E+00  0.00000000000E+00  0.29324138960E+02  0.29324138960E+02  0.00000000000E+00 0. -1.
         -3   -1    0    0    0  501 -0.00000000000E+00 -0.00000000000E+00 -0.82858713670E+03  0.82858713670E+03  0.00000000000E+00 0.  1.
         23    2    1    2    0    0  0.38594386193E+02  0.49128449587E+02 -0.36665783710E+03  0.38352725272E+03  0.93552407057E+02 0.  0.
         23    2    1    2    0    0 -0.28203008651E+02 -0.97017271110E+02 -0.37477576461E+03  0.39858455725E+03  0.90581537557E+02 0.  0.
        -11    1    3    3    0    0 -0.31191552925E+02  0.12213024767E+02 -0.11450513490E+03  0.11930421982E+03  0.00000000000E+00 0. -1.
         11    1    3    3    0    0  0.69785939118E+02  0.36915424820E+02 -0.25215270220E+03  0.26422303290E+03  0.00000000000E+00 0.  1.
        -11    1    4    4    0    0 -0.21602307560E+02 -0.60322808408E+02 -0.34491844948E+03  0.35081938045E+03  0.00000000000E+00 0.  1.
         11    1    4    4    0    0 -0.66007010908E+01 -0.36694462702E+02 -0.29857315131E+02  0.47765176800E+02  0.00000000000E+00 0. -1.
         21    1    1    2  502  501 -0.10391377542E+02  0.47888821523E+02 -0.57829396019E+02  0.75799465684E+02  0.00000000000E+00 0.  1.
<scales pt_clust_5="13000.00000" pt_clust_6="13000.00000" pt_clust_7="13000.00000" pt_clust_8="13000.00000" pt_clust_9="49.00326"></scales>
<clustering>
<clus scale="   49.003">  1  9  2 -1</clus>
<clus scale="   90.582">  7  8 -1 -1</clus>
<clus scale="   93.552">  5  6 -1 -1</clus>
<clus scale="  118.911">  1  7  2 -1</clus>
<clus scale="   49.003">  1  5  2 -1</clus>
</clustering>
</event>
<event>
 9    1  0.2423659E-006  0.1842503E+03  0.7546771E-02  0.1164943E+00
          2   -1    0    0  502    0  0.00000000000E+00  0.00000000000E+00  0.31717990011E+03  0.31717990011E+03  0.00000000000E+00 0. -1.
         -2   -1    0    0    0  501 -0.00000000000E+00 -0.00000000000E+00 -0.27058052993E+03  0.27058052993E+03  0.00000000000E+00 0.  1.
         23    2    1    2    0    0  0.10306028886E+03 -0.13345959001E+03 -0.82187343057E+02  0.21249467770E+03  0.99831575099E+02 0.  0.
         23    2    1    2    0    0  0.30784767632E+02  0.16645815431E+03  0.80450602824E+01  0.19201196342E+03  0.90265453227E+02 0.  0.
        -11    1    4    4    0    0 -0.16537242107E+02  0.45916042137E+02 -0.29693706259E+02  0.57126871903E+02  0.00000000000E+00 0.  1.
         11    1    4    4    0    0  0.47322009739E+02  0.12054211218E+03  0.37738766542E+02  0.13488509152E+03  0.00000000000E+00 0. -1.
        -13    1    3    3    0    0 -0.19205865100E+02 -0.28060318802E+02 -0.20369507525E+02  0.39637905877E+02  0.00000000000E+00 0.  1.
         13    1    3    3    0    0  0.12226615396E+03 -0.10539927121E+03 -0.61817835532E+02  0.17285677183E+03  0.00000000000E+00 0. -1.
         21    1    1    2  502  501 -0.13384505649E+03 -0.32998564299E+02  0.12074165295E+03  0.18325378891E+03  0.00000000000E+00 0.  1.
<scales pt_clust_5="13000.00000" pt_clust_6="13000.00000" pt_clust_7="13000.00000" pt_clust_8="13000.00000" pt_clust_9="137.85284"></scales>
<clustering>
<clus scale="   90.265">  5  6 -1 -1</clus>
<clus scale="   99.832">  7  8 -1 -1</clus>
<clus scale="  137.853">  1  9  2 -1</clus>
<clus scale="  179.248">  1  5  2 -1</clus>
<clus scale="  137.853">  1  5  2 -1</clus>
</clustering>
</event>
<event>
 9    1  0.2423659E-006  0.9778257E+02  0.7546771E-02  0.1288883E+00
          2   -1    0    0  502    0  0.00000000000E+00  0.00000000000E+00  0.67810397146E+02  0.67810397146E+02  0.00000000000E+00 0. -1.
         -2   -1    0    0    0  501 -0.00000000000E+00 -0.00000000000E+00 -0.61734808648E+03  0.61734808648E+03  0.00000000000E+00 0.  1.
         23    2    1    2    0    0  0.56180671016E+02 -0.16943398671E+02 -0.23030241071E+03  0.25588169977E+03  0.94830888136E+02 0.  0.
         23    2    1    2    0    0  0.59165814544E+01 -0.30780695405E+02  0.73050829616E+01  0.93475852254E+02  0.87760546784E+02 0.  0.
        -11    1    4    4    0    0  0.31538528116E+02  0.10403248804E+02 -0.19038299403E+02  0.38280062507E+02  0.00000000000E+00 0.  1.
         11    1    4    4    0    0 -0.25621946661E+02 -0.41183944209E+02  0.26343382365E+02  0.55195789747E+02  0.00000000000E+00 0. -1.
        -13    1    3    3    0    0 -0.13944321230E+02  0.22647261740E+02 -0.92775494306E+02  0.96512356217E+02  0.00000000000E+00 0.  1.
         13    1    3    3    0    0  0.70124992246E+02 -0.39590660411E+02 -0.13752691641E+03  0.15936934356E+03  0.00000000000E+00 0. -1.
         21    1    1    2  502  501 -0.62097252470E+02  0.47724094077E+02 -0.32654036158E+03  0.33580093160E+03  0.00000000000E+00 0.  1.
<scales pt_clust_5="13000.00000" pt_clust_6="13000.00000" pt_clust_7="13000.00000" pt_clust_8="13000.00000" pt_clust_9="78.31767"></scales>
<clustering>
<clus scale="   78.318">  2  9  1 -1</clus>
<clus scale="   87.761">  5  6 -1 -1</clus>
<clus scale="   90.942">  1  5  2 -1</clus>
<clus scale="   94.831">  7  8 -1 -1</clus>
<clus scale="   90.942">  1  5  2 -1</clus>
</clustering>
</event>
<event>
 9    1  0.2423659E-006  0.1020997E+03  0.7546771E-02  0.1276117E+00
         -1   -1    0    0    0  501 -0.00000000000E+00  0.00000000000E+00  0.32760600497E+03  0.32760600497E+03  0.00000000000E+00 0.  1.
          1   -1    0    0  502    0  0.00000000000E+00 -0.00000000000E+00 -0.11839761899E+03  0.11839761899E+03  0.00000000000E+00 0. -1.
         23    2    1    2    0    0 -0.76270424290E+02  0.63616117226E+02  0.10758490218E+03  0.17275003729E+03  0.91672657946E+02 0.  0.
         23    2    1    2    0    0  0.58755549935E+01 -0.35723765340E+02 -0.45157440594E+02  0.10809287500E+03  0.91291651466E+02 0.  0.
        -11    1    4    4    0    0 -0.25370185472E+02 -0.55143595811E+02 -0.21701506885E+02  0.64462530751E+02  0.00000000000E+00 0. -1.
         11    1    4    4    0    0  0.31245740465E+02  0.19419830471E+02 -0.23455933709E+02  0.43630344244E+02  0.00000000000E+00 0.  1.
        -13    1    3    3    0    0 -0.30592987143E+02 -0.17929426036E+02  0.83530543115E+01  0.36430326606E+02  0.00000000000E+00 0. -1.
         13    1    3    3    0    0 -0.45677437147E+02  0.81545543261E+02  0.99231847865E+02  0.13631971068E+03  0.00000000000E+00 0.  1.
         21    1    1    2  502  501  0.70394869296E+02 -0.27892351886E+02  0.14678092439E+03  0.16516071168E+03  0.00000000000E+00 0.  1.
<scales pt_clust_5="13000.00000" pt_clust_6="13000.00000" pt_clust_7="13000.00000" pt_clust_8="13000.00000" pt_clust_9="75.71936"></scales>
<clustering>
<clus scale="   75.719">  1  9  2 -1</clus>
<clus scale="   91.292">  5  6 -1 -1</clus>
<clus scale="   91.673">  7  8 -1 -1</clus>
<clus scale="  101.758">  2  5  1 -1</clus>
<clus scale="  101.758">  2  5  1 -1</clus>
</clustering>
</event>
<event>
 9    1  0.2423659E-006  0.1062773E+03  0.7546771E-02  0.1268050E+00
         -2   -1    0    0    0  501 -0.00000000000E+00  0.00000000000E+00  0.29968884444E+03  0.29968884444E+03  0.00000000000E+00 0.  1.
          2   -1    0    0  502    0  0.00000000000E+00 -0.00000000000E+00 -0.15632019344E+03  0.15632019344E+03  0.00000000000E+00 0. -1.
         23    2    1    2    0    0  0.27688382536E+02  0.43089612469E+02  0.18870269427E+03  0.21568361041E+03  0.91034893012E+02 0.  0.
         23    2    1    2    0    0 -0.55396553053E+02 -0.37952828797E+02  0.62740915934E+02  0.12863690492E+03  0.90010196486E+02 0.  0.
        -11    1    3    3    0    0 -0.17663679185E+02 -0.20045089824E+02  0.47737357611E+02  0.54705269400E+02  0.00000000000E+00 0. -1.
         11    1    3    3    0    0  0.45352061721E+02  0.63134702293E+02  0.14096533666E+03  0.16097834101E+03  0.00000000000E+00 0.  1.
        -13    1    4    4    0    0 -0.73130739936E+02 -0.47842648493E+02  0.34725277263E+02  0.94036530239E+02  0.00000000000E+00 0. -1.
         13    1    4    4    0    0  0.17734186882E+02  0.98898196956E+01  0.28015638671E+02  0.34600374682E+02  0.00000000000E+00 0.  1.
         21    1    1    2  502  501  0.27708170517E+02 -0.51367836719E+01 -0.10807495921E+03  0.11168852254E+03  0.00000000000E+00 0. -1.
<scales pt_clust_5="13000.00000" pt_clust_6="13000.00000" pt_clust_7="13000.00000" pt_clust_8="13000.00000" pt_clust_9="28.18030"></scales>
<clustering>
<clus scale="   28.180">  2  9  1 -1</clus>
<clus scale="   90.010">  7  8 -1 -1</clus>
<clus scale="   91.035">  5  6 -1 -1</clus>
<clus scale="  105.401">  2  7  1 -1</clus>
<clus scale="   28.180">  2  5  1 -1</clus>
</clustering>
</event>
<event>
 9    1  0.2423659E-006  0.1837881E+03  0.7546771E-02  0.1164375E+00
          1   -1    0    0  502    0  0.00000000000E+00  0.00000000000E+00  0.29593378988E+03  0.29593378988E+03  0.00000000000E+00 0. -1.
         -1   -1    0    0    0  501 -0.00000000000E+00 -0.00000000000E+00 -0.21552199555E+03  0.21552199555E+03  0.00000000000E+00 0.  1.
         23    2    1    2    0    0 -0.10342960281E+03  0.17829111385E+03 -0.47256312296E+02  0.22934560718E+03  0.88774120472E+02 0.  0.
         23    2    1    2    0    0  0.95567316980E+02 -0.11271366764E+03  0.13121268651E+03  0.21596805069E+03  0.87108822005E+02 0.  0.
        -11    1    4    4    0    0  0.30530748025E+02 -0.31580434871E+02 -0.54303858105E+01  0.44259908853E+02  0.00000000000E+00 0.  1.
         11    1    4    4    0    0  0.65036568955E+02 -0.81133232767E+02  0.13664307232E+03  0.17170814184E+03  0.00000000000E+00 0. -1.
        -13    1    3    3    0    0  0.15690388294E+02  0.32574396243E+02 -0.95430270026E+01  0.37394504139E+02  0.00000000000E+00 0. -1.
         13    1    3    3    0    0 -0.11911999111E+03  0.14571671761E+03 -0.37713285293E+02  0.19195110304E+03  0.00000000000E+00 0.  1.
         21    1    1    2  502  501  0.78622858339E+01 -0.65577446214E+02 -0.35445798819E+01  0.66142127552E+02  0.00000000000E+00 0.  1.
<scales pt_clust_5="13000.00000" pt_clust_6="13000.00000" pt_clust_7="13000.00000" pt_clust_8="13000.00000" pt_clust_9="66.04708"></scales>
<clustering>
<clus scale="   66.047">  2  9  1 -1</clus>
<clus scale="   87.109">  5  6 -1 -1</clus>
<clus scale="   88.774">  7  8 -1 -1</clus>
<clus scale="  182.990">  1  5  2 -1</clus>
<clus scale="  182.990">  1  5  2 -1</clus>
</clustering>
</event>
<event>
 9    1  0.2423659E-006  0.1154539E+03  0.7546771E-02  0.1250954E+00
          1   -1    0    0  502    0  0.00000000000E+00  0.00000000000E+00  0.64662111155E+03  0.64662111155E+03  0.00000000000E+00 0. -1.
         -1   -1    0    0    0  501 -0.00000000000E+00 -0.00000000000E+00 -0.40998590864E+02  0.40998590864E+02  0.00000000000E+00 0.  1.
         23    2    1    2    0    0 -0.46893824081E+02  0.22283768240E+02  0.67506426320E+02  0.12396272672E+03  0.90077982642E+02 0.  0.
         23    2    1    2    0    0  0.64151972189E+02 -0.41463531117E+02  0.51675326552E+03  0.53015955137E+03  0.90556681354E+02 0.  0.
        -13    1    3    3    0    0  0.11471181204E+02 -0.22153006516E+02  0.10321983136E+01  0.24968162312E+02  0.00000000000E+00 0.  1.
         13    1    3    3    0    0 -0.58365005286E+02  0.44436774756E+02  0.66474228006E+02  0.98994564405E+02  0.00000000000E+00 0. -1.
        -13    1    4    4    0    0  0.79575072316E+01  0.27760250173E+02  0.14682093452E+03  0.14963402095E+03  0.00000000000E+00 0. -1.
         13    1    4    4    0    0  0.56194464957E+02 -0.69223781290E+02  0.36993233099E+03  0.38052553042E+03  0.00000000000E+00 0.  1.
         21    1    1    2  502  501 -0.17258148107E+02  0.19179762877E+02  0.21362828852E+02  0.33497424329E+02  0.00000000000E+00 0.  1.
<scales pt_clust_5="13000.00000" pt_clust_6="13000.00000" pt_clust_7="13000.00000" pt_clust_8="13000.00000" pt_clust_9="25.80130"></scales>
<clustering>
<clus scale="   25.801">  2  9  1 -1</clus>
<clus scale="   90.078">  5  6 -1 -1</clus>
<clus scale="   90.557">  7  8 -1 -1</clus>
<clus scale="  115.079">  2  5  1 -1</clus>
<clus scale="  115.454">  1  5  2 -1</clus>
</clustering>
</event>
<event>
 9    1  0.2423659E-006  0.9428592E+02  0.7546771E-02  0.1292989E+00
         -3   -1    0    0    0  501 -0.00000000000E+00  0.00000000000E+00  0.32466356827E+03  0.32466356827E+03  0.00000000000E+00 0.  1.
          3   -1    0    0  502    0  0.00000000000E+00 -0.00000000000E+00 -0.49875193445E+02  0.49875193445E+02  0.00000000000E+00 0. -1.
         23    2    1    2    0    0 -0.10640952052E+02 -0.27851747861E+02  0.13046714986E+03  0.16241558343E+03  0.92022795161E+02 0.  0.
         23    2    1    2    0    0  0.21456488981E+02 -0.46550258287E+01  0.41274458105E+02  0.10353081053E+03  0.92374226122E+02 0.  0.
        -13    1    3    3    0    0  0.40725953061E+02 -0.17275160372E+02  0.62290064648E+02  0.76400828349E+02  0.00000000000E+00 0.  1.
         13    1    3    3    0    0 -0.51366905113E+02 -0.10576587489E+02  0.68177085210E+02  0.86014755080E+02  0.00000000000E+00 0. -1.
        -13    1    4    4    0    0  0.56742231152E+02  0.32774315142E+01  0.14865494732E+02  0.58748662002E+02  0.00000000000E+00 0.  1.
         13    1    4    4    0    0 -0.35285742171E+02 -0.79324573429E+01  0.26408963373E+02  0.44782148525E+02  0.00000000000E+00 0. -1.
         21    1    1    2  502  501 -0.10815536929E+02  0.32506773689E+02  0.10304676686E+03  0.10859236776E+03  0.00000000000E+00 0.  1.
<scales pt_clust_5="13000.00000" pt_clust_6="13000.00000" pt_clust_7="13000.00000" pt_clust_8="13000.00000" pt_clust_9="34.25881"></scales>
<clustering>
<clus scale="   34.259">  1  9  2 -1</clus>
<clus scale="   92.023">  5  6 -1 -1</clus>
<clus scale="   92.374">  7  8 -1 -1</clus>
<clus scale="   93.942">  1  5  2 -1</clus>
<clus scale="   94.286">  2  5  1 -1</clus>
</clustering>
</event>
<event>
 9    1  0.2423659E-006  0.1716342E+03  0.7546771E-02  0.1186520E+00
         -2   -1    0    0    0  501 -0.00000000000E+00  0.00000000000E+00  0.25197170127E+03  0.25197170127E+03  0.00000000000E+00 0.  1.
          2   -1    0    0  502    0  0.00000000000E+00 -0.00000000000E+00 -0.46860352691E+03  0.46860352691E+03  0.00000000000E+00 0. -1.
         23    2    1    2    0    0  0.38831010925E+02  0.94919094381E+02  0.87483497984E+02  0.16173575686E+03  0.89373434190E+02 0.  0.
         23    2    1    2    0    0  0.10248662221E+03 -0.11151899992E+03 -0.36379951849E+03  0.40453965467E+03  0.91445325071E+02 0.  0.
        -11    1    3    3    0    0 -0.20274211457E+02  0.66825688804E+02  0.36626190540E+02  0.78855527186E+02  0.00000000000E+00 0.  1.
         11    1    3    3    0    0  0.59105222382E+02  0.28093405576E+02  0.50857307444E+02  0.82880229670E+02  0.00000000000E+00 0. -1.
        -11    1    4    4    0    0  0.89393168659E+02 -0.77678955799E+02 -0.34265554638E+03  0.36254376597E+03  0.00000000000E+00 0. -1.
         11    1    4    4    0    0  0.13093453553E+02 -0.33840044118E+02 -0.21143972109E+02  0.41995888708E+02  0.00000000000E+00 0.  1.
         21    1    1    2  502  501 -0.14131763314E+03  0.16599905536E+02  0.59684194869E+02  0.15429981664E+03  0.00000000000E+00 0.  1.
<scales pt_clust_5="13000.00000" pt_clust_6="13000.00000" pt_clust_7="13000.00000" pt_clust_8="13000.00000" pt_clust_9="145.24480"></scales>
<clustering>
<clus scale="   89.373">  5  6 -1 -1</clus>
<clus scale="   91.445">  7  8 -1 -1</clus>
<clus scale="  136.033">  1  5  2 -1</clus>
<clus scale="  145.245">  1  9  2 -1</clus>
<clus scale="  171.634">  2  5  1 -1</clus>
</clustering>
</event>
<event>
 9    1  0.2423659E-006  0.1716927E+03  0.7546771E-02  0.1190338E+00
         -2   -1    0    0    0  501 -0.00000000000E+00  0.00000000000E+00  0.75284982004E+02  0.75284982004E+02  0.00000000000E+00 0.  1.
          2   -1    0    0  502    0  0.00000000000E+00 -0.00000000000E+00 -0.94544140333E+03  0.94544140333E+03  0.00000000000E+00 0. -1.
         23    2    1    2    0    0  0.97007304161E+02 -0.54750071727E+02 -0.16998995622E+03  0.22272928541E+03  0.91124979838E+02 0.  0.
         23    2    1    2    0    0  0.83563468877E+02  0.17894188685E+02 -0.53867584822E+03  0.55295959354E+03  0.91047170803E+02 0.  0.
        -11    1    4    4    0    0 -0.78219551559E+01  0.21270285193E+02 -0.40051274443E+02  0.46018611443E+02  0.00000000000E+00 0.  1.
         11    1    4    4    0    0  0.91385424033E+02 -0.33760965084E+01 -0.49862457378E+03  0.50694098210E+03  0.00000000000E+00 0. -1.
        -13    1    3    3    0    0  0.61915819094E+02  0.78727208764E+01 -0.39693360904E+02  0.73966960786E+02  0.00000000000E+00 0. -1.
         13    1    3    3    0    0  0.35091485067E+02 -0.62622792603E+02 -0.13029659532E+03  0.14876232463E+03  0.00000000000E+00 0.  1.
         21    1    1    2  502  501 -0.18057077304E+03  0.36855883042E+02 -0.16149061688E+03  0.24503750638E+03  0.00000000000E+00 0.  1.
<scales pt_clust_5="13000.00000" pt_clust_6="13000.00000" pt_clust_7="13000.00000" pt_clust_8="13000.00000" pt_clust_9="145.51508"></scales>
<clustering>
<clus scale="   91.047">  5  6 -1 -1</clus>
<clus scale="   91.125">  7  8 -1 -1</clus>
<clus scale="  124.871">  2  5  1 -1</clus>
<clus scale="  145.515">  2  9  1 -1</clus>
<clus scale="  124.871">  2  5  1 -1</clus>
</clustering>
</event>
<event>
 9    1  0.2423659E-006  0.1015720E+03  0.7546771E-02  0.1277141E+00
         -2   -1    0    0    0  501 -0.00000000000E+00  0.00000000000E+00  0.10977578861E+03  0.10977578861E+03  0.00000000000E+00 0.  1.
          2   -1    0    0  502    0  0.00000000000E+00 -0.00000000000E+00 -0.26671621044E+03  0.26671621044E+03  0.00000000000E+00 0. -1.
         23    2    1    2    0    0  0.22592375158E+02  0.19675180455E+02  0.10787988345E+02  0.95912513310E+02  0.90472655403E+02 0.  0.
         23    2    1    2    0    0  0.18621212930E+01 -0.51747567085E+02 -0.20215665923E+03  0.22755152412E+03  0.90725426768E+02 0.  0.
        -11    1    3    3    0    0  0.14719688356E+02 -0.32862343578E+02 -0.12212541507E+02  0.38023006468E+02  0.00000000000E+00 0. -1.
         11    1    3    3    0    0  0.78726868023E+01  0.52537524033E+02  0.23000529852E+02  0.57889506843E+02  0.00000000000E+00 0.  1.
        -13    1    4    4    0    0 -0.27922992906E+01 -0.73103609367E+02 -0.18741567750E+03  0.20118789927E+03  0.00000000000E+00 0. -1.
         13    1    4    4    0    0  0.46544205835E+01  0.21356042283E+02 -0.14740981727E+02  0.26363624850E+02  0.00000000000E+00 0.  1.
         21    1    1    2  502  501 -0.24454496451E+02  0.32072386630E+02  0.34428249057E+02  0.53027961624E+02  0.00000000000E+00 0.  1.
<scales pt_clust_5="13000.00000" pt_clust_6="13000.00000" pt_clust_7="13000.00000" pt_clust_8="13000.00000" pt_clust_9="40.33188"></scales>
<clustering>
<clus scale="   40.332">  1  9  2 -1</clus>
<clus scale="   90.473">  5  6 -1 -1</clus>
<clus scale="   90.725">  7  8 -1 -1</clus>
<clus scale="  101.346">  1  5  2 -1</clus>
<clus scale="  101.572">  2  5  1 -1</clus>
</clustering>
</event>
<event>
 9    1  0.2423659E-006  0.9389782E+02  0.7546771E-02  0.1304192E+00
         -2   -1    0    0    0  501 -0.00000000000E+00  0.00000000000E+00  0.86137779007E+02  0.86137779007E+02  0.00000000000E+00 0.  1.
          2   -1    0    0  502    0  0.00000000000E+00 -0.00000000000E+00 -0.33100039589E+03  0.33100039589E+03  0.00000000000E+00 0. -1.
         23    2    1    2    0    0  0.18834140242E+02  0.13976630732E+01  0.42749206455E+02  0.10243602932E+03  0.91153536135E+02 0.  0.
         23    2    1    2    0    0 -0.40117931411E+02  0.99486978622E+01 -0.12948672598E+03  0.15474813316E+03  0.73971261322E+02 0.  0.
        -11    1    3    3    0    0  0.51647604269E+02 -0.16565351517E+02  0.16347707397E+02  0.56649213893E+02  0.00000000000E+00 0.  1.
         11    1    3    3    0    0 -0.32813464026E+02  0.17963014591E+02  0.26401499058E+02  0.45786815429E+02  0.00000000000E+00 0. -1.
        -11    1    4    4    0    0 -0.34793878560E+02  0.29452072112E+02 -0.33282445843E+02  0.56442534831E+02  0.00000000000E+00 0.  1.
         11    1    4    4    0    0 -0.53240528515E+01 -0.19503374250E+02 -0.96204280138E+02  0.98305598329E+02  0.00000000000E+00 0. -1.
         21    1    1    2  502  501  0.21283791169E+02 -0.11346360935E+02 -0.15812509736E+03  0.15995401242E+03  0.00000000000E+00 0. -1.
<scales pt_clust_5="13000.00000" pt_clust_6="13000.00000" pt_clust_7="13000.00000" pt_clust_8="13000.00000" pt_clust_9="24.11928"></scales>
<clustering>
<clus scale="   24.119">  2  9  1 -1</clus>
<clus scale="   73.971">  7  8 -1 -1</clus>
<clus scale="   77.328">  2  7  1 -1</clus>
<clus scale="   91.154">  5  6 -1 -1</clus>
<clus scale="   24.119">  2  5  1 -1</clus>
</clustering>
</event>
<event>
 9    1  0.2423659E-006  0.9464956E+02  0.7546771E-02  0.1294169E+00
         -2   -1    0    0    0  501 -0.00000000000E+00  0.00000000000E+00  0.16950260498E+03  0.16950260498E+03  0.00000000000E+00 0.  1.
          2   -1    0    0  502    0  0.00000000000E+00 -0.00000000000E+00 -0.82010647004E+02  0.82010647004E+02  0.00000000000E+00 0. -1.
         23    2    1    2    0    0 -0.18834882779E+02  0.63371513734E+00  0.89888231762E+02  0.13103826377E+03  0.93466453650E+02 0.  0.
         23    2    1    2    0    0  0.40954368640E+01  0.17245055340E+02 -0.17236961791E+02  0.92958670872E+02  0.89610474285E+02 0.  0.
        -13    1    4    4    0    0 -0.93429922919E+01  0.52417837769E+02 -0.55417549257E+01  0.53531600658E+02  0.00000000000E+00 0.  1.
         13    1    4    4    0    0  0.13438429156E+02 -0.35172782429E+02 -0.11695206866E+02  0.39427070213E+02  0.00000000000E+00 0. -1.
        -13    1    3    3    0    0 -0.21660114526E+02 -0.35236497153E+02  0.87458725520E+01  0.42276016600E+02  0.00000000000E+00 0. -1.
         13    1    3    3    0    0  0.28252317468E+01  0.35870212290E+02  0.81142359210E+02  0.88762247168E+02  0.00000000000E+00 0.  1.
         21    1    1    2  502  501  0.14739445915E+02 -0.17878770478E+02  0.14840688005E+02  0.27516317343E+02  0.00000000000E+00 0. -1.
<scales pt_clust_5="13000.00000" pt_clust_6="13000.00000" pt_clust_7="13000.00000" pt_clust_8="13000.00000" pt_clust_9="23.17114"></scales>
<clustering>
<clus scale="   23.171">  1  9  2 -1</clus>
<clus scale="   89.610">  5  6 -1 -1</clus>
<clus scale="   90.844">  2  5  1 -1</clus>
<clus scale="   93.466">  7  8 -1 -1</clus>
<clus scale="   90.844">  2  5  1 -1</clus>
</clustering>
</event>
<event>
 9    1  0.2423659E-006  0.1907613E+03  0.7546771E-02  0.1157935E+00
         -3   -1    0    0    0  501 -0.00000000000E+00  0.00000000000E+00  0.27011485414E+03  0.27011485414E+03  0.00000000000E+00 0.  1.
          3   -1    0    0  502    0  0.00000000000E+00 -0.00000000000E+00 -0.35960089479E+03  0.35960089479E+03  0.00000000000E+00 0. -1.
         23    2    1    2    0    0  0.92083326133E+01  0.15056947650E+03  0.61137717104E+02  0.18731459773E+03  0.92698314043E+02 0.  0.
         23    2    1    2    0    0  0.13723840981E+03 -0.19712522953E+03 -0.59468101365E+02  0.26372983231E+03  0.91237229927E+02 0.  0.
        -11    1    3    3    0    0  0.18549918069E+02  0.24143287114E+02  0.51945739891E+02  0.60210943074E+02  0.00000000000E+00 0.  1.
         11    1    3    3    0    0 -0.93415854553E+01  0.12642618938E+03  0.91919772124E+01  0.12710365465E+03  0.00000000000E+00 0. -1.
        -13    1    4    4    0    0  0.13910481920E+03 -0.13203161323E+03 -0.42647401178E+02  0.19647213147E+03  0.00000000000E+00 0. -1.
         13    1    4    4    0    0 -0.18664093933E+01 -0.65093616298E+02 -0.16820700188E+02  0.67257700835E+02  0.00000000000E+00 0.  1.
         21    1    1    2  502  501 -0.14644674242E+03  0.46555753028E+02 -0.91155656385E+02  0.17867131890E+03  0.00000000000E+00 0.  1.
<scales pt_clust_5="13000.00000" pt_clust_6="13000.00000" pt_clust_7="13000.00000" pt_clust_8="13000.00000" pt_clust_9="153.66876"></scales>
<clustering>
<clus scale="   91.237">  7  8 -1 -1</clus>
<clus scale="   92.698">  5  6 -1 -1</clus>
<clus scale="  153.669">  2  9  1 -1</clus>
<clus scale="  190.056">  2  7  1 -1</clus>
<clus scale="  153.669">  2  5  1 -1</clus>
</clustering>
</event>
<event>
 9    1  0.3099972E-006  0.1470941E+03  0.7546771E-02  0.1224504E+00
          1   -1    0    0  502    0  0.00000000000E+00  0.00000000000E+00  0.45953509084E+03  0.45953509084E+03  0.00000000000E+00 0. -1.
         -1   -1    0    0    0  501 -0.00000000000E+00 -0.00000000000E+00 -0.21405775532E+03  0.21405775532E+03  0.00000000000E+00 0.  1.
         23    2    1    2    0    0 -0.23822983917E+02 -0.19176638093E+02 -0.14627532633E+03  0.17464586315E+03  0.90384890402E+02 0.  0.
         23    2    1    2    0    0  0.93882174805E+02  0.10384173687E+03  0.11895298848E+03  0.20484473725E+03  0.90634341426E+02 0.  0.
        -11    1    4    4    0    0  0.55041335607E+02  0.96697633215E+02  0.43089766667E+02  0.11931768053E+03  0.00000000000E+00 0.  1.
         11    1    4    4    0    0  0.38840839198E+02  0.71441036548E+01  0.75863221817E+02  0.85527056719E+02  0.00000000000E+00 0. -1.
        -13    1    3    3    0    0 -0.50831388144E+02 -0.32272124862E+02 -0.68069846544E+02  0.90878072560E+02  0.00000000000E+00 0. -1.
         13    1    3    3    0    0  0.27008404227E+02  0.13095486769E+02 -0.78205479785E+02  0.83767790594E+02  0.00000000000E+00 0.  1.
         21    1    1    2  502  501 -0.70059190888E+02 -0.84665098777E+02  0.27279967336E+03  0.29410224577E+03  0.00000000000E+00 0. -1.
<scales pt_clust_5="13000.00000" pt_clust_6="13000.00000" pt_clust_7="13000.00000" pt_clust_8="13000.00000" pt_clust_9="115.85369"></scales>
<clustering>
<clus scale="   90.385">  7  8 -1 -1</clus>
<clus scale="   90.634">  5  6 -1 -1</clus>
<clus scale="   95.419">  2  7  1 -1</clus>
<clus scale="  115.854">  1  9  2 -1</clus>
<clus scale="  115.854">  1  5  2 -1</clus>
</clustering>
</event>
<event>
 9    1  0.2423659E-006  0.1168763E+03  0.7546771E-02  0.1248719E+00
         -1   -1    0    0    0  501 -0.00000000000E+00  0.00000000000E+00  0.79856960599E+02  0.79856960599E+02  0.00000000000E+00 0.  1.
          1   -1    0    0  502    0  0.00000000000E+00 -0.00000000000E+00 -0.66072949828E+03  0.66072949828E+03  0.00000000000E+00 0. -1.
         23    2    1    2    0    0 -0.56725418552E+01 -0.74478906272E+01 -0.10321377276E+03  0.14004598471E+03  0.94192070476E+02 0.  0.
         23    2    1    2    0    0  0.47949601430E+02  0.87002884460E+02 -0.49094723110E+03  0.50947494753E+03  0.93096037801E+02 0.  0.
        -13    1    4    4    0    0  0.11604758879E+02  0.97599358271E+02 -0.35496106403E+03  0.36831733891E+03  0.00000000000E+00 0. -1.
         13    1    4    4    0    0  0.36344842550E+02 -0.10596473811E+02 -0.13598616707E+03  0.14115760862E+03  0.00000000000E+00 0.  1.
        -13    1    3    3    0    0 -0.28958292926E+02  0.17948578963E+02 -0.99760263015E+02  0.10541747622E+03  0.00000000000E+00 0.  1.
         13    1    3    3    0    0  0.23285751071E+02 -0.25396469590E+02 -0.34535097413E+01  0.34628508488E+02  0.00000000000E+00 0. -1.
         21    1    1    2  502  501 -0.42277059574E+02 -0.79554993833E+02  0.13288466170E+02  0.91065526645E+02  0.00000000000E+00 0.  1.
<scales pt_clust_5="13000.00000" pt_clust_6="13000.00000" pt_clust_7="13000.00000" pt_clust_8="13000.00000" pt_clust_9="90.09077"></scales>
<clustering>
<clus scale="   90.091">  1  9  2 -1</clus>
<clus scale="   93.096">  5  6 -1 -1</clus>
<clus scale="   94.192">  7  8 -1 -1</clus>
<clus scale="  115.995">  2  5  1 -1</clus>
<clus scale="  115.995">  2  5  1 -1</clus>
</clustering>
</event>
<event>
 9    1  0.2423659E-006  0.1037685E+03  0.7546771E-02  0.1275508E+00
         -1   -1    0    0    0  501 -0.00000000000E+00  0.00000000000E+00  0.31775108798E+03  0.31775108798E+03  0.00000000000E+00 0.  1.
          1   -1    0    0  502    0  0.00000000000E+00 -0.00000000000E+00 -0.81039481538E+02  0.81039481538E+02  0.00000000000E+00 0. -1.
         23    2    1    2    0    0  0.10784758749E+02  0.27150289444E+02  0.19007897452E+03  0.21266790324E+03  0.90797418875E+02 0.  0.
         23    2    1    2    0    0  0.16087267196E+02 -0.36845789593E+02 -0.25968400465E+02  0.10810331993E+03  0.96930684411E+02 0.  0.
        -13    1    3    3    0    0  0.12095838436E+01  0.49852067504E+02  0.17870258041E+03  0.18552979269E+03  0.00000000000E+00 0.  1.
         13    1    3    3    0    0  0.95751749055E+01 -0.22701778059E+02  0.11376394110E+02  0.27138110554E+02  0.00000000000E+00 0. -1.
        -13    1    4    4    0    0  0.56067565552E+02 -0.32216727066E+02 -0.14832121006E+02  0.66343660008E+02  0.00000000000E+00 0. -1.
         13    1    4    4    0    0 -0.39980298356E+02 -0.46290625270E+01 -0.11136279460E+02  0.41759659921E+02  0.00000000000E+00 0.  1.
         21    1    1    2  502  501 -0.26872025945E+02  0.96955001482E+01  0.72601032381E+02  0.78019346347E+02  0.00000000000E+00 0.  1.
<scales pt_clust_5="13000.00000" pt_clust_6="13000.00000" pt_clust_7="13000.00000" pt_clust_8="13000.00000" pt_clust_9="28.56761"></scales>
<clustering>
<clus scale="   28.568">  1  9  2 -1</clus>
<clus scale="   90.797">  5  6 -1 -1</clus>
<clus scale="   96.931">  7  8 -1 -1</clus>
<clus scale="   98.064">  1  5  2 -1</clus>
<clus scale="  103.769">  2  5  1 -1</clus>
</clustering>
</event>
<event>
 9    1  0.2423659E-006  0.1017389E+03  0.7546771E-02  0.1277453E+00
          1   -1    0    0  502    0  0.00000000000E+00  0.00000000000E+00  0.21376979933E+03  0.21376979933E+03  0.00000000000E+00 0. -1.
         -1   -1    0    0    0  501 -0.00000000000E+00 -0.00000000000E+00 -0.89577209540E+02  0.89577209540E+02  0.00000000000E+00 0.  1.
         23    2    1    2    0    0 -0.35426076386E+01 -0.78579474418E+02  0.54219982404E+02  0.13286422035E+03  0.92335316577E+02 0.  0.
         23    2    1    2    0    0  0.83041859194E+01  0.17416157318E+02  0.53135841214E+02  0.10686596149E+03  0.90689768246E+02 0.  0.
        -11    1    3    3    0    0 -0.28144411555E+02 -0.11480116170E+02 -0.14536169904E+02  0.33692747061E+02  0.00000000000E+00 0.  1.
         11    1    3    3    0    0  0.24601803916E+02 -0.67099358248E+02  0.68756152308E+02  0.99171473285E+02  0.00000000000E+00 0. -1.
        -13    1    4    4    0    0 -0.25567125521E+02  0.15947184780E+02 -0.12788797440E+02  0.32734445921E+02  0.00000000000E+00 0.  1.
         13    1    4    4    0    0  0.33871311441E+02  0.14689725381E+01  0.65924638654E+02  0.74131515570E+02  0.00000000000E+00 0. -1.
         21    1    1    2  502  501 -0.47615782808E+01  0.61163317100E+02  0.16836766172E+02  0.63616827032E+02  0.00000000000E+00 0.  1.
<scales pt_clust_5="13000.00000" pt_clust_6="13000.00000" pt_clust_7="13000.00000" pt_clust_8="13000.00000" pt_clust_9="61.34838"></scales>
<clustering>
<clus scale="   61.348">  2  9  1 -1</clus>
<clus scale="   90.690">  7  8 -1 -1</clus>
<clus scale="   92.335">  5  6 -1 -1</clus>
<clus scale="  100.248">  1  7  2 -1</clus>
<clus scale="  100.248">  1  5  2 -1</clus>
</clustering>
</event>
<event>
 9    1  0.2423659E-006  0.1092829E+03  0.7546771E-02  0.1265682E+00
         -2   -1    0    0    0  501 -0.00000000000E+00  0.00000000000E+00  0.63958340864E+02  0.63958340864E+02  0.00000000000E+00 0.  1.
          2   -1    0    0  502    0  0.00000000000E+00 -0.00000000000E+00 -0.37940594295E+03  0.37940594295E+03  0.00000000000E+00 0. -1.
         23    2    1    2    0    0  0.24385764586E+02  0.55510642799E+02 -0.61122962306E+02  0.12404746714E+03  0.89306554096E+02 0.  0.
         23    2    1    2    0    0  0.13361405534E+02 -0.45528075680E+02 -0.25804511122E+03  0.28009510832E+03  0.98054359661E+02 0.  0.
        -11    1    3    3    0    0  0.34034779885E+02 -0.10743008123E+02 -0.40519551803E+02  0.53996412322E+02  0.00000000000E+00 0. -1.
         11    1    3    3    0    0 -0.96490152998E+01  0.66253650922E+02 -0.20603410504E+02  0.70051054818E+02  0.00000000000E+00 0.  1.
        -13    1    4    4    0    0 -0.38263504416E+02  0.15411596398E+01 -0.10785952285E+03  0.11445587627E+03  0.00000000000E+00 0.  1.
         13    1    4    4    0    0  0.51624909950E+02 -0.47069235320E+02 -0.15018558837E+03  0.16563923206E+03  0.00000000000E+00 0. -1.
         21    1    1    2  502  501 -0.37747170119E+02 -0.99825671193E+01  0.37204714394E+01  0.39221708352E+02  0.00000000000E+00 0.  1.
<scales pt_clust_5="13000.00000" pt_clust_6="13000.00000" pt_clust_7="13000.00000" pt_clust_8="13000.00000" pt_clust_9="39.04485"></scales>
<clustering>
<clus scale="   39.045">  1  9  2 -1</clus>
<clus scale="   89.307">  5  6 -1 -1</clus>
<clus scale="   98.054">  7  8 -1 -1</clus>
<clus scale="  101.507">  1  5  2 -1</clus>
<clus scale="  109.283">  2  5  1 -1</clus>
</clustering>
</event>
<event>
 9    1  0.2423659E-006  0.1321487E+03  0.7546771E-02  0.1236652E+00
         -1   -1    0    0    0  501 -0.00000000000E+00  0.00000000000E+00  0.76742773127E+02  0.76742773127E+02  0.00000000000E+00 0.  1.
          1   -1    0    0  502    0  0.00000000000E+00 -0.00000000000E+00 -0.37759772038E+03  0.37759772038E+03  0.00000000000E+00 0. -1.
         23    2    1    2    0    0  0.29647329935E+02 -0.33829970113E+02 -0.74886162986E+02  0.12687927008E+03  0.92016198136E+02 0.  0.
         23    2    1    2    0    0  0.71069807924E+02 -0.24697781278E+02 -0.76005187836E+02  0.13757041323E+03  0.86532837816E+02 0.  0.
        -11    1    4    4    0    0  0.31286543194E+02  0.32418637159E+02 -0.29029853245E+02  0.53596158442E+02  0.00000000000E+00 0. -1.
         11    1    4    4    0    0  0.39783264730E+02 -0.57116418437E+02 -0.46975334591E+02  0.83974254791E+02  0.00000000000E+00 0.  1.
        -13    1    3    3    0    0 -0.31833884035E+02 -0.10021216206E+02 -0.11174113230E+02  0.35194910903E+02  0.00000000000E+00 0. -1.
         13    1    3    3    0    0  0.61481213969E+02 -0.23808753907E+02 -0.63712049756E+02  0.91684359178E+02  0.00000000000E+00 0.  1.
         21    1    1    2  502  501 -0.10071713786E+03  0.58527751391E+02 -0.14996359643E+03  0.18989081019E+03  0.00000000000E+00 0. -1.
<scales pt_clust_5="13000.00000" pt_clust_6="13000.00000" pt_clust_7="13000.00000" pt_clust_8="13000.00000" pt_clust_9="99.87666"></scales>
<clustering>
<clus scale="   86.533">  5  6 -1 -1</clus>
<clus scale="   92.016">  7  8 -1 -1</clus>
<clus scale="  102.423">  1  7  2 -1</clus>
<clus scale="   99.877">  2  9  1 -1</clus>
<clus scale="   99.877">  2  5  1 -1</clus>
</clustering>
</event>
<event>
 9    1  0.2423659E-006  0.1427359E+03  0.7546771E-02  0.1226698E+00
         -2   -1    0    0    0  501 -0.00000000000E+00  0.00000000000E+00  0.22591176652E+03  0.22591176652E+03  0.00000000000E+00 0.  1.
          2   -1    0    0  502    0  0.00000000000E+00 -0.00000000000E+00 -0.17093250224E+03  0.17093250224E+03  0.00000000000E+00 0. -1.
         23    2    1    2    0    0 -0.23439284646E+01 -0.49982299532E+02  0.91872884629E+02  0.13562730257E+03  0.86315780738E+02 0.  0.
         23    2    1    2    0    0  0.83744003216E+02 -0.43458652155E+02  0.36241525065E+01  0.13083723794E+03  0.90573372631E+02 0.  0.
        -11    1    3    3    0    0  0.11865097132E+02  0.21322993132E+02  0.10675611987E+02  0.26634925518E+02  0.00000000000E+00 0.  1.
         11    1    3    3    0    0 -0.14209025597E+02 -0.71305292664E+02  0.81197272642E+02  0.10899237705E+03  0.00000000000E+00 0. -1.
        -13    1    4    4    0    0  0.50415652205E+02  0.21642080460E+02  0.14864335194E+02  0.56842467352E+02  0.00000000000E+00 0.  1.
         13    1    4    4    0    0  0.33328351011E+02 -0.65100732615E+02 -0.11240182688E+02  0.73994770592E+02  0.00000000000E+00 0. -1.
         21    1    1    2  502  501 -0.81400074751E+02  0.93440951687E+02 -0.40517772850E+02  0.13037972825E+03  0.00000000000E+00 0. -1.
<scales pt_clust_5="13000.00000" pt_clust_6="13000.00000" pt_clust_7="13000.00000" pt_clust_8="13000.00000" pt_clust_9="110.31768"></scales>
<clustering>
<clus scale="   86.316">  5  6 -1 -1</clus>
<clus scale="   90.573">  7  8 -1 -1</clus>
<clus scale="   99.770">  1  5  2 -1</clus>
<clus scale="  110.318">  2  9  1 -1</clus>
<clus scale="  110.318">  2  5  1 -1</clus>
</clustering>
</event>
<event>
 9    1  0.2423659E-006  0.9991549E+02  0.7546771E-02  0.1282457E+00
         -1   -1    0    0    0  501 -0.00000000000E+00  0.00000000000E+00  0.19009156964E+03  0.19009156964E+03  0.00000000000E+00 0.  1.
          1   -1    0    0  502    0  0.00000000000E+00 -0.00000000000E+00 -0.16266821179E+03  0.16266821179E+03  0.00000000000E+00 0. -1.
         23    2    1    2    0    0 -0.23573918995E+02  0.34790899130E+02  0.11856390899E+03  0.15656314309E+03  0.93212021433E+02 0.  0.
         23    2    1    2    0    0 -0.25463994900E+02 -0.33226645039E+02 -0.70321378879E+01  0.98824213771E+02  0.89243203032E+02 0.  0.
        -11    1    3    3    0    0  0.29329715740E+02  0.28501637889E+02  0.22405774061E+02  0.46632545491E+02  0.00000000000E+00 0.  1.
         11    1    3    3    0    0 -0.52903634735E+02  0.62892612407E+01  0.96158134925E+02  0.10993059759E+03  0.00000000000E+00 0. -1.
        -13    1    4    4    0    0  0.18855001081E+02  0.19588258803E+02 -0.11958585672E+02  0.29702166924E+02  0.00000000000E+00 0.  1.
         13    1    4    4    0    0 -0.44318995981E+02 -0.52814903842E+02  0.49264477845E+01  0.69122046847E+02  0.00000000000E+00 0. -1.
         21    1    1    2  502  501  0.49037913896E+02 -0.15642540908E+01 -0.84108413246E+02  0.97372424581E+02  0.00000000000E+00 0. -1.
<scales pt_clust_5="13000.00000" pt_clust_6="13000.00000" pt_clust_7="13000.00000" pt_clust_8="13000.00000" pt_clust_9="49.06286"></scales>
<clustering>
<clus scale="   49.063">  2  9  1 -1</clus>
<clus scale="   89.243">  7  8 -1 -1</clus>
<clus scale="   93.212">  5  6 -1 -1</clus>
<clus scale="   96.224">  2  7  1 -1</clus>
<clus scale="   49.063">  2  5  1 -1</clus>
</clustering>
</event>
<event>
 9    1  0.2423659E-006  0.1237933E+03  0.7546771E-02  0.1249328E+00
          1   -1    0    0  502    0  0.00000000000E+00  0.00000000000E+00  0.30473671742E+03  0.30473671742E+03  0.00000000000E+00 0. -1.
         -1   -1    0    0    0  501 -0.00000000000E+00 -0.00000000000E+00 -0.84653348024E+02  0.84653348024E+02  0.00000000000E+00 0.  1.
         23    2    1    2    0    0 -0.36131205353E+01  0.79074304739E+02  0.45922838385E+02  0.12594833061E+03  0.86534817208E+02 0.  0.
         23    2    1    2    0    0 -0.16817732598E+02  0.18686899893E+02  0.10095922615E+03  0.13961482368E+03  0.93099394678E+02 0.  0.
        -13    1    3    3    0    0 -0.28735445121E+02  0.16610314688E+02  0.48270829318E+02  0.58580724845E+02  0.00000000000E+00 0. -1.
         13    1    3    3    0    0  0.25122324585E+02  0.62463990051E+02 -0.23479909332E+01  0.67367605770E+02  0.00000000000E+00 0.  1.
        -13    1    4    4    0    0 -0.18686100498E+02  0.48469919205E+02  0.24295372316E+02  0.57347785795E+02  0.00000000000E+00 0. -1.
         13    1    4    4    0    0  0.18683679000E+01 -0.29783019313E+02  0.76663853831E+02  0.82267037884E+02  0.00000000000E+00 0.  1.
         21    1    1    2  502  501  0.20430853134E+02 -0.97761204632E+02  0.73201304862E+02  0.12382691115E+03  0.00000000000E+00 0.  1.
<scales pt_clust_5="13000.00000" pt_clust_6="13000.00000" pt_clust_7="13000.00000" pt_clust_8="13000.00000" pt_clust_9="88.52400"></scales>
<clustering>
<clus scale="   86.535">  5  6 -1 -1</clus>
<clus scale="   93.099">  7  8 -1 -1</clus>
<clus scale="   96.434">  1  7  2 -1</clus>
<clus scale="   88.524">  1  9  2 -1</clus>
<clus scale="   96.434">  1  5  2 -1</clus>
</clustering>
</event>
<event>
 9    1  0.2423659E-006  0.1062270E+03  0.7546771E-02  0.1272791E+00
         -1   -1    0    0    0  501 -0.00000000000E+00  0.00000000000E+00  0.82214858344E+02  0.82214858344E+02  0.00000000000E+00 0.  1.
          1   -1    0    0  502    0  0.00000000000E+00 -0.00000000000E+00 -0.36643320586E+03  0.36643320586E+03  0.00000000000E+00 0. -1.
         23    2    1    2    0    0  0.13999450683E+01 -0.44626602553E+02 -0.89371698532E+02  0.12933372709E+03  0.82136587238E+02 0.  0.
         23    2    1    2    0    0 -0.73564737932E+02  0.15611773922E+02 -0.20826639558E+03  0.24038584284E+03  0.93567963316E+02 0.  0.
        -11    1    3    3    0    0 -0.39161458482E+02 -0.11240470451E+02 -0.34760675657E+02  0.53556256204E+02  0.00000000000E+00 0. -1.
         11    1    3    3    0    0  0.40561403550E+02 -0.33386132102E+02 -0.54611022875E+02  0.75777470888E+02  0.00000000000E+00 0.  1.
        -13    1    4    4    0    0 -0.73989964022E+02  0.40150496634E+02 -0.10677207650E+03  0.13596636891E+03  0.00000000000E+00 0. -1.
         13    1    4    4    0    0  0.42522608943E+00 -0.24538722712E+02 -0.10149431908E+03  0.10441947393E+03  0.00000000000E+00 0.  1.
         21    1    1    2  502  501  0.72164792864E+02  0.29014828631E+02  0.13419746593E+02  0.78928494273E+02  0.00000000000E+00 0.  1.
<scales pt_clust_5="13000.00000" pt_clust_6="13000.00000" pt_clust_7="13000.00000" pt_clust_8="13000.00000" pt_clust_9="77.77929"></scales>
<clustering>
<clus scale="   77.779">  1  9  2 -1</clus>
<clus scale="   82.137">  5  6 -1 -1</clus>
<clus scale="   93.568">  7  8 -1 -1</clus>
<clus scale="   96.310">  1  5  2 -1</clus>
<clus scale="  106.227">  2  5  1 -1</clus>
</clustering>
</event>
<event>
 9    1  0.2423659E-006  0.1595929E+03  0.7546771E-02  0.1197737E+00
         -2   -1    0    0    0  501 -0.00000000000E+00  0.00000000000E+00  0.13595666586E+03  0.13595666586E+03  0.00000000000E+00 0.  1.
          2   -1    0    0  502    0  0.00000000000E+00 -0.00000000000E+00 -0.40012876047E+03  0.40012876047E+03  0.00000000000E+00 0. -1.
         23    2    1    2    0    0  0.91278085382E+02  0.31128173004E+02 -0.23605249356E+02  0.13427215893E+03  0.90394429259E+02 0.  0.
         23    2    1    2    0    0  0.10423532652E+02 -0.12854605881E+03 -0.52705848487E+02  0.16702566617E+03  0.92124521314E+02 0.  0.
        -11    1    3    3    0    0  0.75635203300E+02 -0.11328185126E+02 -0.39799534110E+02  0.86214932999E+02  0.00000000000E+00 0.  1.
         11    1    3    3    0    0  0.15642882082E+02  0.42456358130E+02  0.16194284755E+02  0.48057225932E+02  0.00000000000E+00 0. -1.
        -13    1    4    4    0    0  0.44497287169E+02 -0.31356426238E+02 -0.27541870345E+02  0.61006464034E+02  0.00000000000E+00 0. -1.
         13    1    4    4    0    0 -0.34073754517E+02 -0.97189632571E+02 -0.25163978143E+02  0.10601920214E+03  0.00000000000E+00 0.  1.
         21    1    1    2  502  501 -0.10170161803E+03  0.97417885806E+02 -0.18786099677E+03  0.23478760123E+03  0.00000000000E+00 0. -1.
<scales pt_clust_5="13000.00000" pt_clust_6="13000.00000" pt_clust_7="13000.00000" pt_clust_8="13000.00000" pt_clust_9="130.31876"></scales>
<clustering>
<clus scale="   90.394">  5  6 -1 -1</clus>
<clus scale="   92.125">  7  8 -1 -1</clus>
<clus scale="  132.181">  1  5  2 -1</clus>
<clus scale="  130.319">  2  9  1 -1</clus>
<clus scale="  130.319">  2  5  1 -1</clus>
</clustering>
</event>
<event>
 9    1  0.2423659E-006  0.9445649E+02  0.7546771E-02  0.1293695E+00
         -1   -1    0    0    0  501 -0.00000000000E+00  0.00000000000E+00  0.14103396449E+03  0.14103396449E+03  0.00000000000E+00 0.  1.
          1   -1    0    0  502    0  0.00000000000E+00 -0.00000000000E+00 -0.12259423477E+03  0.12259423477E+03  0.00000000000E+00 0. -1.
         23    2    1    2    0    0  0.16629576247E+02  0.29908423648E+02  0.23259259696E+01  0.95814045388E+02  0.89464321105E+02 0.  0.
         23    2    1    2    0    0 -0.27939006016E+02  0.32500213239E+02 -0.37246867543E+01  0.10135885412E+03  0.91776315569E+02 0.  0.
        -11    1    3    3    0    0  0.41954575761E+02  0.44193039665E+01 -0.26439230133E+02  0.49787042138E+02  0.00000000000E+00 0.  1.
         11    1    3    3    0    0 -0.25324999514E+02  0.25489119682E+02  0.28765156102E+02  0.46027003250E+02  0.00000000000E+00 0. -1.
        -11    1    4    4    0    0 -0.57657181674E+02  0.72176759810E+01 -0.16325392967E+02  0.60356970606E+02  0.00000000000E+00 0. -1.
         11    1    4    4    0    0  0.29718175658E+02  0.25282537258E+02  0.12600706213E+02  0.41001883514E+02  0.00000000000E+00 0.  1.
         21    1    1    2  502  501  0.11309429769E+02 -0.62408636888E+02  0.19838490510E+02  0.66455299755E+02  0.00000000000E+00 0.  1.
<scales pt_clust_5="13000.00000" pt_clust_6="13000.00000" pt_clust_7="13000.00000" pt_clust_8="13000.00000" pt_clust_9="63.42508"></scales>
<clustering>
<clus scale="   63.425">  1  9  2 -1</clus>
<clus scale="   89.464">  5  6 -1 -1</clus>
<clus scale="   91.776">  7  8 -1 -1</clus>
<clus scale="   92.212">  1  5  2 -1</clus>
<clus scale="   94.456">  2  5  1 -1</clus>
</clustering>
</event>
<event>
 9    1  0.2423659E-006  0.3226219E+03  0.7546771E-02  0.1074471E+00
          1   -1    0    0  502    0  0.00000000000E+00  0.00000000000E+00  0.18715217597E+04  0.18715217597E+04  0.00000000000E+00 0. -1.
         -1   -1    0    0    0  501 -0.00000000000E+00 -0.00000000000E+00 -0.45082252135E+03  0.45082252135E+03  0.00000000000E+00 0.  1.
         23    2    1    2    0    0  0.22478614345E+03 -0.23602366757E+03 -0.35170020767E+03  0.48806986796E+03  0.91011966227E+02 0.  0.
         23    2    1    2    0    0 -0.54235535560E+02  0.20155788438E+03  0.49103250226E+03  0.54114771991E+03  0.90337491739E+02 0.  0.
        -11    1    3    3    0    0  0.19877912028E+03 -0.15322215461E+03 -0.27411194629E+03  0.37165511758E+03  0.00000000000E+00 0.  1.
         11    1    3    3    0    0  0.26007023164E+02 -0.82801512960E+02 -0.77588261382E+02  0.11641475038E+03  0.00000000000E+00 0. -1.
        -13    1    4    4    0    0  0.72079305126E+00  0.13074296477E+03  0.35428158154E+03  0.37763697038E+03  0.00000000000E+00 0. -1.
         13    1    4    4    0    0 -0.54956328611E+02  0.70814919607E+02  0.13675092072E+03  0.16351074953E+03  0.00000000000E+00 0.  1.
         21    1    1    2  502  501 -0.17055060789E+03  0.34465783186E+02  0.12813669438E+04  0.12931266932E+04  0.00000000000E+00 0. -1.
<scales pt_clust_5="13000.00000" pt_clust_6="13000.00000" pt_clust_7="13000.00000" pt_clust_8="13000.00000" pt_clust_9="173.99828"></scales>
<clustering>
<clus scale="   90.337">  7  8 -1 -1</clus>
<clus scale="   91.012">  5  6 -1 -1</clus>
<clus scale="  173.998">  1  9  2 -1</clus>
<clus scale="  322.432">  1  7  2 -1</clus>
<clus scale="  173.998">  1  5  2 -1</clus>
</clustering>
</event>
<event>
 9    1  0.2423659E-006  0.1536858E+03  0.7546771E-02  0.1218660E+00
         -1   -1    0    0    0  501 -0.00000000000E+00  0.00000000000E+00  0.21796955320E+03  0.21796955320E+03  0.00000000000E+00 0.  1.
          1   -1    0    0  502    0  0.00000000000E+00 -0.00000000000E+00 -0.21952855641E+03  0.21952855641E+03  0.00000000000E+00 0. -1.
         23    2    1    2    0    0 -0.10862983411E+02 -0.76347679110E+01  0.10349631672E+03  0.14018334174E+03  0.93614035464E+02 0.  0.
         23    2    1    2    0    0 -0.11482320216E+03 -0.88054325868E+01 -0.33877990101E+02  0.15194107796E+03  0.93147568733E+02 0.  0.
        -11    1    3    3    0    0 -0.50566920773E+02  0.28050963177E+01  0.73838413502E+02  0.89537664423E+02  0.00000000000E+00 0. -1.
         11    1    3    3    0    0  0.39703937362E+02 -0.10439864229E+02  0.29657903220E+02  0.50645677314E+02  0.00000000000E+00 0.  1.
        -11    1    4    4    0    0 -0.17527394109E+02 -0.12777393669E+02  0.28861071215E+02  0.36103085254E+02  0.00000000000E+00 0.  1.
         11    1    4    4    0    0 -0.97295808053E+02  0.39719610821E+01 -0.62739061316E+02  0.11583799271E+03  0.00000000000E+00 0. -1.
         21    1    1    2  502  501  0.12568618557E+03  0.16440200498E+02 -0.71177329831E+02  0.14537368991E+03  0.00000000000E+00 0.  1.
<scales pt_clust_5="13000.00000" pt_clust_6="13000.00000" pt_clust_7="13000.00000" pt_clust_8="13000.00000" pt_clust_9="122.24102"></scales>
<clustering>
<clus scale="   93.148">  7  8 -1 -1</clus>
<clus scale="   93.614">  5  6 -1 -1</clus>
<clus scale="   94.551">  1  5  2 -1</clus>
<clus scale="  122.241">  2  9  1 -1</clus>
<clus scale="  122.241">  2  5  1 -1</clus>
</clustering>
</event>
<event>
 9    1  0.2423659E-006  0.1166666E+03  0.7546771E-02  0.1249425E+00
         -1   -1    0    0    0  501 -0.00000000000E+00  0.00000000000E+00  0.20112494329E+03  0.20112494329E+03  0.00000000000E+00 0.  1.
          1   -1    0    0  502    0  0.00000000000E+00 -0.00000000000E+00 -0.20504521801E+03  0.20504521801E+03  0.00000000000E+00 0. -1.
         23    2    1    2    0    0  0.51211729763E+02 -0.56423428940E+02  0.14653763898E+03  0.18849345961E+03  0.90830942299E+02 0.  0.
         23    2    1    2    0    0 -0.18368728534E+02  0.22389399310E+02 -0.13778673390E+03  0.16871205423E+03  0.92950943051E+02 0.  0.
        -11    1    3    3    0    0 -0.10522936098E+02 -0.52833386528E+02  0.47969082652E+02  0.72132737412E+02  0.00000000000E+00 0. -1.
         11    1    3    3    0    0  0.61734665861E+02 -0.35900424120E+01  0.98568556332E+02  0.11636072220E+03  0.00000000000E+00 0.  1.
        -13    1    4    4    0    0  0.17146331989E+02  0.19892050662E+02  0.14210435166E+00  0.26262341363E+02  0.00000000000E+00 0.  1.
         13    1    4    4    0    0 -0.35515060523E+02  0.24973486485E+01 -0.13792883825E+03  0.14244971287E+03  0.00000000000E+00 0. -1.
         21    1    1    2  502  501 -0.32843001228E+02  0.34034029629E+02 -0.12671179805E+02  0.48964647453E+02  0.00000000000E+00 0. -1.
<scales pt_clust_5="13000.00000" pt_clust_6="13000.00000" pt_clust_7="13000.00000" pt_clust_8="13000.00000" pt_clust_9="47.29670"></scales>
<clustering>
<clus scale="   47.297">  2  9  1 -1</clus>
<clus scale="   90.831">  5  6 -1 -1</clus>
<clus scale="   92.951">  7  8 -1 -1</clus>
<clus scale="  114.985">  1  5  2 -1</clus>
<clus scale="   47.297">  2  5  1 -1</clus>
</clustering>
</event>
<event>
 9    1  0.2423659E-006  0.1543400E+03  0.7546771E-02  0.1210993E+00
         -2   -1    0    0    0  501 -0.00000000000E+00  0.00000000000E+00  0.12258107683E+04  0.12258107683E+04  0.00000000000E+00 0.  1.
          2   -1    0    0  502    0  0.00000000000E+00 -0.00000000000E+00 -0.32940202481E+02  0.32940202481E+02  0.00000000000E+00 0. -1.
         23    2    1    2    0    0  0.74652245411E+02  0.47925961865E+02  0.28125022956E+03  0.30892796201E+03  0.92005100527E+02 0.  0.
         23    2    1    2    0    0  0.64123865247E+02 -0.33019782240E+01  0.26265853448E+03  0.28469029346E+03  0.89085825461E+02 0.  0.
        -11    1    4    4    0    0  0.41212446776E+01 -0.31722060419E+02  0.15452315590E+03  0.15779949139E+03  0.00000000000E+00 0.  1.
         11    1    4    4    0    0  0.60002620569E+02  0.28420082195E+02  0.10813537858E+03  0.12689080206E+03  0.00000000000E+00 0. -1.
        -13    1    3    3    0    0  0.11368224722E+02  0.58463315838E+02  0.17448619433E+03  0.18437089749E+03  0.00000000000E+00 0.  1.
         13    1    3    3    0    0  0.63284020688E+02 -0.10537353973E+02  0.10676403523E+03  0.12455706452E+03  0.00000000000E+00 0. -1.
         21    1    1    2  502  501 -0.13877611066E+03 -0.44623983641E+02  0.64896180178E+03  0.66513271531E+03  0.00000000000E+00 0.  1.
<scales pt_clust_5="13000.00000" pt_clust_6="13000.00000" pt_clust_7="13000.00000" pt_clust_8="13000.00000" pt_clust_9="123.91892"></scales>
<clustering>
<clus scale="   89.086">  5  6 -1 -1</clus>
<clus scale="   92.005">  7  8 -1 -1</clus>
<clus scale="  109.814">  2  5  1 -1</clus>
<clus scale="  123.919">  1  9  2 -1</clus>
<clus scale="  109.814">  2  5  1 -1</clus>
</clustering>
</event>
<event>
 9    1  0.2423659E-006  0.1357341E+03  0.7546771E-02  0.1222299E+00
          2   -1    0    0  502    0  0.00000000000E+00  0.00000000000E+00  0.60585050727E+03  0.60585050727E+03  0.00000000000E+00 0. -1.
         -2   -1    0    0    0  501 -0.00000000000E+00 -0.00000000000E+00 -0.91569531809E+02  0.91569531809E+02  0.00000000000E+00 0.  1.
         23    2    1    2    0    0 -0.96725278682E+02 -0.70997213966E+01  0.42826811629E+02  0.13951047264E+03  0.90679934950E+02 0.  0.
         23    2    1    2    0    0  0.53657168358E+02  0.90079764081E+02  0.10642801781E+03  0.18110107809E+03  0.10235830156E+03 0.  0.
        -11    1    4    4    0    0 -0.21713590057E+02  0.33093247083E+02  0.10928683052E+01  0.39595926012E+02  0.00000000000E+00 0.  1.
         11    1    4    4    0    0  0.75370758414E+02  0.56986516998E+02  0.10533514951E+03  0.14150515208E+03  0.00000000000E+00 0. -1.
        -11    1    3    3    0    0 -0.28367007180E+01  0.30045881238E+02  0.93094853435E+00  0.30193848968E+02  0.00000000000E+00 0. -1.
         11    1    3    3    0    0 -0.93888577964E+02 -0.37145602634E+02  0.41895863094E+02  0.10931662367E+03  0.00000000000E+00 0.  1.
         21    1    1    2  502  501  0.43068110324E+02 -0.82980042684E+02  0.36502614602E+03  0.37680848835E+03  0.00000000000E+00 0. -1.
<scales pt_clust_5="13000.00000" pt_clust_6="13000.00000" pt_clust_7="13000.00000" pt_clust_8="13000.00000" pt_clust_9="93.49091"></scales>
<clustering>
<clus scale="   90.680">  7  8 -1 -1</clus>
<clus scale="   93.491">  1  9  2 -1</clus>
<clus scale="  102.358">  5  6 -1 -1</clus>
<clus scale="  127.159">  2  7  1 -1</clus>
<clus scale="   93.491">  1  5  2 -1</clus>
</clustering>
</event>
<event>
 9    1  0.2423659E-006  0.1480625E+03  0.7546771E-02  0.1224383E+00
         -2   -1    0    0    0  501 -0.00000000000E+00  0.00000000000E+00  0.34644555413E+02  0.34644555413E+02  0.00000000000E+00 0.  1.
          2   -1    0    0  502    0  0.00000000000E+00 -0.00000000000E+00 -0.92455918661E+03  0.92455918661E+03  0.00000000000E+00 0. -1.
         23    2    1    2    0    0  0.18128671036E+02 -0.32295386208E+01 -0.15491774707E+03  0.18109964421E+03  0.91970071990E+02 0.  0.
         23    2    1    2    0    0 -0.11196720113E+03 -0.24986765416E+02 -0.41194364305E+03  0.44051673710E+03  0.10581322242E+03 0.  0.
        -11    1    3    3    0    0 -0.31524785550E+02 -0.85769914044E+01 -0.22749779992E+02  0.39811171487E+02  0.00000000000E+00 0. -1.
         11    1    3    3    0    0  0.49653456586E+02  0.53474527836E+01 -0.13216796708E+03  0.14128847272E+03  0.00000000000E+00 0.  1.
        -11    1    4    4    0    0 -0.11289020237E+03 -0.47908607371E+02 -0.38978612071E+03  0.40862287302E+03  0.00000000000E+00 0. -1.
         11    1    4    4    0    0  0.92300124016E+00  0.22921841956E+02 -0.22157522337E+02  0.31893864082E+02  0.00000000000E+00 0.  1.
         21    1    1    2  502  501  0.93838530099E+02  0.28216304036E+02 -0.32305324108E+03  0.33758736072E+03  0.00000000000E+00 0.  1.
<scales pt_clust_5="13000.00000" pt_clust_6="13000.00000" pt_clust_7="13000.00000" pt_clust_8="13000.00000" pt_clust_9="103.56672"></scales>
<clustering>
<clus scale="   91.970">  5  6 -1 -1</clus>
<clus scale="   93.795">  1  5  2 -1</clus>
<clus scale="  103.567">  2  9  1 -1</clus>
<clus scale="  105.813">  7  8 -1 -1</clus>
<clus scale="  103.567">  2  5  1 -1</clus>
</clustering>
</event>
<event>
 9    1  0.2423659E-006  0.9863788E+02  0.7546771E-02  0.1283357E+00
         -1   -1    0    0    0  501 -0.00000000000E+00  0.00000000000E+00  0.11282480323E+03  0.11282480323E+03  0.00000000000E+00 0.  1.
          1   -1    0    0  502    0  0.00000000000E+00 -0.00000000000E+00 -0.24213373602E+03  0.24213373602E+03  0.00000000000E+00 0. -1.
         23    2    1    2    0    0 -0.66244616980E+01  0.69593357425E+02  0.18433388809E+02  0.11773836122E+03  0.92926922849E+02 0.  0.
         23    2    1    2    0    0 -0.18995344251E+02 -0.21477697901E+02 -0.15440074498E+03  0.18230364362E+03  0.92590030871E+02 0.  0.
        -11    1    3    3    0    0 -0.46684434788E+02  0.19067042737E+02 -0.85377720227E+00  0.50435280368E+02  0.00000000000E+00 0. -1.
         11    1    3    3    0    0  0.40059973090E+02  0.50526314688E+02  0.19287166012E+02  0.67303080856E+02  0.00000000000E+00 0.  1.
        -13    1    4    4    0    0  0.97368148381E+01  0.20609045466E+02 -0.35375174275E+01  0.23066259943E+02  0.00000000000E+00 0.  1.
         13    1    4    4    0    0 -0.28732159089E+02 -0.42086743366E+02 -0.15086322755E+03  0.15923738368E+03  0.00000000000E+00 0. -1.
         21    1    1    2  502  501  0.25619805949E+02 -0.48115659524E+02  0.66584233842E+01  0.54916534398E+02  0.00000000000E+00 0. -1.
<scales pt_clust_5="13000.00000" pt_clust_6="13000.00000" pt_clust_7="13000.00000" pt_clust_8="13000.00000" pt_clust_9="54.51139"></scales>
<clustering>
<clus scale="   54.511">  1  9  2 -1</clus>
<clus scale="   92.590">  7  8 -1 -1</clus>
<clus scale="   92.927">  5  6 -1 -1</clus>
<clus scale="   98.321">  2  7  1 -1</clus>
<clus scale="   98.321">  2  5  1 -1</clus>
</clustering>
</event>
<event>
 9    1  0.2423659E-006  0.1033435E+03  0.7546771E-02  0.1274118E+00
         -1   -1    0    0    0  501 -0.00000000000E+00  0.00000000000E+00  0.74356401760E+02  0.74356401760E+02  0.00000000000E+00 0.  1.
          1   -1    0    0  502    0  0.00000000000E+00 -0.00000000000E+00 -0.18708923828E+03  0.18708923828E+03  0.00000000000E+00 0. -1.
         23    2    1    2    0    0  0.56236718880E+02  0.15130390351E+02 -0.40996257662E+02  0.11737375500E+03  0.93297416678E+02 0.  0.
         23    2    1    2    0    0 -0.30017350233E+02 -0.18519388241E+02 -0.59766608781E+02  0.11505084469E+03  0.91764046792E+02 0.  0.
        -11    1    4    4    0    0 -0.31108530303E+02  0.31097962668E+02 -0.10717619838E+02  0.45273516703E+02  0.00000000000E+00 0.  1.
         11    1    4    4    0    0  0.10911800694E+01 -0.49617350908E+02 -0.49048988944E+02  0.69777327991E+02  0.00000000000E+00 0. -1.
        -11    1    3    3    0    0  0.21725790790E+02 -0.39553593803E+02 -0.20261397717E+02  0.49467373143E+02  0.00000000000E+00 0. -1.
         11    1    3    3    0    0  0.34510928090E+02  0.54683984154E+02 -0.20734859945E+02  0.67906381861E+02  0.00000000000E+00 0.  1.
         21    1    1    2  502  501 -0.26219368647E+02  0.33889978898E+01 -0.11969970076E+02  0.29021040343E+02  0.00000000000E+00 0.  1.
<scales pt_clust_5="13000.00000" pt_clust_6="13000.00000" pt_clust_7="13000.00000" pt_clust_8="13000.00000" pt_clust_9="26.43748"></scales>
<clustering>
<clus scale="   26.437">  1  9  2 -1</clus>
<clus scale="   91.764">  5  6 -1 -1</clus>
<clus scale="   93.297">  7  8 -1 -1</clus>
<clus scale="  101.961">  2  5  1 -1</clus>
<clus scale="  101.961">  2  5  1 -1</clus>
</clustering>
</event>
<event>
 9    1  0.2423659E-006  0.2107588E+03  0.7546771E-02  0.1169241E+00
          1   -1    0    0  502    0  0.00000000000E+00  0.00000000000E+00  0.57763877260E+03  0.57763877260E+03  0.00000000000E+00 0. -1.
         -1   -1    0    0    0  501 -0.00000000000E+00 -0.00000000000E+00 -0.16612454408E+03  0.16612454408E+03  0.00000000000E+00 0.  1.
         23    2    1    2    0    0 -0.11497951380E+03 -0.17321363960E+03 -0.30944434903E+02  0.22625902488E+03  0.83739684447E+02 0.  0.
         23    2    1    2    0    0  0.61423645983E+01  0.59104196668E+02  0.21364879477E+03  0.23961862106E+03  0.90775775088E+02 0.  0.
        -11    1    4    4    0    0 -0.39737084794E+02  0.37449735058E+02  0.81840899121E+02  0.98384202659E+02  0.00000000000E+00 0.  1.
         11    1    4    4    0    0  0.45879449392E+02  0.21654461610E+02  0.13180789565E+03  0.14123441840E+03  0.00000000000E+00 0. -1.
        -13    1    3    3    0    0 -0.10480019351E+03 -0.92979084798E+02 -0.12613474450E+01  0.14010632308E+03  0.00000000000E+00 0.  1.
         13    1    3    3    0    0 -0.10179320281E+02 -0.80234554797E+02 -0.29683087458E+02  0.86152701791E+02  0.00000000000E+00 0. -1.
         21    1    1    2  502  501  0.10883714920E+03  0.11410944293E+03  0.22880986865E+03  0.27788567074E+03  0.00000000000E+00 0. -1.
<scales pt_clust_5="13000.00000" pt_clust_6="13000.00000" pt_clust_7="13000.00000" pt_clust_8="13000.00000" pt_clust_9="193.40868"></scales>
<clustering>
<clus scale="   83.740">  7  8 -1 -1</clus>
<clus scale="   90.776">  5  6 -1 -1</clus>
<clus scale="  108.496">  1  5  2 -1</clus>
<clus scale="  193.409">  1  9  2 -1</clus>
<clus scale="  108.496">  1  5  2 -1</clus>
</clustering>
</event>
<event>
 9    1  0.2423659E-006  0.2011367E+03  0.7546771E-02  0.1177413E+00
          2   -1    0    0  502    0  0.00000000000E+00  0.00000000000E+00  0.28398720692E+03  0.28398720692E+03  0.00000000000E+00 0. -1.
         -2   -1    0    0    0  501 -0.00000000000E+00 -0.00000000000E+00 -0.22909589490E+03  0.22909589490E+03  0.00000000000E+00 0.  1.
         23    2    1    2    0    0 -0.11499548760E+03  0.10796375172E+03  0.36212589034E+00  0.18189958108E+03  0.90593557221E+02 0.  0.
         23    2    1    2    0    0 -0.64363248923E+01  0.54872706345E+02  0.73652772846E+02  0.12715629529E+03  0.87701495450E+02 0.  0.
        -13    1    4    4    0    0 -0.44795435982E+02  0.19906252512E+02  0.50316863283E+02  0.70247254071E+02  0.00000000000E+00 0.  1.
         13    1    4    4    0    0  0.38359111090E+02  0.34966453833E+02  0.23335909563E+02  0.56909041218E+02  0.00000000000E+00 0. -1.
        -13    1    3    3    0    0 -0.68719239827E+02  0.11604275291E+03  0.23000158998E+01  0.13488344783E+03  0.00000000000E+00 0.  1.
         13    1    3    3    0    0 -0.46276247769E+02 -0.80790011966E+01 -0.19378900095E+01  0.47016133249E+02  0.00000000000E+00 0. -1.
         21    1    1    2  502  501  0.12143181249E+03 -0.16283645806E+03 -0.19123586713E+02  0.20402722546E+03  0.00000000000E+00 0. -1.
<scales pt_clust_5="13000.00000" pt_clust_6="13000.00000" pt_clust_7="13000.00000" pt_clust_8="13000.00000" pt_clust_9="179.57940"></scales>
<clustering>
<clus scale="   87.701">  5  6 -1 -1</clus>
<clus scale="   90.594">  7  8 -1 -1</clus>
<clus scale="  103.653">  1  5  2 -1</clus>
<clus scale="  179.579">  1  9  2 -1</clus>
<clus scale="  103.653">  1  5  2 -1</clus>
</clustering>
</event>
<event>
 9    1  0.2423659E-006  0.1115747E+03  0.7546771E-02  0.1257698E+00
          1   -1    0    0  502    0  0.00000000000E+00  0.00000000000E+00  0.40280803152E+03  0.40280803152E+03  0.00000000000E+00 0. -1.
         -1   -1    0    0    0  501 -0.00000000000E+00 -0.00000000000E+00 -0.77768174097E+02  0.77768174097E+02  0.00000000000E+00 0.  1.
         23    2    1    2    0    0 -0.58119326153E+02 -0.51987758693E+02  0.79883058938E+01  0.12033391980E+03  0.91300909619E+02 0.  0.
         23    2    1    2    0    0  0.61762448673E+02  0.12986172233E+02  0.29519696228E+03  0.31538674927E+03  0.91347218542E+02 0.  0.
        -13    1    3    3    0    0 -0.64071425334E+02 -0.90619124368E+00 -0.11939649047E+02  0.65180702254E+02  0.00000000000E+00 0.  1.
         13    1    3    3    0    0  0.59520991817E+01 -0.51081567449E+02  0.19927954940E+02  0.55153217547E+02  0.00000000000E+00 0. -1.
        -13    1    4    4    0    0  0.34714729630E+02 -0.22072939982E+02  0.24508801820E+03  0.24851652621E+03  0.00000000000E+00 0. -1.
         13    1    4    4    0    0  0.27047719043E+02  0.35059112216E+02  0.50108944085E+02  0.66870223060E+02  0.00000000000E+00 0.  1.
         21    1    1    2  502  501 -0.36431225203E+01  0.39001586459E+02  0.21854589243E+02  0.44855536548E+02  0.00000000000E+00 0.  1.
<scales pt_clust_5="13000.00000" pt_clust_6="13000.00000" pt_clust_7="13000.00000" pt_clust_8="13000.00000" pt_clust_9="39.17137"></scales>
<clustering>
<clus scale="   39.171">  2  9  1 -1</clus>
<clus scale="   91.301">  5  6 -1 -1</clus>
<clus scale="   91.347">  7  8 -1 -1</clus>
<clus scale="  111.537">  2  5  1 -1</clus>
<clus scale="  111.575">  1  5  2 -1</clus>
</clustering>
</event>
<event>
 9    1  0.2423659E-006  0.9276400E+02  0.7546771E-02  0.1302054E+00
          2   -1    0    0  502    0  0.00000000000E+00  0.00000000000E+00  0.13117219417E+03  0.13117219417E+03  0.00000000000E+00 0. -1.
         -2   -1    0    0    0  501 -0.00000000000E+00 -0.00000000000E+00 -0.11740806107E+03  0.11740806107E+03  0.00000000000E+00 0.  1.
         23    2    1    2    0    0 -0.22409335889E+02  0.27261752979E+02  0.78323607924E+01  0.87679000666E+02  0.79880409186E+02 0.  0.
         23    2    1    2    0    0 -0.36274794013E+02 -0.18761319604E+02  0.18724849882E+02  0.10024033384E+03  0.89608351906E+02 0.  0.
        -11    1    3    3    0    0 -0.48484773960E+02  0.32453802610E+02 -0.42015409367E+01  0.58495090017E+02  0.00000000000E+00 0. -1.
         11    1    3    3    0    0  0.26075438071E+02 -0.51920496315E+01  0.12033901729E+02  0.29183910650E+02  0.00000000000E+00 0.  1.
        -13    1    4    4    0    0 -0.82872741221E+01  0.22086457353E+02 -0.24862488117E+02  0.34272931391E+02  0.00000000000E+00 0.  1.
         13    1    4    4    0    0 -0.27987519891E+02 -0.40847776957E+02  0.43587338000E+02  0.65967402449E+02  0.00000000000E+00 0. -1.
         21    1    1    2  502  501  0.58684129901E+02 -0.85004333750E+01 -0.12793077572E+02  0.60660920728E+02  0.00000000000E+00 0.  1.
<scales pt_clust_5="13000.00000" pt_clust_6="13000.00000" pt_clust_7="13000.00000" pt_clust_8="13000.00000" pt_clust_9="59.29658"></scales>
<clustering>
<clus scale="   59.297">  2  9  1 -1</clus>
<clus scale="   79.880">  5  6 -1 -1</clus>
<clus scale="   83.405">  2  5  1 -1</clus>
<clus scale="   89.608">  7  8 -1 -1</clus>
<clus scale="   92.764">  1  5  2 -1</clus>
</clustering>
</event>
<event>
 9    1  0.2423659E-006  0.1270309E+03  0.7546771E-02  0.1232204E+00
         -1   -1    0    0    0  501 -0.00000000000E+00  0.00000000000E+00  0.34835214527E+03  0.34835214527E+03  0.00000000000E+00 0.  1.
          1   -1    0    0  502    0  0.00000000000E+00 -0.00000000000E+00 -0.10911492892E+03  0.10911492892E+03  0.00000000000E+00 0. -1.
         23    2    1    2    0    0 -0.85380148312E+02 -0.12902116657E+03  0.11902169675E+03  0.21548664295E+03  0.91280325606E+02 0.  0.
         23    2    1    2    0    0  0.20420504882E+02  0.49589900927E+02  0.51599797012E+02  0.11854138303E+03  0.92267898777E+02 0.  0.
        -11    1    4    4    0    0  0.16808512947E+02 -0.20742957828E+02  0.38588364526E+02  0.46923962788E+02  0.00000000000E+00 0.  1.
         11    1    4    4    0    0  0.36119919351E+01  0.70332858755E+02  0.13011432486E+02  0.71617420239E+02  0.00000000000E+00 0. -1.
        -13    1    3    3    0    0 -0.17610395206E+02  0.11815006017E+02  0.26204250785E+02  0.33710282492E+02  0.00000000000E+00 0. -1.
         13    1    3    3    0    0 -0.67769753107E+02 -0.14083617259E+03  0.92817445966E+02  0.18177636046E+03  0.00000000000E+00 0.  1.
         21    1    1    2  502  501  0.64959643430E+02  0.79431265643E+02  0.68615722591E+02  0.12343904821E+03  0.00000000000E+00 0. -1.
<scales pt_clust_5="13000.00000" pt_clust_6="13000.00000" pt_clust_7="13000.00000" pt_clust_8="13000.00000" pt_clust_9="102.61131"></scales>
<clustering>
<clus scale="   91.280">  7  8 -1 -1</clus>
<clus scale="   92.268">  5  6 -1 -1</clus>
<clus scale="  102.611">  1  9  2 -1</clus>
<clus scale="  126.315">  1  7  2 -1</clus>
<clus scale="  127.031">  2  5  1 -1</clus>
</clustering>
</event>
<event>
 9    1  0.2423659E-006  0.1023346E+03  0.7546771E-02  0.1277694E+00
         -2   -1    0    0    0  501 -0.00000000000E+00  0.00000000000E+00  0.10461594043E+03  0.10461594043E+03  0.00000000000E+00 0.  1.
          2   -1    0    0  502    0  0.00000000000E+00 -0.00000000000E+00 -0.44281927814E+03  0.44281927814E+03  0.00000000000E+00 0. -1.
         23    2    1    2    0    0 -0.43248976927E+01  0.30981151345E+02  0.39000909336E+02  0.10484850790E+03  0.92160741105E+02 0.  0.
         23    2    1    2    0    0 -0.73741871974E+02 -0.37009132008E+02 -0.12410772769E+03  0.17765538903E+03  0.96701445918E+02 0.  0.
        -11    1    3    3    0    0  0.19697247085E+02  0.57899055455E+02  0.26684991271E+02  0.66726088785E+02  0.00000000000E+00 0.  1.
         11    1    3    3    0    0 -0.24022144778E+02 -0.26917904110E+02  0.12315918066E+02  0.38122419116E+02  0.00000000000E+00 0. -1.
        -13    1    4    4    0    0 -0.54469276121E+02 -0.69614491127E+02 -0.95959454166E+02  0.13046568997E+03  0.00000000000E+00 0. -1.
         13    1    4    4    0    0 -0.19272595853E+02  0.32605359120E+02 -0.28148273528E+02  0.47189699054E+02  0.00000000000E+00 0.  1.
         21    1    1    2  502  501  0.78066769667E+02  0.60279806628E+01 -0.25309651935E+03  0.26493132164E+03  0.00000000000E+00 0. -1.
<scales pt_clust_5="13000.00000" pt_clust_6="13000.00000" pt_clust_7="13000.00000" pt_clust_8="13000.00000" pt_clust_9="78.29915"></scales>
<clustering>
<clus scale="   78.299">  2  9  1 -1</clus>
<clus scale="   92.161">  5  6 -1 -1</clus>
<clus scale="   96.701">  7  8 -1 -1</clus>
<clus scale="   98.055">  1  5  2 -1</clus>
<clus scale="   78.299">  2  5  1 -1</clus>
</clustering>
</event>
<event>
 9    1  0.2423659E-006  0.2809586E+03  0.7546771E-02  0.1116398E+00
          2   -1    0    0  502    0  0.00000000000E+00  0.00000000000E+00  0.20311562724E+04  0.20311562724E+04  0.00000000000E+00 0. -1.
         -2   -1    0    0    0  501 -0.00000000000E+00 -0.00000000000E+00 -0.89885822899E+02  0.89885822899E+02  0.00000000000E+00 0.  1.
         23    2    1    2    0    0 -0.10499586887E+03  0.84309746650E+02  0.26760697392E+03  0.31328809752E+03  0.91671553351E+02 0.  0.
         23    2    1    2    0    0 -0.92414296164E+02  0.13219331101E+03  0.10619210690E+03  0.21313465798E+03  0.90189496364E+02 0.  0.
        -13    1    4    4    0    0  0.21719447035E+01  0.40267872833E+02  0.62134709656E+02  0.74073889261E+02  0.00000000000E+00 0. -1.
         13    1    4    4    0    0 -0.94586240868E+02  0.91925438175E+02  0.44057397243E+02  0.13906076872E+03  0.00000000000E+00 0.  1.
        -13    1    3    3    0    0 -0.92123346821E+02  0.20877207541E+02  0.12497137789E+03  0.15665380339E+03  0.00000000000E+00 0. -1.
         13    1    3    3    0    0 -0.12872522048E+02  0.63432539109E+02  0.14263559603E+03  0.15663429413E+03  0.00000000000E+00 0.  1.
         21    1    1    2  502  501  0.19741016503E+03 -0.21650305766E+03  0.15674713687E+04  0.15946193398E+04  0.00000000000E+00 0. -1.
<scales pt_clust_5="13000.00000" pt_clust_6="13000.00000" pt_clust_7="13000.00000" pt_clust_8="13000.00000" pt_clust_9="266.08941"></scales>
<clustering>
<clus scale="   90.189">  5  6 -1 -1</clus>
<clus scale="   91.672">  7  8 -1 -1</clus>
<clus scale="  162.899">  2  7  1 -1</clus>
<clus scale="  266.089">  1  9  2 -1</clus>
<clus scale="  266.089">  1  5  2 -1</clus>
</clustering>
</event>
<event>
 9    1  0.2423659E-006  0.1668934E+03  0.7546771E-02  0.1201577E+00
          1   -1    0    0  502    0  0.00000000000E+00  0.00000000000E+00  0.48826301391E+03  0.48826301391E+03  0.00000000000E+00 0. -1.
         -1   -1    0    0    0  501 -0.00000000000E+00 -0.00000000000E+00 -0.15092952238E+03  0.15092952238E+03  0.00000000000E+00 0.  1.
         23    2    1    2    0    0  0.41273074452E+02 -0.10656475252E+03  0.48285870918E+02  0.15373799852E+03  0.90798313336E+02 0.  0.
         23    2    1    2    0    0  0.18161316872E+02 -0.39632542205E+02  0.30862536903E+03  0.32642817488E+03  0.96980220229E+02 0.  0.
        -11    1    3    3    0    0  0.24005462502E+02  0.81662207650E+01  0.24586387068E+02  0.35319114097E+02  0.00000000000E+00 0.  1.
         11    1    3    3    0    0  0.17267611950E+02 -0.11473097329E+03  0.23699483850E+02  0.11841888443E+03  0.00000000000E+00 0. -1.
        -13    1    4    4    0    0  0.43788309430E+02  0.71463475360E+01  0.78195868395E+02  0.89905951749E+02  0.00000000000E+00 0.  1.
         13    1    4    4    0    0 -0.25626992558E+02 -0.46778889741E+02  0.23042950063E+03  0.23652222313E+03  0.00000000000E+00 0. -1.
         21    1    1    2  502  501 -0.59434391324E+02  0.14619729473E+03 -0.19577748413E+02  0.15902636288E+03  0.00000000000E+00 0.  1.
<scales pt_clust_5="13000.00000" pt_clust_6="13000.00000" pt_clust_7="13000.00000" pt_clust_8="13000.00000" pt_clust_9="140.03238"></scales>
<clustering>
<clus scale="   90.798">  5  6 -1 -1</clus>
<clus scale="   96.980">  7  8 -1 -1</clus>
<clus scale="  106.328">  1  7  2 -1</clus>
<clus scale="  140.032">  2  9  1 -1</clus>
<clus scale="  106.328">  1  5  2 -1</clus>
</clustering>
</event>
<event>
 9    1  0.2423659E-006  0.1518364E+03  0.7546771E-02  0.1198432E+00
          3   -1    0    0  502    0  0.00000000000E+00  0.00000000000E+00  0.66513394283E+03  0.66513394283E+03  0.00000000000E+00 0. -1.
         -3   -1    0    0    0  501 -0.00000000000E+00 -0.00000000000E+00 -0.10164401289E+03  0.10164401289E+03  0.00000000000E+00 0.  1.
         23    2    1    2    0    0 -0.83619208313E+02  0.71546749423E+02  0.40981359910E+02  0.14824663103E+03  0.90479182140E+02 0.  0.
         23    2    1    2    0    0  0.12898648161E+03  0.57890838129E+02  0.40234383061E+03  0.43618044545E+03  0.91563974278E+02 0.  0.
        -11    1    3    3    0    0 -0.10174824710E+03  0.52042875596E+02  0.24348098166E+02  0.11685031695E+03  0.00000000000E+00 0. -1.
         11    1    3    3    0    0  0.18129038785E+02  0.19503873827E+02  0.16633261745E+02  0.31396314080E+02  0.00000000000E+00 0.  1.
        -13    1    4    4    0    0  0.11822883760E+03  0.94274067772E+01  0.27386076887E+03  0.29844037053E+03  0.00000000000E+00 0.  1.
         13    1    4    4    0    0  0.10757644002E+02  0.48463431351E+02  0.12848306174E+03  0.13774007491E+03  0.00000000000E+00 0. -1.
         21    1    1    2  502  501 -0.45367273293E+02 -0.12943758755E+03  0.12016473943E+03  0.18235087924E+03  0.00000000000E+00 0. -1.
<scales pt_clust_5="13000.00000" pt_clust_6="13000.00000" pt_clust_7="13000.00000" pt_clust_8="13000.00000" pt_clust_9="137.15786"></scales>
<clustering>
<clus scale="   90.479">  5  6 -1 -1</clus>
<clus scale="   91.564">  7  8 -1 -1</clus>
<clus scale="  137.158">  2  9  1 -1</clus>
<clus scale="  151.185">  2  5  1 -1</clus>
<clus scale="  151.836">  1  5  2 -1</clus>
</clustering>
</event>
<event>
 9    1  0.2423659E-006  0.9761848E+02  0.7546771E-02  0.1285678E+00
         -3   -1    0    0    0  501 -0.00000000000E+00  0.00000000000E+00  0.64673385829E+03  0.64673385829E+03  0.00000000000E+00 0.  1.
          3   -1    0    0  502    0  0.00000000000E+00 -0.00000000000E+00 -0.20175970985E+02  0.20175970985E+02  0.00000000000E+00 0. -1.
         23    2    1    2    0    0 -0.36161175608E+02 -0.19933389334E+02  0.32095299865E+03  0.33669805025E+03  0.93004188477E+02 0.  0.
         23    2    1    2    0    0  0.13504642074E+02  0.34308317309E+01  0.26008510381E+03  0.27675428439E+03  0.93565627992E+02 0.  0.
        -13    1    3    3    0    0 -0.51824398895E+02 -0.45515843842E+02  0.18411406306E+03  0.19660988932E+03  0.00000000000E+00 0.  1.
         13    1    3    3    0    0  0.15663223287E+02  0.25582454508E+02  0.13683893558E+03  0.14008816093E+03  0.00000000000E+00 0. -1.
        -13    1    4    4    0    0  0.51158372946E+02  0.50696430759E+01  0.10180574854E+03  0.11404951047E+03  0.00000000000E+00 0.  1.
         13    1    4    4    0    0 -0.37653730872E+02 -0.16388113450E+01  0.15827935527E+03  0.16270477392E+03  0.00000000000E+00 0. -1.
         21    1    1    2  502  501  0.22656533534E+02  0.16502557603E+02  0.45519784852E+02  0.53457494631E+02  0.00000000000E+00 0.  1.
<scales pt_clust_5="13000.00000" pt_clust_6="13000.00000" pt_clust_7="13000.00000" pt_clust_8="13000.00000" pt_clust_9="28.02950"></scales>
<clustering>
<clus scale="   28.030">  2  9  1 -1</clus>
<clus scale="   93.004">  5  6 -1 -1</clus>
<clus scale="   93.566">  7  8 -1 -1</clus>
<clus scale="   97.080">  1  5  2 -1</clus>
<clus scale="   28.030">  2  5  1 -1</clus>
</clustering>
</event>
<event>
 9    1  0.2423659E-006  0.1648902E+03  0.7546771E-02  0.1183326E+00
          2   -1    0    0  502    0  0.00000000000E+00  0.00000000000E+00  0.25495207731E+03  0.25495207731E+03  0.00000000000E+00 0. -1.
         -2   -1    0    0    0  501 -0.00000000000E+00 -0.00000000000E+00 -0.18151922226E+03  0.18151922226E+03  0.00000000000E+00 0.  1.
         23    2    1    2    0    0 -0.11014281263E+03  0.21378897804E+02 -0.69498448268E+01  0.14510267872E+03  0.91749608084E+02 0.  0.
         23    2    1    2    0    0  0.18288841936E+03 -0.12216722099E+02  0.44030024489E+02  0.20953106364E+03  0.91472407515E+02 0.  0.
        -11    1    3    3    0    0  0.13545828362E+02  0.14868128528E+02 -0.68339927844E+01  0.21242743922E+02  0.00000000000E+00 0.  1.
         11    1    3    3    0    0 -0.12368864099E+03  0.65107692762E+01 -0.11585204244E+00  0.12385993480E+03  0.00000000000E+00 0. -1.
        -11    1    4    4    0    0  0.88350650737E+02  0.16360018319E+01 -0.24792406329E+02  0.91777869877E+02  0.00000000000E+00 0. -1.
         11    1    4    4    0    0  0.94537768626E+02 -0.13852723931E+02  0.68822430818E+02  0.11775319376E+03  0.00000000000E+00 0.  1.
         21    1    1    2  502  501 -0.72745606737E+02 -0.91621757045E+01  0.36352675388E+02  0.81837557216E+02  0.00000000000E+00 0. -1.
<scales pt_clust_5="13000.00000" pt_clust_6="13000.00000" pt_clust_7="13000.00000" pt_clust_8="13000.00000" pt_clust_9="73.32032"></scales>
<clustering>
<clus scale="   73.320">  1  9  2 -1</clus>
<clus scale="   91.472">  7  8 -1 -1</clus>
<clus scale="   91.750">  5  6 -1 -1</clus>
<clus scale="  164.736">  1  7  2 -1</clus>
<clus scale="   73.320">  1  5  2 -1</clus>
</clustering>
</event>
<event>
 9    1  0.2423659E-006  0.1037198E+03  0.7546771E-02  0.1273903E+00
          1   -1    0    0  502    0  0.00000000000E+00  0.00000000000E+00  0.87465026380E+03  0.87465026380E+03  0.00000000000E+00 0. -1.
         -1   -1    0    0    0  501 -0.00000000000E+00 -0.00000000000E+00 -0.28439611087E+02  0.28439611087E+02  0.00000000000E+00 0.  1.
         23    2    1    2    0    0 -0.43052193510E+02  0.24572556647E+02  0.13494241176E+03  0.17273462775E+03  0.95762702701E+02 0.  0.
         23    2    1    2    0    0 -0.15878395737E+02 -0.41932246934E+02  0.40418799875E+03  0.41719003778E+03  0.93108283755E+02 0.  0.
        -11    1    3    3    0    0  0.10526067234E+02  0.38944603784E+02  0.19827697546E+02  0.44951283022E+02  0.00000000000E+00 0. -1.
         11    1    3    3    0    0 -0.53578260744E+02 -0.14372047138E+02  0.11511471421E+03  0.12778334473E+03  0.00000000000E+00 0.  1.
        -13    1    4    4    0    0 -0.73723266911E+01 -0.70693518836E+02  0.32058903246E+03  0.32837364775E+03  0.00000000000E+00 0. -1.
         13    1    4    4    0    0 -0.85060690459E+01  0.28761271902E+02  0.83598966291E+02  0.88816390025E+02  0.00000000000E+00 0.  1.
         21    1    1    2  502  501  0.58930589247E+02  0.17359690287E+02  0.30708024221E+03  0.31316520935E+03  0.00000000000E+00 0. -1.
<scales pt_clust_5="13000.00000" pt_clust_6="13000.00000" pt_clust_7="13000.00000" pt_clust_8="13000.00000" pt_clust_9="61.43430"></scales>
<clustering>
<clus scale="   61.434">  1  9  2 -1</clus>
<clus scale="   93.108">  7  8 -1 -1</clus>
<clus scale="   95.763">  5  6 -1 -1</clus>
<clus scale="  101.274">  1  7  2 -1</clus>
<clus scale="   61.434">  1  5  2 -1</clus>
</clustering>
</event>
<event>
 9    1  0.2423659E-006  0.1498234E+03  0.7546771E-02  0.1223088E+00
         -4   -1    0    0    0  501 -0.00000000000E+00  0.00000000000E+00  0.59749093384E+03  0.59749093384E+03  0.00000000000E+00 0.  1.
          4   -1    0    0  502    0  0.00000000000E+00 -0.00000000000E+00 -0.71322863281E+02  0.71322863281E+02  0.00000000000E+00 0. -1.
         23    2    1    2    0    0  0.10781656151E+03 -0.72594315966E+02  0.14455724717E+03  0.21217940209E+03  0.85023263366E+02 0.  0.
         23    2    1    2    0    0  0.79360577268E+01  0.33140698786E+02  0.55405421518E+02  0.10825927971E+03  0.86539147108E+02 0.  0.
        -13    1    4    4    0    0  0.28540663111E+02  0.55465130581E+02  0.33485238830E+02  0.70796972962E+02  0.00000000000E+00 0.  1.
         13    1    4    4    0    0 -0.20604605384E+02 -0.22324431795E+02  0.21920182688E+02  0.37462306751E+02  0.00000000000E+00 0. -1.
        -13    1    3    3    0    0  0.97032471715E+02 -0.22418461096E+02  0.70253959085E+02  0.12187496352E+03  0.00000000000E+00 0. -1.
         13    1    3    3    0    0  0.10784089792E+02 -0.50175854871E+02  0.74303288089E+02  0.90304438570E+02  0.00000000000E+00 0.  1.
         21    1    1    2  502  501 -0.11575261923E+03  0.39453617181E+02  0.32620540187E+03  0.34837511532E+03  0.00000000000E+00 0.  1.
<scales pt_clust_5="13000.00000" pt_clust_6="13000.00000" pt_clust_7="13000.00000" pt_clust_8="13000.00000" pt_clust_9="123.36162"></scales>
<clustering>
<clus scale="   85.023">  7  8 -1 -1</clus>
<clus scale="   86.539">  5  6 -1 -1</clus>
<clus scale="   93.007">  2  5  1 -1</clus>
<clus scale="  123.362">  1  9  2 -1</clus>
<clus scale="   93.007">  2  5  1 -1</clus>
</clustering>
</event>
<event>
 9    1  0.2423659E-006  0.1008906E+03  0.7546771E-02  0.1280827E+00
         -1   -1    0    0    0  501 -0.00000000000E+00  0.00000000000E+00  0.37678160955E+02  0.37678160955E+02  0.00000000000E+00 0.  1.
          1   -1    0    0  502    0  0.00000000000E+00 -0.00000000000E+00 -0.57672053147E+03  0.57672053147E+03  0.00000000000E+00 0. -1.
         23    2    1    2    0    0 -0.67889128910E+01  0.18459392598E+02 -0.57797670204E+02  0.10842156119E+03  0.89598134665E+02 0.  0.
         23    2    1    2    0    0  0.20993225984E+02 -0.32954518385E+02 -0.47326486155E+03  0.48417004504E+03  0.94415504620E+02 0.  0.
        -11    1    3    3    0    0 -0.21591414888E+02  0.51236314463E+02 -0.31878252969E+02  0.64090343492E+02  0.00000000000E+00 0.  1.
         11    1    3    3    0    0  0.14802501997E+02 -0.32776921865E+02 -0.25919417235E+02  0.44331217693E+02  0.00000000000E+00 0. -1.
        -11    1    4    4    0    0 -0.35134417629E+02 -0.51614532681E+01 -0.11134482210E+03  0.11687060071E+03  0.00000000000E+00 0.  1.
         11    1    4    4    0    0  0.56127643613E+02 -0.27793065117E+02 -0.36192003945E+03  0.36729944432E+03  0.00000000000E+00 0. -1.
         21    1    1    2  502  501 -0.14204313093E+02  0.14495125787E+02 -0.79798387595E+01  0.21807086203E+02  0.00000000000E+00 0.  1.
<scales pt_clust_5="13000.00000" pt_clust_6="13000.00000" pt_clust_7="13000.00000" pt_clust_8="13000.00000" pt_clust_9="20.29461"></scales>
<clustering>
<clus scale="   20.295">  1  9  2 -1</clus>
<clus scale="   89.598">  5  6 -1 -1</clus>
<clus scale="   94.416">  7  8 -1 -1</clus>
<clus scale="   96.397">  1  5  2 -1</clus>
<clus scale="  100.891">  2  5  1 -1</clus>
</clustering>
</event>
<event>
 9    1  0.2423659E-006  0.9755026E+02  0.7546771E-02  0.1286619E+00
          4   -1    0    0  502    0  0.00000000000E+00  0.00000000000E+00  0.32897665526E+03  0.32897665526E+03  0.00000000000E+00 0. -1.
         -4   -1    0    0    0  501 -0.00000000000E+00 -0.00000000000E+00 -0.85585274929E+02  0.85585274929E+02  0.00000000000E+00 0.  1.
         23    2    1    2    0    0  0.37094593628E+01  0.56208526440E+02  0.15368636930E+02  0.10832750560E+03  0.91244150139E+02 0.  0.
         23    2    1    2    0    0  0.38789927674E+02  0.28596345775E+02  0.87520716304E+02  0.13670895787E+03  0.93311595731E+02 0.  0.
        -11    1    3    3    0    0  0.34604971089E+02 -0.79882628730E+01  0.99234675101E+01  0.36875351866E+02  0.00000000000E+00 0. -1.
         11    1    3    3    0    0 -0.30895511726E+02  0.64196789313E+02  0.54451694196E+01  0.71452153732E+02  0.00000000000E+00 0.  1.
        -11    1    4    4    0    0  0.60834755677E+01  0.59626893019E+02  0.49765547140E+02  0.77903688797E+02  0.00000000000E+00 0.  1.
         11    1    4    4    0    0  0.32706452106E+02 -0.31030547244E+02  0.37755169164E+02  0.58805269069E+02  0.00000000000E+00 0. -1.
         21    1    1    2  502  501 -0.42499387037E+02 -0.84804872215E+02  0.14050202710E+03  0.16952546673E+03  0.00000000000E+00 0. -1.
<scales pt_clust_5="13000.00000" pt_clust_6="13000.00000" pt_clust_7="13000.00000" pt_clust_8="13000.00000" pt_clust_9="94.85813"></scales>
<clustering>
<clus scale="   91.244">  5  6 -1 -1</clus>
<clus scale="   93.312">  7  8 -1 -1</clus>
<clus scale="   94.858">  1  9  2 -1</clus>
<clus scale="   95.575">  2  5  1 -1</clus>
<clus scale="   94.858">  1  5  2 -1</clus>
</clustering>
</event>
<event>
 9    1  0.2423659E-006  0.1494319E+03  0.7546771E-02  0.1201629E+00
         -1   -1    0    0    0  501 -0.00000000000E+00  0.00000000000E+00  0.38872372152E+03  0.38872372152E+03  0.00000000000E+00 0.  1.
          1   -1    0    0  502    0  0.00000000000E+00 -0.00000000000E+00 -0.83257050250E+03  0.83257050250E+03  0.00000000000E+00 0. -1.
         23    2    1    2    0    0 -0.16115572789E+03 -0.29203181813E+02 -0.34582831869E+03  0.39359994598E+03  0.92193801342E+02 0.  0.
         23    2    1    2    0    0  0.97869476866E+02  0.14092036420E+02 -0.45017819072E+03  0.46957422747E+03  0.89791601567E+02 0.  0.
        -11    1    3    3    0    0 -0.64661468003E+02 -0.74533501620E+00 -0.23582534624E+03  0.24453068294E+03  0.00000000000E+00 0. -1.
         11    1    3    3    0    0 -0.96494259891E+02 -0.28457846797E+02 -0.11000297245E+03  0.14906926305E+03  0.00000000000E+00 0.  1.
        -11    1    4    4    0    0  0.36612093368E+02 -0.30950254809E+02 -0.95742857476E+02  0.10707501301E+03  0.00000000000E+00 0.  1.
         11    1    4    4    0    0  0.61257383498E+02  0.45042291229E+02 -0.35443533325E+03  0.36249921446E+03  0.00000000000E+00 0. -1.
         21    1    1    2  502  501  0.63286251028E+02  0.15111145393E+02  0.35215972844E+03  0.35812005057E+03  0.00000000000E+00 0.  1.
<scales pt_clust_5="13000.00000" pt_clust_6="13000.00000" pt_clust_7="13000.00000" pt_clust_8="13000.00000" pt_clust_9="65.06532"></scales>
<clustering>
<clus scale="   65.065">  1  9  2 -1</clus>
<clus scale="   89.792">  7  8 -1 -1</clus>
<clus scale="   92.194">  5  6 -1 -1</clus>
<clus scale="  147.962">  2  7  1 -1</clus>
<clus scale="  147.962">  2  5  1 -1</clus>
</clustering>
</event>
<event>
 9    1  0.2423659E-006  0.1664063E+03  0.7546771E-02  0.1207366E+00
         -1   -1    0    0    0  501 -0.00000000000E+00  0.00000000000E+00  0.26062567721E+03  0.26062567721E+03  0.00000000000E+00 0.  1.
          1   -1    0    0  502    0  0.00000000000E+00 -0.00000000000E+00 -0.19829452160E+03  0.19829452160E+03  0.00000000000E+00 0. -1.
         23    2    1    2    0    0 -0.71933673896E+02  0.11354345789E+03  0.11389311311E+03  0.19794050129E+03  0.90234309274E+02 0.  0.
         23    2    1    2    0    0  0.19506887824E+02  0.34207030917E+02  0.36841477536E+01  0.94754227199E+02  0.86105464348E+02 0.  0.
        -11    1    3    3    0    0 -0.82487474116E+02  0.48604450264E+02  0.60993496384E+02  0.11351996552E+03  0.00000000000E+00 0.  1.
         11    1    3    3    0    0  0.10553800221E+02  0.64939007621E+02  0.52899616722E+02  0.84420535768E+02  0.00000000000E+00 0. -1.
        -11    1    4    4    0    0  0.31956150004E+02  0.58478994863E+02 -0.28590011460E+01  0.66702040829E+02  0.00000000000E+00 0.  1.
         11    1    4    4    0    0 -0.12449262180E+02 -0.24271963945E+02  0.65431488996E+01  0.28052186370E+02  0.00000000000E+00 0. -1.
         21    1    1    2  502  501  0.52426786072E+02 -0.14775048880E+03 -0.55246105247E+02  0.16622547032E+03  0.00000000000E+00 0. -1.
<scales pt_clust_5="13000.00000" pt_clust_6="13000.00000" pt_clust_7="13000.00000" pt_clust_8="13000.00000" pt_clust_9="139.81714"></scales>
<clustering>
<clus scale="   86.105">  7  8 -1 -1</clus>
<clus scale="   90.234">  5  6 -1 -1</clus>
<clus scale="   94.683">  2  7  1 -1</clus>
<clus scale="  139.817">  2  9  1 -1</clus>
<clus scale="   94.683">  2  5  1 -1</clus>
</clustering>
</event>
<event>
 9    1  0.2423659E-006  0.1805362E+03  0.7546771E-02  0.1187373E+00
         -1   -1    0    0    0  501 -0.00000000000E+00  0.00000000000E+00  0.33685154474E+03  0.33685154474E+03  0.00000000000E+00 0.  1.
          1   -1    0    0  502    0  0.00000000000E+00 -0.00000000000E+00 -0.41216262577E+03  0.41216262577E+03  0.00000000000E+00 0. -1.
         23    2    1    2    0    0 -0.53388536590E+02  0.43255345112E+02  0.88417681446E+02  0.14481586405E+03  0.91829120478E+02 0.  0.
         23    2    1    2    0    0 -0.94304384031E+02  0.23788576554E+02  0.18044505854E+03  0.22372004780E+03  0.89615999755E+02 0.  0.
        -11    1    4    4    0    0 -0.76502754498E+02 -0.39945222827E+01  0.17397532008E+03  0.19009481753E+03  0.00000000000E+00 0.  1.
         11    1    4    4    0    0 -0.17801629533E+02  0.27783098836E+02  0.64697384643E+01  0.33625230271E+02  0.00000000000E+00 0. -1.
        -13    1    3    3    0    0  0.23946573535E+02  0.15562252538E+02  0.41006474284E+02  0.49971522103E+02  0.00000000000E+00 0. -1.
         13    1    3    3    0    0 -0.77335110125E+02  0.27693092574E+02  0.47411207163E+02  0.94844341945E+02  0.00000000000E+00 0.  1.
         21    1    1    2  502  501  0.14769292062E+03 -0.67043921666E+02 -0.34417382103E+03  0.38047825866E+03  0.00000000000E+00 0. -1.
<scales pt_clust_5="13000.00000" pt_clust_6="13000.00000" pt_clust_7="13000.00000" pt_clust_8="13000.00000" pt_clust_9="156.72363"></scales>
<clustering>
<clus scale="   89.616">  5  6 -1 -1</clus>
<clus scale="   91.829">  7  8 -1 -1</clus>
<clus scale="  114.691">  1  7  2 -1</clus>
<clus scale="  156.724">  2  9  1 -1</clus>
<clus scale="  156.724">  2  5  1 -1</clus>
</clustering>
</event>
<event>
 9    1  0.2423659E-006  0.1350884E+03  0.7546771E-02  0.1220266E+00
          2   -1    0    0  502    0  0.00000000000E+00  0.00000000000E+00  0.66241009192E+03  0.66241009192E+03  0.00000000000E+00 0. -1.
         -2   -1    0    0    0  501 -0.00000000000E+00 -0.00000000000E+00 -0.39252055972E+02  0.39252055972E+02  0.00000000000E+00 0.  1.
         23    2    1    2    0    0  0.10207915133E+03  0.27227866781E+02  0.29054430027E+03  0.32244211216E+03  0.91604669180E+02 0.  0.
         23    2    1    2    0    0 -0.94699966182E+02 -0.76905378428E+01  0.33332849373E+03  0.35832337393E+03  0.90887444710E+02 0.  0.
        -11    1    3    3    0    0  0.33700227678E+02  0.33555723136E+02  0.38432841799E+02  0.61145525016E+02  0.00000000000E+00 0.  1.
         11    1    3    3    0    0  0.68378923649E+02 -0.63278563553E+01  0.25211145847E+03  0.26129658715E+03  0.00000000000E+00 0. -1.
        -13    1    4    4    0    0 -0.77283060016E+02 -0.37079711434E+02  0.29394220083E+03  0.30618555452E+03  0.00000000000E+00 0. -1.
         13    1    4    4    0    0 -0.17416906166E+02  0.29389173592E+02  0.39386292892E+02  0.52137819407E+02  0.00000000000E+00 0.  1.
         21    1    1    2  502  501 -0.73791851445E+01 -0.19537328938E+02 -0.71475803977E+00  0.20896661803E+02  0.00000000000E+00 0.  1.
<scales pt_clust_5="13000.00000" pt_clust_6="13000.00000" pt_clust_7="13000.00000" pt_clust_8="13000.00000" pt_clust_9="20.88443"></scales>
<clustering>
<clus scale="   20.884">  2  9  1 -1</clus>
<clus scale="   90.887">  7  8 -1 -1</clus>
<clus scale="   91.605">  5  6 -1 -1</clus>
<clus scale="  134.603">  1  7  2 -1</clus>
<clus scale="  134.603">  1  5  2 -1</clus>
</clustering>
</event>
<event>
 9    1  0.2423659E-006  0.9501041E+02  0.7546771E-02  0.1296090E+00
          1   -1    0    0  502    0  0.00000000000E+00  0.00000000000E+00  0.13056341434E+03  0.13056341434E+03  0.00000000000E+00 0. -1.
         -1   -1    0    0    0  501 -0.00000000000E+00 -0.00000000000E+00 -0.99225693840E+02  0.99225693840E+02  0.00000000000E+00 0.  1.
         23    2    1    2    0    0  0.14003902024E+02  0.22434696501E+02 -0.19686058964E+02  0.91902950957E+02  0.85785701595E+02 0.  0.
         23    2    1    2    0    0  0.97871837490E+01 -0.70858923641E+01  0.54263453572E+02  0.10938884088E+03  0.94209326923E+02 0.  0.
        -11    1    4    4    0    0 -0.93378292753E+01 -0.21373932231E+02 -0.20409059917E+02  0.30993059889E+02  0.00000000000E+00 0.  1.
         11    1    4    4    0    0  0.19125013024E+02  0.14288039866E+02  0.74672513490E+02  0.78395780991E+02  0.00000000000E+00 0. -1.
        -13    1    3    3    0    0  0.48004113227E+02  0.11818863598E+02  0.32398414403E+01  0.49543687751E+02  0.00000000000E+00 0.  1.
         13    1    3    3    0    0 -0.34000211202E+02  0.10615832903E+02 -0.22925900404E+02  0.42359263206E+02  0.00000000000E+00 0. -1.
         21    1    1    2  502  501 -0.23791085773E+02 -0.15348804137E+02 -0.32396741029E+01  0.28497316347E+02  0.00000000000E+00 0. -1.
<scales pt_clust_5="13000.00000" pt_clust_6="13000.00000" pt_clust_7="13000.00000" pt_clust_8="13000.00000" pt_clust_9="28.31257"></scales>
<clustering>
<clus scale="   28.313">  2  9  1 -1</clus>
<clus scale="   85.786">  7  8 -1 -1</clus>
<clus scale="   86.665">  2  7  1 -1</clus>
<clus scale="   94.209">  5  6 -1 -1</clus>
<clus scale="   95.010">  1  5  2 -1</clus>
</clustering>
</event>
<event>
 9    1  0.2423659E-006  0.2628092E+03  0.7546771E-02  0.1106472E+00
         -2   -1    0    0    0  501 -0.00000000000E+00  0.00000000000E+00  0.24055359151E+03  0.24055359151E+03  0.00000000000E+00 0.  1.
          2   -1    0    0  502    0  0.00000000000E+00 -0.00000000000E+00 -0.12023454987E+04  0.12023454987E+04  0.00000000000E+00 0. -1.
         23    2    1    2    0    0  0.55936214391E+01 -0.12581343285E+03  0.15200590361E+03  0.22578371025E+03  0.10960009396E+03 0.  0.
         23    2    1    2    0    0  0.41800456660E+02  0.24567077126E+03 -0.10291517449E+04  0.10629176605E+04  0.92407969984E+02 0.  0.
        -11    1    3    3    0    0  0.46534243972E+02 -0.98421874257E+02  0.13553335203E+03  0.17384358115E+03  0.00000000000E+00 0.  1.
         11    1    3    3    0    0 -0.40940622533E+02 -0.27391558589E+02  0.16472551581E+02  0.51940129100E+02  0.00000000000E+00 0. -1.
        -13    1    4    4    0    0  0.48524681384E+02  0.70135447835E+02 -0.24789673120E+03  0.26215723352E+03  0.00000000000E+00 0.  1.
         13    1    4    4    0    0 -0.67242247243E+01  0.17553532343E+03 -0.78125501370E+03  0.80076042697E+03  0.00000000000E+00 0. -1.
         21    1    1    2  502  501 -0.47394078099E+02 -0.11985733842E+03 -0.84646065858E+02  0.15419771943E+03  0.00000000000E+00 0.  1.
<scales pt_clust_5="13000.00000" pt_clust_6="13000.00000" pt_clust_7="13000.00000" pt_clust_8="13000.00000" pt_clust_9="128.88747"></scales>
<clustering>
<clus scale="   92.408">  7  8 -1 -1</clus>
<clus scale="  109.600">  5  6 -1 -1</clus>
<clus scale="  128.887">  1  9  2 -1</clus>
<clus scale="  256.117">  2  7  1 -1</clus>
<clus scale="  256.117">  2  5  1 -1</clus>
</clustering>
</event>
<event>
 9    1  0.2423659E-006  0.2241258E+03  0.7546771E-02  0.1165343E+00
          1   -1    0    0  502    0  0.00000000000E+00  0.00000000000E+00  0.95622423378E+03  0.95622423378E+03  0.00000000000E+00 0. -1.
         -1   -1    0    0    0  501 -0.00000000000E+00 -0.00000000000E+00 -0.74524216144E+02  0.74524216144E+02  0.00000000000E+00 0.  1.
         23    2    1    2    0    0  0.19338625212E+02  0.29140655194E+02  0.11465500448E+03  0.15126838852E+03  0.92266977321E+02 0.  0.
         23    2    1    2    0    0  0.19278489075E+03 -0.42704442260E+02  0.37503404966E+03  0.43355074207E+03  0.91247049535E+02 0.  0.
        -11    1    4    4    0    0  0.50558222819E+01 -0.21548002095E+02  0.81706771502E+02  0.84651486948E+02  0.00000000000E+00 0.  1.
         11    1    4    4    0    0  0.18772906847E+03 -0.21156440165E+02  0.29332727816E+03  0.34889925512E+03  0.00000000000E+00 0. -1.
        -13    1    3    3    0    0  0.17030197082E+01  0.60764308030E+02  0.84809023234E+02  0.10434448633E+03  0.00000000000E+00 0.  1.
         13    1    3    3    0    0  0.17635605504E+02 -0.31623652835E+02  0.29845981246E+02  0.46923902190E+02  0.00000000000E+00 0. -1.
         21    1    1    2  502  501 -0.21212351596E+03  0.13563787065E+02  0.39201096349E+03  0.44592931933E+03  0.00000000000E+00 0.  1.
<scales pt_clust_5="13000.00000" pt_clust_6="13000.00000" pt_clust_7="13000.00000" pt_clust_8="13000.00000" pt_clust_9="204.71037"></scales>
<clustering>
<clus scale="   91.247">  5  6 -1 -1</clus>
<clus scale="   92.267">  7  8 -1 -1</clus>
<clus scale="   98.673">  2  7  1 -1</clus>
<clus scale="  204.710">  2  9  1 -1</clus>
<clus scale="  224.126">  1  5  2 -1</clus>
</clustering>
</event>
<event>
 9    1  0.2423659E-006  0.1056898E+03  0.7546771E-02  0.1270219E+00
          1   -1    0    0  502    0  0.00000000000E+00  0.00000000000E+00  0.11698672605E+03  0.11698672605E+03  0.00000000000E+00 0. -1.
         -1   -1    0    0    0  501 -0.00000000000E+00 -0.00000000000E+00 -0.16335778409E+03  0.16335778409E+03  0.00000000000E+00 0.  1.
         23    2    1    2    0    0 -0.34010917335E+02 -0.13700211085E+02 -0.56878615869E+02  0.11119740980E+03  0.88234056465E+02 0.  0.
         23    2    1    2    0    0  0.60396005658E+02 -0.18773309126E+02  0.39615997724E+02  0.11817648455E+03  0.91630451220E+02 0.  0.
        -11    1    3    3    0    0  0.29694950650E+02  0.22874003222E+01 -0.19938355475E+02  0.35840763292E+02  0.00000000000E+00 0.  1.
         11    1    3    3    0    0 -0.63705867985E+02 -0.15987611407E+02 -0.36940260394E+02  0.75356646503E+02  0.00000000000E+00 0. -1.
        -11    1    4    4    0    0  0.57617027546E+02  0.23628181713E+02  0.42802079454E+02  0.75564746012E+02  0.00000000000E+00 0.  1.
         11    1    4    4    0    0  0.27789781115E+01 -0.42401490840E+02 -0.31860817292E+01  0.42611738542E+02  0.00000000000E+00 0. -1.
         21    1    1    2  502  501 -0.26385088323E+02  0.32473520211E+02 -0.29108439894E+02  0.50970615787E+02  0.00000000000E+00 0.  1.
<scales pt_clust_5="13000.00000" pt_clust_6="13000.00000" pt_clust_7="13000.00000" pt_clust_8="13000.00000" pt_clust_9="41.84140"></scales>
<clustering>
<clus scale="   41.841">  2  9  1 -1</clus>
<clus scale="   88.234">  5  6 -1 -1</clus>
<clus scale="   91.630">  7  8 -1 -1</clus>
<clus scale="  102.759">  2  5  1 -1</clus>
<clus scale="  105.690">  1  5  2 -1</clus>
</clustering>
</event>
<event>
 9    1  0.2423659E-006  0.1263992E+03  0.7546771E-02  0.1233880E+00
         -1   -1    0    0    0  501 -0.00000000000E+00  0.00000000000E+00  0.74554778398E+02  0.74554778398E+02  0.00000000000E+00 0.  1.
          1   -1    0    0  502    0  0.00000000000E+00 -0.00000000000E+00 -0.49958347551E+03  0.49958347551E+03  0.00000000000E+00 0. -1.
         23    2    1    2    0    0 -0.96819003780E+02 -0.54782478311E+01 -0.21568201334E+02  0.13395897605E+03  0.89865951641E+02 0.  0.
         23    2    1    2    0    0  0.43865447516E+02 -0.34985890124E+02 -0.26574558322E+03  0.28718639330E+03  0.93311947281E+02 0.  0.
        -11    1    3    3    0    0 -0.91484578121E+02  0.19276090359E+02  0.93897483054E+01  0.93963626296E+02  0.00000000000E+00 0.  1.
         11    1    3    3    0    0 -0.53344256595E+01 -0.24754338191E+02 -0.30957949639E+02  0.39995349758E+02  0.00000000000E+00 0. -1.
        -13    1    4    4    0    0  0.46788067409E+02  0.20713096799E+02 -0.15430125493E+03  0.16256393482E+03  0.00000000000E+00 0. -1.
         13    1    4    4    0    0 -0.29226198931E+01 -0.55698986922E+02 -0.11144432829E+03  0.12462245849E+03  0.00000000000E+00 0.  1.
         21    1    1    2  502  501  0.52953556264E+02  0.40464137955E+02 -0.13771491256E+03  0.15299288455E+03  0.00000000000E+00 0. -1.
<scales pt_clust_5="13000.00000" pt_clust_6="13000.00000" pt_clust_7="13000.00000" pt_clust_8="13000.00000" pt_clust_9="66.64402"></scales>
<clustering>
<clus scale="   66.644">  2  9  1 -1</clus>
<clus scale="   89.866">  5  6 -1 -1</clus>
<clus scale="   93.312">  7  8 -1 -1</clus>
<clus scale="  123.877">  1  5  2 -1</clus>
<clus scale="   66.644">  2  5  1 -1</clus>
</clustering>
</event>
<event>
 9    1  0.2423659E-006  0.9121476E+02  0.7546771E-02  0.1302143E+00
          1   -1    0    0  502    0  0.00000000000E+00  0.00000000000E+00  0.19097244501E+03  0.19097244501E+03  0.00000000000E+00 0. -1.
         -1   -1    0    0    0  501 -0.00000000000E+00 -0.00000000000E+00 -0.10627052618E+03  0.10627052618E+03  0.00000000000E+00 0.  1.
         23    2    1    2    0    0 -0.11124890609E+01  0.14053857784E+02 -0.51057709219E+02  0.10529919799E+03  0.91007048499E+02 0.  0.
         23    2    1    2    0    0  0.30252068083E+00  0.16919361249E+02  0.53010743147E+02  0.10358442565E+03  0.87368404157E+02 0.  0.
        -13    1    3    3    0    0  0.14813648756E+02  0.28419413648E+02 -0.69806531973E+02  0.76811842627E+02  0.00000000000E+00 0.  1.
         13    1    3    3    0    0 -0.15926137817E+02 -0.14365555864E+02  0.18748822754E+02  0.28487355366E+02  0.00000000000E+00 0. -1.
        -13    1    4    4    0    0  0.26887252367E+02  0.36152001387E+02  0.48586889308E+01  0.45315542613E+02  0.00000000000E+00 0.  1.
         13    1    4    4    0    0 -0.26584731686E+02 -0.19232640138E+02  0.48152054216E+02  0.58268883040E+02  0.00000000000E+00 0. -1.
         21    1    1    2  502  501  0.80996838007E+00 -0.30973219033E+02  0.82748884902E+02  0.88359347545E+02  0.00000000000E+00 0. -1.
<scales pt_clust_5="13000.00000" pt_clust_6="13000.00000" pt_clust_7="13000.00000" pt_clust_8="13000.00000" pt_clust_9="30.98381"></scales>
<clustering>
<clus scale="   30.984">  1  9  2 -1</clus>
<clus scale="   87.368">  7  8 -1 -1</clus>
<clus scale="   87.585">  1  7  2 -1</clus>
<clus scale="   91.007">  5  6 -1 -1</clus>
<clus scale="   30.984">  1  5  2 -1</clus>
</clustering>
</event>
<event>
 9    1  0.2423659E-006  0.1661448E+03  0.7546771E-02  0.1203722E+00
          3   -1    0    0  502    0  0.00000000000E+00  0.00000000000E+00  0.22871850726E+03  0.22871850726E+03  0.00000000000E+00 0. -1.
         -3   -1    0    0    0  501 -0.00000000000E+00 -0.00000000000E+00 -0.96374845610E+03  0.96374845610E+03  0.00000000000E+00 0.  1.
         23    2    1    2    0    0  0.69954406031E+02 -0.78474053315E+02 -0.25024545823E+03  0.28638952673E+03  0.91347554355E+02 0.  0.
         23    2    1    2    0    0  0.34254947092E+02 -0.36561215130E+02  0.18870577633E+03  0.21493212491E+03  0.89865590990E+02 0.  0.
        -11    1    4    4    0    0  0.36983919662E+02  0.16016802418E+02  0.38382808209E+02  0.55655981163E+02  0.00000000000E+00 0.  1.
         11    1    4    4    0    0 -0.27289725693E+01 -0.52578017549E+02  0.15032296812E+03  0.15927614374E+03  0.00000000000E+00 0. -1.
        -11    1    3    3    0    0  0.47336985103E+02  0.54644773610E+01 -0.55680734615E+02  0.73287071703E+02  0.00000000000E+00 0.  1.
         11    1    3    3    0    0  0.22617420928E+02 -0.83938530676E+02 -0.19456472362E+03  0.21310245503E+03  0.00000000000E+00 0. -1.
         21    1    1    2  502  501 -0.10420935312E+03  0.11503526845E+03 -0.67349026694E+03  0.69114531173E+03  0.00000000000E+00 0.  1.
<scales pt_clust_5="13000.00000" pt_clust_6="13000.00000" pt_clust_7="13000.00000" pt_clust_8="13000.00000" pt_clust_9="138.77934"></scales>
<clustering>
<clus scale="   89.866">  5  6 -1 -1</clus>
<clus scale="   91.348">  7  8 -1 -1</clus>
<clus scale="  102.888">  1  5  2 -1</clus>
<clus scale="  138.779">  2  9  1 -1</clus>
<clus scale="  102.888">  1  5  2 -1</clus>
</clustering>
</event>
<event>
 9    1  0.2423659E-006  0.1462468E+03  0.7546771E-02  0.1221917E+00
         -1   -1    0    0    0  501 -0.00000000000E+00  0.00000000000E+00  0.20257178580E+03  0.20257178580E+03  0.00000000000E+00 0.  1.
          1   -1    0    0  502    0  0.00000000000E+00 -0.00000000000E+00 -0.46841016603E+03  0.46841016603E+03  0.00000000000E+00 0. -1.
         23    2    1    2    0    0  0.61420713217E+00  0.42335982408E+02  0.52951346731E+02  0.11534803991E+03  0.93319947131E+02 0.  0.
         23    2    1    2    0    0 -0.97339272170E+02  0.19994652375E+02  0.68303747385E+02  0.15179953484E+03  0.92211587337E+02 0.  0.
        -11    1    4    4    0    0 -0.38976556296E+02  0.33920601329E+02 -0.10527389747E+02  0.52731442898E+02  0.00000000000E+00 0. -1.
         11    1    4    4    0    0 -0.58362715875E+02 -0.13925948954E+02  0.78831137132E+02  0.99068091937E+02  0.00000000000E+00 0.  1.
        -13    1    3    3    0    0 -0.39452571482E+02  0.76771844056E+01  0.47299859303E+02  0.62070292790E+02  0.00000000000E+00 0.  1.
         13    1    3    3    0    0  0.40066778614E+02  0.34658798003E+02  0.56514874272E+01  0.53277747115E+02  0.00000000000E+00 0. -1.
         21    1    1    2  502  501  0.96725065038E+02 -0.62330634783E+02 -0.38709347434E+03  0.40383437709E+03  0.00000000000E+00 0. -1.
<scales pt_clust_5="13000.00000" pt_clust_6="13000.00000" pt_clust_7="13000.00000" pt_clust_8="13000.00000" pt_clust_9="113.51282"></scales>
<clustering>
<clus scale="   92.212">  5  6 -1 -1</clus>
<clus scale="   93.320">  7  8 -1 -1</clus>
<clus scale="  102.476">  1  7  2 -1</clus>
<clus scale="  113.513">  2  9  1 -1</clus>
<clus scale="  113.513">  2  5  1 -1</clus>
</clustering>
</event>
<event>
 9    1  0.2423659E-006  0.2304946E+03  0.7546771E-02  0.1127667E+00
         -1   -1    0    0    0  501 -0.00000000000E+00  0.00000000000E+00  0.19190323449E+03  0.19190323449E+03  0.00000000000E+00 0.  1.
          1   -1    0    0  502    0  0.00000000000E+00 -0.00000000000E+00 -0.98659542108E+03  0.98659542108E+03  0.00000000000E+00 0. -1.
         23    2    1    2    0    0  0.14359304543E+02 -0.20341414118E+03 -0.20186077939E+03  0.30064645100E+03  0.89760858854E+02 0.  0.
         23    2    1    2    0    0  0.20737717826E+03  0.73412030848E+02 -0.57319040907E+03  0.62006666328E+03  0.86837788574E+02 0.  0.
        -11    1    3    3    0    0  0.20320729830E+00 -0.14143515416E+03 -0.78234074737E+02  0.16163079711E+03  0.00000000000E+00 0.  1.
         11    1    3    3    0    0  0.14156097245E+02 -0.61978987018E+02 -0.12362670466E+03  0.13901565388E+03  0.00000000000E+00 0. -1.
        -11    1    4    4    0    0  0.10441085878E+03  0.77022049723E+02 -0.37296109672E+03  0.39488479743E+03  0.00000000000E+00 0.  1.
         11    1    4    4    0    0  0.10296631948E+03 -0.36100188743E+01 -0.20022931235E+03  0.22518186585E+03  0.00000000000E+00 0. -1.
         21    1    1    2  502  501 -0.22173648280E+03  0.13000211033E+03 -0.19640998130E+02  0.25778554130E+03  0.00000000000E+00 0. -1.
<scales pt_clust_5="13000.00000" pt_clust_6="13000.00000" pt_clust_7="13000.00000" pt_clust_8="13000.00000" pt_clust_9="213.51100"></scales>
<clustering>
<clus scale="   86.838">  7  8 -1 -1</clus>
<clus scale="   89.761">  5  6 -1 -1</clus>
<clus scale="  222.802">  1  5  2 -1</clus>
<clus scale="  213.511">  1  9  2 -1</clus>
<clus scale="  230.495">  2  5  1 -1</clus>
</clustering>
</event>
<event>
 9    1  0.2423659E-006  0.1026497E+03  0.7546771E-02  0.1277066E+00
          3   -1    0    0  502    0  0.00000000000E+00  0.00000000000E+00  0.12289281397E+03  0.12289281397E+03  0.00000000000E+00 0. -1.
         -3   -1    0    0    0  501 -0.00000000000E+00 -0.00000000000E+00 -0.20494569697E+03  0.20494569697E+03  0.00000000000E+00 0.  1.
         23    2    1    2    0    0 -0.42304301742E+02  0.31617508384E+01 -0.26168773013E+02  0.10009045666E+03  0.86796568013E+02 0.  0.
         23    2    1    2    0    0  0.18491119323E+02  0.64318915513E+02  0.28587791759E+02  0.11704028503E+03  0.91664181100E+02 0.  0.
        -11    1    3    3    0    0  0.20269635467E+02  0.75976715814E+01  0.13834443888E+02  0.25689970282E+02  0.00000000000E+00 0. -1.
         11    1    3    3    0    0 -0.62573937209E+02 -0.44359207429E+01 -0.40003216901E+02  0.74400486376E+02  0.00000000000E+00 0.  1.
        -11    1    4    4    0    0 -0.64105082087E+00  0.41525883048E+02 -0.30064425453E+02  0.51270650345E+02  0.00000000000E+00 0.  1.
         11    1    4    4    0    0  0.19132170143E+02  0.22793032465E+02  0.58652217211E+02  0.65769634689E+02  0.00000000000E+00 0. -1.
         21    1    1    2  502  501  0.23813182419E+02 -0.67480666351E+02 -0.84471901748E+02  0.11070776925E+03  0.00000000000E+00 0.  1.
<scales pt_clust_5="13000.00000" pt_clust_6="13000.00000" pt_clust_7="13000.00000" pt_clust_8="13000.00000" pt_clust_9="71.55912"></scales>
<clustering>
<clus scale="   71.559">  2  9  1 -1</clus>
<clus scale="   86.797">  5  6 -1 -1</clus>
<clus scale="   91.664">  7  8 -1 -1</clus>
<clus scale="   98.327">  2  5  1 -1</clus>
<clus scale="  102.650">  1  5  2 -1</clus>
</clustering>
</event>
<event>
 9    1  0.2423659E-006  0.9451228E+02  0.7546771E-02  0.1293590E+00
          1   -1    0    0  502    0  0.00000000000E+00  0.00000000000E+00  0.26605106230E+03  0.26605106230E+03  0.00000000000E+00 0. -1.
         -1   -1    0    0    0  501 -0.00000000000E+00 -0.00000000000E+00 -0.79332909333E+02  0.79332909333E+02  0.00000000000E+00 0.  1.
         23    2    1    2    0    0 -0.18172256186E+02 -0.41933502546E+02  0.57691657756E+02  0.11841912759E+03  0.92769137503E+02 0.  0.
         23    2    1    2    0    0  0.61360844638E+01  0.45172430265E+01  0.15516581192E+03  0.17976198624E+03  0.90442719388E+02 0.  0.
        -13    1    4    4    0    0 -0.89484025364E-01  0.42689726784E+02  0.40870776820E+02  0.59100263774E+02  0.00000000000E+00 0.  1.
         13    1    4    4    0    0  0.62255684891E+01 -0.38172483758E+02  0.11429503510E+03  0.12066172247E+03  0.00000000000E+00 0. -1.
        -13    1    3    3    0    0 -0.29788805143E+02  0.22533498404E+02  0.15120725150E+02  0.40296002174E+02  0.00000000000E+00 0. -1.
         13    1    3    3    0    0  0.11616548957E+02 -0.64467000950E+02  0.42570932606E+02  0.78123125412E+02  0.00000000000E+00 0.  1.
         21    1    1    2  502  501  0.12036171722E+02  0.37416259520E+02 -0.26139316717E+02  0.47202857801E+02  0.00000000000E+00 0.  1.
<scales pt_clust_5="13000.00000" pt_clust_6="13000.00000" pt_clust_7="13000.00000" pt_clust_8="13000.00000" pt_clust_9="39.30453"></scales>
<clustering>
<clus scale="   39.305">  2  9  1 -1</clus>
<clus scale="   90.443">  5  6 -1 -1</clus>
<clus scale="   92.230">  1  5  2 -1</clus>
<clus scale="   92.769">  7  8 -1 -1</clus>
<clus scale="   92.230">  1  5  2 -1</clus>
</clustering>
</event>
<event>
 9    1  0.2423659E-006  0.9921613E+02  0.7546771E-02  0.1282678E+00
         -3   -1    0    0    0  501 -0.00000000000E+00  0.00000000000E+00  0.62151211857E+02  0.62151211857E+02  0.00000000000E+00 0.  1.
          3   -1    0    0  502    0  0.00000000000E+00 -0.00000000000E+00 -0.44108058860E+03  0.44108058860E+03  0.00000000000E+00 0. -1.
         23    2    1    2    0    0  0.20686174089E+02  0.10837469045E+02 -0.91441881155E+02  0.13236815584E+03  0.92813482411E+02 0.  0.
         23    2    1    2    0    0  0.16655953329E+02 -0.38685355828E+02 -0.30430691503E+03  0.32133756917E+03  0.94239892221E+02 0.  0.
        -13    1    4    4    0    0 -0.32816876569E+02 -0.29616148987E+02 -0.20845660797E+03  0.21309204836E+03  0.00000000000E+00 0.  1.
         13    1    4    4    0    0  0.49472829899E+02 -0.90692068413E+01 -0.95850307065E+02  0.10824552081E+03  0.00000000000E+00 0. -1.
        -13    1    3    3    0    0  0.50335189966E+02 -0.17968736707E+02 -0.42359912862E+02  0.68197280485E+02  0.00000000000E+00 0. -1.
         13    1    3    3    0    0 -0.29649015877E+02  0.28806205751E+02 -0.49081968293E+02  0.64170875354E+02  0.00000000000E+00 0.  1.
         21    1    1    2  502  501 -0.37342127419E+02  0.27847886783E+02  0.16819419448E+02  0.49526075446E+02  0.00000000000E+00 0.  1.
<scales pt_clust_5="13000.00000" pt_clust_6="13000.00000" pt_clust_7="13000.00000" pt_clust_8="13000.00000" pt_clust_9="46.58261"></scales>
<clustering>
<clus scale="   46.583">  1  9  2 -1</clus>
<clus scale="   92.813">  7  8 -1 -1</clus>
<clus scale="   94.240">  5  6 -1 -1</clus>
<clus scale="   97.862">  1  7  2 -1</clus>
<clus scale="   99.216">  2  5  1 -1</clus>
</clustering>
</event>
<event>
 9    1  0.2423659E-006  0.1677183E+03  0.7546771E-02  0.1202833E+00
         -1   -1    0    0    0  501 -0.00000000000E+00  0.00000000000E+00  0.76242686384E+02  0.76242686384E+02  0.00000000000E+00 0.  1.
          1   -1    0    0  502    0  0.00000000000E+00 -0.00000000000E+00 -0.79527550616E+03  0.79527550616E+03  0.00000000000E+00 0. -1.
         23    2    1    2    0    0  0.14873355864E+02 -0.43199613999E+02 -0.17816731370E+02  0.10350422507E+03  0.91149686377E+02 0.  0.
         23    2    1    2    0    0  0.64068492187E+02 -0.10001228574E+03 -0.31641550345E+03  0.34990757697E+03  0.90605257050E+02 0.  0.
        -11    1    3    3    0    0  0.30143255282E+02 -0.67104579541E+02 -0.13974397156E+02  0.74879397769E+02  0.00000000000E+00 0.  1.
         11    1    3    3    0    0 -0.15269899419E+02  0.23904965543E+02 -0.38423342141E+01  0.28624827302E+02  0.00000000000E+00 0. -1.
        -11    1    4    4    0    0  0.66021978779E+02 -0.19507556690E+02 -0.14831873632E+03  0.16351725901E+03  0.00000000000E+00 0.  1.
         11    1    4    4    0    0 -0.19534865918E+01 -0.80504729048E+02 -0.16809676713E+03  0.18639031796E+03  0.00000000000E+00 0. -1.
         21    1    1    2  502  501 -0.78941848050E+02  0.14321189974E+03 -0.38480058495E+03  0.41810639050E+03  0.00000000000E+00 0. -1.
<scales pt_clust_5="13000.00000" pt_clust_6="13000.00000" pt_clust_7="13000.00000" pt_clust_8="13000.00000" pt_clust_9="141.13862"></scales>
<clustering>
<clus scale="   90.605">  7  8 -1 -1</clus>
<clus scale="   91.150">  5  6 -1 -1</clus>
<clus scale="  101.959">  1  5  2 -1</clus>
<clus scale="  141.139">  1  9  2 -1</clus>
<clus scale="  167.718">  2  5  1 -1</clus>
</clustering>
</event>
<event>
 9    1  0.2423659E-006  0.1361117E+03  0.7546771E-02  0.1225276E+00
         -2   -1    0    0    0  501 -0.00000000000E+00  0.00000000000E+00  0.15331324956E+03  0.15331324956E+03  0.00000000000E+00 0.  1.
          2   -1    0    0  502    0  0.00000000000E+00 -0.00000000000E+00 -0.24333456683E+03  0.24333456683E+03  0.00000000000E+00 0. -1.
         23    2    1    2    0    0 -0.67884180077E+02  0.43255315782E+02 -0.85265791806E+01  0.12119164760E+03  0.90196611069E+02 0.  0.
         23    2    1    2    0    0 -0.57839504858E+02 -0.29987547501E+02 -0.89908342134E+02  0.14875467960E+03  0.98993855314E+02 0.  0.
        -11    1    3    3    0    0 -0.26013043695E+02 -0.25398820038E+02  0.11843466847E+02  0.38236712837E+02  0.00000000000E+00 0.  1.
         11    1    3    3    0    0 -0.41871136382E+02  0.68654135820E+02 -0.20370046027E+02  0.82954934767E+02  0.00000000000E+00 0. -1.
        -11    1    4    4    0    0  0.15919346482E+02  0.17563749103E+02 -0.84518087078E+00  0.23719721871E+02  0.00000000000E+00 0.  1.
         11    1    4    4    0    0 -0.73758851340E+02 -0.47551296604E+02 -0.89063161264E+02  0.12503495773E+03  0.00000000000E+00 0. -1.
         21    1    1    2  502  501  0.12572368494E+03 -0.13267768280E+02  0.84136040418E+01  0.12670148919E+03  0.00000000000E+00 0.  1.
<scales pt_clust_5="13000.00000" pt_clust_6="13000.00000" pt_clust_7="13000.00000" pt_clust_8="13000.00000" pt_clust_9="101.93609"></scales>
<clustering>
<clus scale="   90.197">  5  6 -1 -1</clus>
<clus scale="   98.994">  7  8 -1 -1</clus>
<clus scale="  118.509">  2  7  1 -1</clus>
<clus scale="  101.936">  2  9  1 -1</clus>
<clus scale="  118.509">  2  5  1 -1</clus>
</clustering>
</event>
<event>
 9    1  0.2423659E-006  0.1478057E+03  0.7546771E-02  0.1222814E+00
         -2   -1    0    0    0  501 -0.00000000000E+00  0.00000000000E+00  0.55052175031E+02  0.55052175031E+02  0.00000000000E+00 0.  1.
          2   -1    0    0  502    0  0.00000000000E+00 -0.00000000000E+00 -0.79662275132E+03  0.79662275132E+03  0.00000000000E+00 0. -1.
         23    2    1    2    0    0  0.10680466637E+03 -0.62863840036E+01 -0.12048567416E+03  0.18547474467E+03  0.91854928287E+02 0.  0.
         23    2    1    2    0    0  0.22090084308E+02 -0.26451483729E+02 -0.36326485117E+03  0.37610226130E+03  0.91125770447E+02 0.  0.
        -11    1    4    4    0    0  0.42607928256E+01 -0.52651094326E+02 -0.30713222964E+03  0.31164161880E+03  0.00000000000E+00 0.  1.
         11    1    4    4    0    0  0.17829291483E+02  0.26199610597E+02 -0.56132621537E+02  0.64460642494E+02  0.00000000000E+00 0. -1.
        -13    1    3    3    0    0  0.80209099719E+02 -0.45313775175E+02 -0.92643797308E+02  0.13065110439E+03  0.00000000000E+00 0.  1.
         13    1    3    3    0    0  0.26595566651E+02  0.39027391171E+02 -0.27841876855E+02  0.54823640283E+02  0.00000000000E+00 0. -1.
         21    1    1    2  502  501 -0.12889475068E+03  0.32737867732E+02 -0.25782005095E+03  0.29009792038E+03  0.00000000000E+00 0. -1.
<scales pt_clust_5="13000.00000" pt_clust_6="13000.00000" pt_clust_7="13000.00000" pt_clust_8="13000.00000" pt_clust_9="115.79804"></scales>
<clustering>
<clus scale="   91.126">  5  6 -1 -1</clus>
<clus scale="   91.855">  7  8 -1 -1</clus>
<clus scale="   97.425">  2  5  1 -1</clus>
<clus scale="  115.798">  2  9  1 -1</clus>
<clus scale="   97.425">  2  5  1 -1</clus>
</clustering>
</event>
<event>
 9    1  0.2423659E-006  0.9980391E+02  0.7546771E-02  0.1282854E+00
         -3   -1    0    0    0  501 -0.00000000000E+00  0.00000000000E+00  0.88524524170E+02  0.88524524170E+02  0.00000000000E+00 0.  1.
          3   -1    0    0  502    0  0.00000000000E+00 -0.00000000000E+00 -0.17473236660E+03  0.17473236660E+03  0.00000000000E+00 0. -1.
         23    2    1    2    0    0 -0.12137237257E+02 -0.10785254838E+02  0.32990687362E+01  0.94868758977E+02  0.93410723824E+02 0.  0.
         23    2    1    2    0    0  0.46832421274E+02 -0.81314004051E+01 -0.76717114817E+02  0.12685291143E+03  0.89144545982E+02 0.  0.
        -11    1    3    3    0    0  0.38106766839E+02 -0.16782058253E+02  0.12422881222E+02  0.43452170671E+02  0.00000000000E+00 0. -1.
         11    1    3    3    0    0 -0.50244004096E+02  0.59968034158E+01 -0.91238124857E+01  0.51416588306E+02  0.00000000000E+00 0.  1.
        -11    1    4    4    0    0 -0.20861940688E+02  0.17575289557E+02 -0.12250681711E+02  0.29903019491E+02  0.00000000000E+00 0.  1.
         11    1    4    4    0    0  0.67694361962E+02 -0.25706689962E+02 -0.64466433106E+02  0.96949891943E+02  0.00000000000E+00 0. -1.
         21    1    1    2  502  501 -0.34695184017E+02  0.18916655243E+02 -0.12789796346E+02  0.41535220357E+02  0.00000000000E+00 0.  1.
<scales pt_clust_5="13000.00000" pt_clust_6="13000.00000" pt_clust_7="13000.00000" pt_clust_8="13000.00000" pt_clust_9="39.51703"></scales>
<clustering>
<clus scale="   39.517">  1  9  2 -1</clus>
<clus scale="   89.145">  7  8 -1 -1</clus>
<clus scale="   93.411">  5  6 -1 -1</clus>
<clus scale="   95.823">  2  7  1 -1</clus>
<clus scale="   95.823">  2  5  1 -1</clus>
</clustering>
</event>
<event>
 9    1  0.2423659E-006  0.9422192E+02  0.7546771E-02  0.1293532E+00
          1   -1    0    0  502    0  0.00000000000E+00  0.00000000000E+00  0.33767334003E+03  0.33767334003E+03  0.00000000000E+00 0. -1.
         -1   -1    0    0    0  501 -0.00000000000E+00 -0.00000000000E+00 -0.91240409025E+02  0.91240409025E+02  0.00000000000E+00 0.  1.
         23    2    1    2    0    0  0.11183696053E+02 -0.44155751738E+02 -0.17515913266E+02  0.10456344415E+03  0.92476489803E+02 0.  0.
         23    2    1    2    0    0  0.93898828802E+01 -0.27021327942E+02  0.21548339413E+03  0.23581585579E+03  0.91420471639E+02 0.  0.
        -11    1    3    3    0    0 -0.91895176219E+01  0.25764971088E+02  0.60527250931E+01  0.28016360405E+02  0.00000000000E+00 0. -1.
         11    1    3    3    0    0  0.20373213675E+02 -0.69920722826E+02 -0.23568638360E+02  0.76547083746E+02  0.00000000000E+00 0.  1.
        -11    1    4    4    0    0  0.37692328950E+02 -0.21326660500E+02  0.43342162498E+02  0.61270557038E+02  0.00000000000E+00 0.  1.
         11    1    4    4    0    0 -0.28302446069E+02 -0.56946674410E+01  0.17214123163E+03  0.17454529876E+03  0.00000000000E+00 0. -1.
         21    1    1    2  502  501 -0.20573578933E+02  0.71177079680E+02  0.48465450146E+02  0.88534449113E+02  0.00000000000E+00 0. -1.
<scales pt_clust_5="13000.00000" pt_clust_6="13000.00000" pt_clust_7="13000.00000" pt_clust_8="13000.00000" pt_clust_9="74.09081"></scales>
<clustering>
<clus scale="   74.091">  2  9  1 -1</clus>
<clus scale="   91.420">  7  8 -1 -1</clus>
<clus scale="   92.476">  5  6 -1 -1</clus>
<clus scale="   93.186">  1  7  2 -1</clus>
<clus scale="   93.186">  1  5  2 -1</clus>
</clustering>
</event>
<event>
 9    1  0.2423659E-006  0.1729219E+03  0.7546771E-02  0.1175548E+00
         -1   -1    0    0    0  501 -0.00000000000E+00  0.00000000000E+00  0.61880222011E+02  0.61880222011E+02  0.00000000000E+00 0.  1.
          1   -1    0    0  502    0  0.00000000000E+00 -0.00000000000E+00 -0.74303698475E+03  0.74303698475E+03  0.00000000000E+00 0. -1.
         23    2    1    2    0    0 -0.11749669818E+03  0.18689373206E+02 -0.13533505293E+03  0.19981233693E+03  0.86340180014E+02 0.  0.
         23    2    1    2    0    0  0.16220931469E+03  0.21730764385E+02 -0.48249389548E+03  0.51767822820E+03  0.91685881593E+02 0.  0.
        -11    1    4    4    0    0  0.11411368470E+03  0.38000181897E+02 -0.22402633246E+03  0.25427100600E+03  0.00000000000E+00 0. -1.
         11    1    4    4    0    0  0.48095629995E+02 -0.16269417512E+02 -0.25846756302E+03  0.26340722220E+03  0.00000000000E+00 0.  1.
        -13    1    3    3    0    0 -0.10989429308E+02  0.16798163888E+02  0.76734158119E+01  0.21490164652E+02  0.00000000000E+00 0.  1.
         13    1    3    3    0    0 -0.10650726887E+03  0.18912093179E+01 -0.14300846874E+03  0.17832217228E+03  0.00000000000E+00 0. -1.
         21    1    1    2  502  501 -0.44712616514E+02 -0.40420137591E+02 -0.63327814335E+02  0.87426641631E+02  0.00000000000E+00 0.  1.
<scales pt_clust_5="13000.00000" pt_clust_6="13000.00000" pt_clust_7="13000.00000" pt_clust_8="13000.00000" pt_clust_9="60.27442"></scales>
<clustering>
<clus scale="   60.274">  1  9  2 -1</clus>
<clus scale="   86.340">  7  8 -1 -1</clus>
<clus scale="   91.686">  5  6 -1 -1</clus>
<clus scale="  170.148">  1  7  2 -1</clus>
<clus scale="  172.922">  2  5  1 -1</clus>
</clustering>
</event>
<event>
 9    1  0.3074759E-006  0.1665357E+03  0.7546771E-02  0.1208204E+00
          1   -1    0    0  502    0  0.00000000000E+00  0.00000000000E+00  0.22947546309E+03  0.22947546309E+03  0.00000000000E+00 0. -1.
         -1   -1    0    0    0  501 -0.00000000000E+00 -0.00000000000E+00 -0.34933025494E+03  0.34933025494E+03  0.00000000000E+00 0.  1.
         23    2    1    2    0    0 -0.11121831749E+03  0.83285702289E+02  0.10813897388E+03  0.19927511533E+03  0.93330121432E+02 0.  0.
         23    2    1    2    0    0  0.12137116086E+02  0.12660984248E+02  0.20781868276E+02  0.95079961635E+02  0.91108193630E+02 0.  0.
        -11    1    3    3    0    0 -0.49878274482E+02  0.88946139775E+01 -0.46646101530E+01  0.50879416378E+02  0.00000000000E+00 0.  1.
         11    1    3    3    0    0 -0.61340043005E+02  0.74391088311E+02  0.11280358403E+03  0.14839569895E+03  0.00000000000E+00 0. -1.
        -11    1    4    4    0    0 -0.30419952520E+02 -0.22267781038E+02  0.73381138608E+01  0.38406711636E+02  0.00000000000E+00 0.  1.
         11    1    4    4    0    0  0.42557068606E+02  0.34928765285E+02  0.13443754416E+02  0.56673249999E+02  0.00000000000E+00 0. -1.
         21    1    1    2  502  501  0.99081201400E+02 -0.95946686537E+02 -0.24877563401E+03  0.28445064107E+03  0.00000000000E+00 0.  1.
<scales pt_clust_5="13000.00000" pt_clust_6="13000.00000" pt_clust_7="13000.00000" pt_clust_8="13000.00000" pt_clust_9="137.92620"></scales>
<clustering>
<clus scale="   91.108">  7  8 -1 -1</clus>
<clus scale="   92.781">  1  7  2 -1</clus>
<clus scale="   93.330">  5  6 -1 -1</clus>
<clus scale="  137.926">  2  9  1 -1</clus>
<clus scale="   92.781">  1  5  2 -1</clus>
</clustering>
</event>
<event>
 9    1  0.2423659E-006  0.9664769E+02  0.7546771E-02  0.1289897E+00
          1   -1    0    0  502    0  0.00000000000E+00  0.00000000000E+00  0.70123654228E+02  0.70123654228E+02  0.00000000000E+00 0. -1.
         -1   -1    0    0    0  501 -0.00000000000E+00 -0.00000000000E+00 -0.32810835063E+03  0.32810835063E+03  0.00000000000E+00 0.  1.
         23    2    1    2    0    0 -0.10673155412E+01 -0.25767994962E+02 -0.55080255471E+02  0.11003064798E+03  0.91693948684E+02 0.  0.
         23    2    1    2    0    0  0.12236808496E+02 -0.42826120180E+02 -0.43656612532E+02  0.11444928911E+03  0.95963138275E+02 0.  0.
        -11    1    3    3    0    0 -0.35499252782E+02 -0.15747777222E+02  0.59066578002E+01  0.39282032049E+02  0.00000000000E+00 0. -1.
         11    1    3    3    0    0  0.34431937241E+02 -0.10020217740E+02 -0.60986913271E+02  0.70748615930E+02  0.00000000000E+00 0.  1.
        -13    1    4    4    0    0  0.33244405230E+02  0.11217102314E+02 -0.44239521965E+02  0.56463697781E+02  0.00000000000E+00 0.  1.
         13    1    4    4    0    0 -0.21007596734E+02 -0.54043222494E+02  0.58290943335E+00  0.57985591326E+02  0.00000000000E+00 0. -1.
         21    1    1    2  502  501 -0.11169492955E+02  0.68594115142E+02 -0.15924782840E+03  0.17375206777E+03  0.00000000000E+00 0.  1.
<scales pt_clust_5="13000.00000" pt_clust_6="13000.00000" pt_clust_7="13000.00000" pt_clust_8="13000.00000" pt_clust_9="69.49756"></scales>
<clustering>
<clus scale="   69.498">  2  9  1 -1</clus>
<clus scale="   91.694">  5  6 -1 -1</clus>
<clus scale="   92.410">  2  5  1 -1</clus>
<clus scale="   95.963">  7  8 -1 -1</clus>
<clus scale="   96.648">  1  5  2 -1</clus>
</clustering>
</event>
<event>
 9    1  0.2423659E-006  0.1014904E+03  0.7546771E-02  0.1280755E+00
          2   -1    0    0  502    0  0.00000000000E+00  0.00000000000E+00  0.10144770265E+03  0.10144770265E+03  0.00000000000E+00 0. -1.
         -2   -1    0    0    0  501 -0.00000000000E+00 -0.00000000000E+00 -0.14823912450E+03  0.14823912450E+03  0.00000000000E+00 0.  1.
         23    2    1    2    0    0  0.21948105780E+02  0.26927033704E+02 -0.51466435104E+02  0.10960008024E+03  0.90313892365E+02 0.  0.
         23    2    1    2    0    0  0.93013902244E+01 -0.27914515425E+02 -0.15592968507E+02  0.10282688640E+03  0.97285620052E+02 0.  0.
        -13    1    3    3    0    0 -0.15758196303E+02 -0.19433965788E+02 -0.42295490949E+02  0.49141716816E+02  0.00000000000E+00 0. -1.
         13    1    3    3    0    0  0.37706302084E+02  0.46360999493E+02 -0.91709441548E+01  0.60458363421E+02  0.00000000000E+00 0.  1.
        -13    1    4    4    0    0  0.39508846958E+02  0.18037597581E+02 -0.19682405168E+02  0.47683340777E+02  0.00000000000E+00 0.  1.
         13    1    4    4    0    0 -0.30207456733E+02 -0.45952113006E+02  0.40894366615E+01  0.55143545626E+02  0.00000000000E+00 0. -1.
         21    1    1    2  502  501 -0.31249496005E+02  0.98748172035E+00  0.20267981756E+02  0.37259860509E+02  0.00000000000E+00 0. -1.
<scales pt_clust_5="13000.00000" pt_clust_6="13000.00000" pt_clust_7="13000.00000" pt_clust_8="13000.00000" pt_clust_9="31.26509"></scales>
<clustering>
<clus scale="   31.265">  1  9  2 -1</clus>
<clus scale="   90.314">  5  6 -1 -1</clus>
<clus scale="   94.828">  2  5  1 -1</clus>
<clus scale="   97.286">  7  8 -1 -1</clus>
<clus scale="   31.265">  1  5  2 -1</clus>
</clustering>
</event>
<event>
 9    1  0.2423659E-006  0.1133148E+03  0.7546771E-02  0.1254910E+00
          2   -1    0    0  502    0  0.00000000000E+00  0.00000000000E+00  0.49255773180E+03  0.49255773180E+03  0.00000000000E+00 0. -1.
         -2   -1    0    0    0  501 -0.00000000000E+00 -0.00000000000E+00 -0.14231892449E+03  0.14231892449E+03  0.00000000000E+00 0.  1.
         23    2    1    2    0    0 -0.50438781034E+02  0.10795951591E+03 -0.61633643222E+02  0.16226512225E+03  0.91279440267E+02 0.  0.
         23    2    1    2    0    0  0.56386440448E+02 -0.31884102561E+02  0.36839362740E+03  0.38478641673E+03  0.90281200288E+02 0.  0.
        -11    1    3    3    0    0 -0.25078218592E+02  0.11324922001E+03 -0.69463197875E+02  0.13520147462E+03  0.00000000000E+00 0.  1.
         11    1    3    3    0    0 -0.25360562442E+02 -0.52897041061E+01  0.78295546522E+01  0.27063647628E+02  0.00000000000E+00 0. -1.
        -11    1    4    4    0    0  0.13595622506E+02 -0.54489672704E+02  0.13133781412E+03  0.14284112433E+03  0.00000000000E+00 0.  1.
         11    1    4    4    0    0  0.42790817942E+02  0.22605570143E+02  0.23705581328E+03  0.24194529240E+03  0.00000000000E+00 0. -1.
         21    1    1    2  502  501 -0.59476594141E+01 -0.76075413348E+02  0.43478823133E+02  0.87825117304E+02  0.00000000000E+00 0.  1.
<scales pt_clust_5="13000.00000" pt_clust_6="13000.00000" pt_clust_7="13000.00000" pt_clust_8="13000.00000" pt_clust_9="76.30756"></scales>
<clustering>
<clus scale="   76.308">  2  9  1 -1</clus>
<clus scale="   90.281">  7  8 -1 -1</clus>
<clus scale="   91.279">  5  6 -1 -1</clus>
<clus scale="  112.512">  1  7  2 -1</clus>
<clus scale="  112.512">  1  5  2 -1</clus>
</clustering>
</event>
<event>
 9    1  0.2423659E-006  0.1958954E+03  0.7546771E-02  0.1153262E+00
         -2   -1    0    0    0  501 -0.00000000000E+00  0.00000000000E+00  0.34465740143E+03  0.34465740143E+03  0.00000000000E+00 0.  1.
          2   -1    0    0  502    0  0.00000000000E+00 -0.00000000000E+00 -0.29936590616E+03  0.29936590616E+03  0.00000000000E+00 0. -1.
         23    2    1    2    0    0 -0.85082249561E+02 -0.22625665245E+03  0.18824724517E+03  0.31960461865E+03  0.90989147595E+02 0.  0.
         23    2    1    2    0    0  0.74833593979E+02  0.14362047361E+03 -0.15292081693E+03  0.24055525500E+03  0.90857840761E+02 0.  0.
        -11    1    3    3    0    0 -0.10328819398E+03 -0.17422166385E+03  0.13865019159E+03  0.24544961764E+03  0.00000000000E+00 0.  1.
         11    1    3    3    0    0  0.18205944424E+02 -0.52034988594E+02  0.49597053587E+02  0.74155001010E+02  0.00000000000E+00 0. -1.
        -13    1    4    4    0    0  0.11401277623E+02  0.11313356071E+03 -0.10950732364E+03  0.15786400990E+03  0.00000000000E+00 0. -1.
         13    1    4    4    0    0  0.63432316356E+02  0.30486912908E+02 -0.43413493288E+02  0.82691245101E+02  0.00000000000E+00 0.  1.
         21    1    1    2  502  501  0.10248655581E+02  0.82636178831E+02  0.99650670292E+01  0.83863433950E+02  0.00000000000E+00 0. -1.
<scales pt_clust_5="13000.00000" pt_clust_6="13000.00000" pt_clust_7="13000.00000" pt_clust_8="13000.00000" pt_clust_9="83.26928"></scales>
<clustering>
<clus scale="   83.269">  1  9  2 -1</clus>
<clus scale="   90.858">  7  8 -1 -1</clus>
<clus scale="   90.989">  5  6 -1 -1</clus>
<clus scale="  195.834">  2  7  1 -1</clus>
<clus scale="  195.834">  2  5  1 -1</clus>
</clustering>
</event>
<event>
 9    1  0.2423659E-006  0.1431845E+03  0.7546771E-02  0.1230902E+00
          1   -1    0    0  502    0  0.00000000000E+00  0.00000000000E+00  0.11932916508E+03  0.11932916508E+03  0.00000000000E+00 0. -1.
         -1   -1    0    0    0  501 -0.00000000000E+00 -0.00000000000E+00 -0.43749249713E+03  0.43749249713E+03  0.00000000000E+00 0.  1.
         23    2    1    2    0    0  0.72178383393E+02 -0.10465190225E+03 -0.12729226073E+02  0.15501791089E+03  0.87788267017E+02 0.  0.
         23    2    1    2    0    0 -0.17516194392E+02  0.78755806450E+01 -0.16319106545E+02  0.92060157003E+02  0.88543308231E+02 0.  0.
        -11    1    3    3    0    0  0.42162356547E+02 -0.95243593935E+02 -0.41755095465E+02  0.11221628444E+03  0.00000000000E+00 0. -1.
         11    1    3    3    0    0  0.30016026846E+02 -0.94083083151E+01  0.29025869393E+02  0.42801626452E+02  0.00000000000E+00 0.  1.
        -13    1    4    4    0    0  0.33304117003E+02 -0.91914565157E+01  0.38909868982E+01  0.34767612246E+02  0.00000000000E+00 0. -1.
         13    1    4    4    0    0 -0.50820311395E+02  0.17067037161E+02 -0.20210093443E+02  0.57292544757E+02  0.00000000000E+00 0.  1.
         21    1    1    2  502  501 -0.54662189001E+02  0.96776321605E+02 -0.28911499942E+03  0.30974359432E+03  0.00000000000E+00 0.  1.
<scales pt_clust_5="13000.00000" pt_clust_6="13000.00000" pt_clust_7="13000.00000" pt_clust_8="13000.00000" pt_clust_9="113.11502"></scales>
<clustering>
<clus scale="   87.788">  5  6 -1 -1</clus>
<clus scale="   88.543">  7  8 -1 -1</clus>
<clus scale="   90.602">  1  7  2 -1</clus>
<clus scale="  113.115">  2  9  1 -1</clus>
<clus scale="   90.602">  1  5  2 -1</clus>
</clustering>
</event>
<event>
 9    1  0.2423659E-006  0.9908987E+02  0.7546771E-02  0.1283556E+00
         -4   -1    0    0    0  501 -0.00000000000E+00  0.00000000000E+00  0.39656864168E+02  0.39656864168E+02  0.00000000000E+00 0.  1.
          4   -1    0    0  502    0  0.00000000000E+00 -0.00000000000E+00 -0.37336654076E+03  0.37336654076E+03  0.00000000000E+00 0. -1.
         23    2    1    2    0    0  0.22414840824E+02  0.43353565964E+02 -0.83441557198E+02  0.13146647148E+03  0.89100970174E+02 0.  0.
         23    2    1    2    0    0 -0.13102128781E+02 -0.15632164955E+02 -0.14927451600E+03  0.17641459846E+03  0.91777987898E+02 0.  0.
        -13    1    3    3    0    0  0.51389850368E+02  0.19500023285E+02 -0.21456146239E+02  0.59004523898E+02  0.00000000000E+00 0.  1.
         13    1    3    3    0    0 -0.28975009544E+02  0.23853542678E+02 -0.61985410958E+02  0.72461947587E+02  0.00000000000E+00 0. -1.
        -13    1    4    4    0    0  0.36268151114E+02 -0.44475547888E+01 -0.31580255942E+02  0.48295673659E+02  0.00000000000E+00 0.  1.
         13    1    4    4    0    0 -0.49370279895E+02 -0.11184610166E+02 -0.11769426005E+03  0.12811892480E+03  0.00000000000E+00 0. -1.
         21    1    1    2  502  501 -0.93127120427E+01 -0.27721401009E+02 -0.10099360339E+03  0.10514233499E+03  0.00000000000E+00 0.  1.
<scales pt_clust_5="13000.00000" pt_clust_6="13000.00000" pt_clust_7="13000.00000" pt_clust_8="13000.00000" pt_clust_9="29.24385"></scales>
<clustering>
<clus scale="   29.244">  2  9  1 -1</clus>
<clus scale="   89.101">  5  6 -1 -1</clus>
<clus scale="   91.778">  7  8 -1 -1</clus>
<clus scale="   96.616">  1  5  2 -1</clus>
<clus scale="   29.244">  2  5  1 -1</clus>
</clustering>
</event>
<event>
 9    1  0.2423659E-006  0.1038854E+03  0.7546771E-02  0.1276095E+00
         -1   -1    0    0    0  501 -0.00000000000E+00  0.00000000000E+00  0.32390317891E+02  0.32390317891E+02  0.00000000000E+00 0.  1.
          1   -1    0    0  502    0  0.00000000000E+00 -0.00000000000E+00 -0.57088467509E+03  0.57088467509E+03  0.00000000000E+00 0. -1.
         23    2    1    2    0    0 -0.16261054281E+02 -0.34002991726E+01 -0.14632597803E+03  0.17660009696E+03  0.97469577195E+02 0.  0.
         23    2    1    2    0    0  0.42673503661E+02 -0.14896495771E+02 -0.37876807953E+03  0.39186170573E+03  0.89707328846E+02 0.  0.
        -13    1    4    4    0    0  0.61227369322E+02 -0.26471957066E+02 -0.34662330301E+03  0.35298338410E+03  0.00000000000E+00 0.  1.
         13    1    4    4    0    0 -0.18553865661E+02  0.11575461294E+02 -0.32144776524E+02  0.38878321632E+02  0.00000000000E+00 0. -1.
        -13    1    3    3    0    0 -0.21064367128E+02 -0.46068721934E+02 -0.10695430030E+03  0.11834380869E+03  0.00000000000E+00 0. -1.
         13    1    3    3    0    0  0.48033128473E+01  0.42668422762E+02 -0.39371677729E+02  0.58256288266E+02  0.00000000000E+00 0.  1.
         21    1    1    2  502  501 -0.26412449380E+02  0.18296794944E+02 -0.13400299637E+02  0.34813190285E+02  0.00000000000E+00 0. -1.
<scales pt_clust_5="13000.00000" pt_clust_6="13000.00000" pt_clust_7="13000.00000" pt_clust_8="13000.00000" pt_clust_9="32.13083"></scales>
<clustering>
<clus scale="   32.131">  1  9  2 -1</clus>
<clus scale="   89.707">  5  6 -1 -1</clus>
<clus scale="   96.640">  2  5  1 -1</clus>
<clus scale="   97.470">  7  8 -1 -1</clus>
<clus scale="   96.640">  2  5  1 -1</clus>
</clustering>
</event>
<event>
 9    1  0.2423659E-006  0.9420330E+02  0.7546771E-02  0.1293738E+00
         -1   -1    0    0    0  501 -0.00000000000E+00  0.00000000000E+00  0.79744416464E+03  0.79744416464E+03  0.00000000000E+00 0.  1.
          1   -1    0    0  502    0  0.00000000000E+00 -0.00000000000E+00 -0.18746934413E+02  0.18746934413E+02  0.00000000000E+00 0. -1.
         23    2    1    2    0    0 -0.57314726770E+01 -0.16284868143E+02  0.31979652672E+03  0.33313487128E+03  0.91711380177E+02 0.  0.
         23    2    1    2    0    0  0.32156511361E+02 -0.11576349234E+02  0.20929136654E+03  0.23051048695E+03  0.90355715935E+02 0.  0.
        -11    1    4    4    0    0  0.53422207144E+02  0.20879592720E+02  0.11382745777E+03  0.12746207181E+03  0.00000000000E+00 0.  1.
         11    1    4    4    0    0 -0.21265695782E+02 -0.32455941954E+02  0.95463908767E+02  0.10304841514E+03  0.00000000000E+00 0. -1.
        -13    1    3    3    0    0  0.25686924130E+00  0.36923625612E+02  0.92072878746E+02  0.99200983416E+02  0.00000000000E+00 0.  1.
         13    1    3    3    0    0 -0.59883419183E+01 -0.53208493755E+02  0.22772364797E+03  0.23393388787E+03  0.00000000000E+00 0. -1.
         21    1    1    2  502  501 -0.26425038684E+02  0.27861217377E+02  0.24960933697E+03  0.25254574082E+03  0.00000000000E+00 0.  1.
<scales pt_clust_5="13000.00000" pt_clust_6="13000.00000" pt_clust_7="13000.00000" pt_clust_8="13000.00000" pt_clust_9="38.39961"></scales>
<clustering>
<clus scale="   38.400">  1  9  2 -1</clus>
<clus scale="   90.356">  5  6 -1 -1</clus>
<clus scale="   91.711">  7  8 -1 -1</clus>
<clus scale="   92.884">  2  5  1 -1</clus>
<clus scale="   92.884">  2  5  1 -1</clus>
</clustering>
</event>
<event>
 9    1  0.2423659E-006  0.1015682E+03  0.7546771E-02  0.1279713E+00
          1   -1    0    0  502    0  0.00000000000E+00  0.00000000000E+00  0.18645598092E+03  0.18645598092E+03  0.00000000000E+00 0. -1.
         -1   -1    0    0    0  501 -0.00000000000E+00 -0.00000000000E+00 -0.16822286810E+03  0.16822286810E+03  0.00000000000E+00 0.  1.
         23    2    1    2    0    0  0.15732891167E+02  0.49856990386E+02 -0.59225664395E+02  0.12085491846E+03  0.91460311813E+02 0.  0.
         23    2    1    2    0    0 -0.11415217129E+02  0.51619377442E+02  0.79717720706E+02  0.13223063176E+03  0.91297084686E+02 0.  0.
        -13    1    4    4    0    0  0.38225490122E+01  0.73493999420E+02  0.38268514098E+02  0.82948532253E+02  0.00000000000E+00 0. -1.
         13    1    4    4    0    0 -0.15237766142E+02 -0.21874621978E+02  0.41449206607E+02  0.49282099509E+02  0.00000000000E+00 0.  1.
        -13    1    3    3    0    0 -0.14208260887E+02  0.68249174779E+02 -0.33748709371E+02  0.77451920052E+02  0.00000000000E+00 0. -1.
         13    1    3    3    0    0  0.29941152054E+02 -0.18392184394E+02 -0.25476955024E+02  0.43402998403E+02  0.00000000000E+00 0.  1.
         21    1    1    2  502  501 -0.43176740374E+01 -0.10147636783E+03 -0.22589434894E+01  0.10159329881E+03  0.00000000000E+00 0.  1.
<scales pt_clust_5="13000.00000" pt_clust_6="13000.00000" pt_clust_7="13000.00000" pt_clust_8="13000.00000" pt_clust_9="101.56818"></scales>
<clustering>
<clus scale="   91.297">  5  6 -1 -1</clus>
<clus scale="   91.460">  7  8 -1 -1</clus>
<clus scale="  101.568">  2  9  1 -1</clus>
<clus scale="   96.503">  1  5  2 -1</clus>
<clus scale="   96.503">  1  5  2 -1</clus>
</clustering>
</event>
<event>
 9    1  0.2423659E-006  0.3405137E+03  0.7546771E-02  0.1112979E+00
          2   -1    0    0  502    0  0.00000000000E+00  0.00000000000E+00  0.10192868435E+04  0.10192868435E+04  0.00000000000E+00 0. -1.
         -2   -1    0    0    0  501 -0.00000000000E+00 -0.00000000000E+00 -0.65021483485E+03  0.65021483485E+03  0.00000000000E+00 0.  1.
         23    2    1    2    0    0  0.39332834012E+02  0.11731353740E+02 -0.22555992667E+03  0.24663496523E+03  0.90922104366E+02 0.  0.
         23    2    1    2    0    0  0.28540455928E+03 -0.72409154838E+02 -0.32354851274E+03  0.44706370771E+03  0.92105757092E+02 0.  0.
        -11    1    4    4    0    0  0.15793466809E+03 -0.86512749606E+02 -0.19669400426E+03  0.26667648291E+03  0.00000000000E+00 0. -1.
         11    1    4    4    0    0  0.12746989119E+03  0.14103594768E+02 -0.12685450849E+03  0.18038722480E+03  0.00000000000E+00 0.  1.
        -13    1    3    3    0    0  0.25639225943E+02  0.42848326423E+02 -0.19373561488E+03  0.20006708240E+03  0.00000000000E+00 0. -1.
         13    1    3    3    0    0  0.13693608068E+02 -0.31116972683E+02 -0.31824311786E+02  0.46567882833E+02  0.00000000000E+00 0.  1.
         21    1    1    2  502  501 -0.32473739330E+03  0.60677801098E+02  0.91818044804E+03  0.97580300539E+03  0.00000000000E+00 0. -1.
<scales pt_clust_5="13000.00000" pt_clust_6="13000.00000" pt_clust_7="13000.00000" pt_clust_8="13000.00000" pt_clust_9="327.82021"></scales>
<clustering>
<clus scale="   90.922">  7  8 -1 -1</clus>
<clus scale="   92.106">  5  6 -1 -1</clus>
<clus scale="   99.757">  2  7  1 -1</clus>
<clus scale="  327.820">  1  9  2 -1</clus>
<clus scale="  327.820">  1  5  2 -1</clus>
</clustering>
</event>
<event>
 9    1  0.2423659E-006  0.1417165E+03  0.7546771E-02  0.1230998E+00
         -4   -1    0    0    0  501 -0.00000000000E+00  0.00000000000E+00  0.61587271300E+03  0.61587271300E+03  0.00000000000E+00 0.  1.
          4   -1    0    0  502    0  0.00000000000E+00 -0.00000000000E+00 -0.65281958616E+02  0.65281958616E+02  0.00000000000E+00 0. -1.
         23    2    1    2    0    0  0.82454182517E+02  0.47330710002E+02  0.28658072428E+03  0.31578218898E+03  0.92471568727E+02 0.  0.
         23    2    1    2    0    0  0.23620040037E+02  0.69724663081E+01  0.22310997137E+02  0.95893358799E+02  0.89951287322E+02 0.  0.
        -11    1    4    4    0    0  0.42736871513E+01  0.41554430003E+02 -0.12015380115E+02  0.43467279810E+02  0.00000000000E+00 0.  1.
         11    1    4    4    0    0  0.19346352885E+02 -0.34581963695E+02  0.34326377252E+02  0.52426078989E+02  0.00000000000E+00 0. -1.
        -13    1    3    3    0    0  0.72440571008E+02  0.72993538135E+02  0.19946443506E+03  0.22441424597E+03  0.00000000000E+00 0. -1.
         13    1    3    3    0    0  0.10013611510E+02 -0.25662828134E+02  0.87116289216E+02  0.91367943011E+02  0.00000000000E+00 0.  1.
         21    1    1    2  502  501 -0.10607422255E+03 -0.54303176310E+02  0.24169903297E+03  0.26947912384E+03  0.00000000000E+00 0.  1.
<scales pt_clust_5="13000.00000" pt_clust_6="13000.00000" pt_clust_7="13000.00000" pt_clust_8="13000.00000" pt_clust_9="107.38982"></scales>
<clustering>
<clus scale="   89.951">  5  6 -1 -1</clus>
<clus scale="   92.472">  7  8 -1 -1</clus>
<clus scale="   93.262">  2  5  1 -1</clus>
<clus scale="  107.390">  2  9  1 -1</clus>
<clus scale="   93.262">  2  5  1 -1</clus>
</clustering>
</event>
<event>
 9    1  0.2423659E-006  0.1198374E+03  0.7546771E-02  0.1244702E+00
         -2   -1    0    0    0  501 -0.00000000000E+00  0.00000000000E+00  0.51565228611E+02  0.51565228611E+02  0.00000000000E+00 0.  1.
          2   -1    0    0  502    0  0.00000000000E+00 -0.00000000000E+00 -0.57363236041E+03  0.57363236041E+03  0.00000000000E+00 0. -1.
         23    2    1    2    0    0 -0.40707389110E+02 -0.52909633479E+02 -0.70825570180E+02  0.13542225213E+03  0.94161585250E+02 0.  0.
         23    2    1    2    0    0  0.92750586711E+02  0.48794123323E+02 -0.32371665424E+03  0.35197826202E+03  0.90070455203E+02 0.  0.
        -11    1    4    4    0    0  0.56722065123E+02  0.54208339149E+02 -0.10962893047E+03  0.13481260735E+03  0.00000000000E+00 0. -1.
         11    1    4    4    0    0  0.36028521588E+02 -0.54142158266E+01 -0.21408772377E+03  0.21716565467E+03  0.00000000000E+00 0.  1.
        -13    1    3    3    0    0 -0.26225166694E+02  0.12137716163E+02 -0.61736719320E+02  0.68165284670E+02  0.00000000000E+00 0. -1.
         13    1    3    3    0    0 -0.14482222416E+02 -0.65047349642E+02 -0.90888508601E+01  0.67256967457E+02  0.00000000000E+00 0.  1.
         21    1    1    2  502  501 -0.52043197601E+02  0.41155101566E+01 -0.12752490738E+03  0.13779707487E+03  0.00000000000E+00 0.  1.
<scales pt_clust_5="13000.00000" pt_clust_6="13000.00000" pt_clust_7="13000.00000" pt_clust_8="13000.00000" pt_clust_9="52.20567"></scales>
<clustering>
<clus scale="   52.206">  2  9  1 -1</clus>
<clus scale="   90.070">  5  6 -1 -1</clus>
<clus scale="   94.162">  7  8 -1 -1</clus>
<clus scale="  116.650">  2  5  1 -1</clus>
<clus scale="   52.206">  2  5  1 -1</clus>
</clustering>
</event>
<event>
 9    1  0.2423659E-006  0.1007762E+03  0.7546771E-02  0.1279657E+00
          1   -1    0    0  502    0  0.00000000000E+00  0.00000000000E+00  0.13919854440E+03  0.13919854440E+03  0.00000000000E+00 0. -1.
         -1   -1    0    0    0  501 -0.00000000000E+00 -0.00000000000E+00 -0.17998197295E+03  0.17998197295E+03  0.00000000000E+00 0.  1.
         23    2    1    2    0    0 -0.19642362135E+01  0.64229747073E+02 -0.73809431397E+02  0.13345959639E+03  0.90743115840E+02 0.  0.
         23    2    1    2    0    0  0.32871846379E+02  0.48136809037E+01 -0.93857320353E+01  0.98997045534E+02  0.92782505088E+02 0.  0.
        -13    1    4    4    0    0  0.51886829505E+02  0.29753635375E+02 -0.23936238707E+02  0.64424105873E+02  0.00000000000E+00 0.  1.
         13    1    4    4    0    0 -0.19014983127E+02 -0.24939954472E+02  0.14550506672E+02  0.34572939660E+02  0.00000000000E+00 0. -1.
        -13    1    3    3    0    0  0.36907398163E+02  0.30510515590E+02 -0.65802252005E+02  0.81381717662E+02  0.00000000000E+00 0.  1.
         13    1    3    3    0    0 -0.38871634377E+02  0.33719231483E+02 -0.80071793926E+01  0.52077878728E+02  0.00000000000E+00 0. -1.
         21    1    1    2  502  501 -0.30907610165E+02 -0.69043427976E+02  0.42411734887E+02  0.86723875426E+02  0.00000000000E+00 0. -1.
<scales pt_clust_5="13000.00000" pt_clust_6="13000.00000" pt_clust_7="13000.00000" pt_clust_8="13000.00000" pt_clust_9="75.64572"></scales>
<clustering>
<clus scale="   75.646">  1  9  2 -1</clus>
<clus scale="   90.743">  7  8 -1 -1</clus>
<clus scale="   92.783">  5  6 -1 -1</clus>
<clus scale="   98.902">  2  7  1 -1</clus>
<clus scale="   75.646">  1  5  2 -1</clus>
</clustering>
</event>
<event>
 9    1  0.2423659E-006  0.1550844E+03  0.7546771E-02  0.1210911E+00
          2   -1    0    0  502    0  0.00000000000E+00  0.00000000000E+00  0.29659872033E+03  0.29659872033E+03  0.00000000000E+00 0. -1.
         -2   -1    0    0    0  501 -0.00000000000E+00 -0.00000000000E+00 -0.13827103554E+03  0.13827103554E+03  0.00000000000E+00 0.  1.
         23    2    1    2    0    0 -0.71220876053E+02 -0.51524889787E+02  0.22061691164E+02  0.13872029155E+03  0.10502082468E+03 0.  0.
         23    2    1    2    0    0 -0.39810383938E+02 -0.41440979092E+02  0.98509902110E+02  0.14649614521E+03  0.91949433552E+02 0.  0.
        -11    1    4    4    0    0 -0.13534522541E+02 -0.38123226561E+02 -0.39704549651E+01  0.40648840285E+02  0.00000000000E+00 0.  1.
         11    1    4    4    0    0 -0.26275861397E+02 -0.33177525313E+01  0.10248035707E+03  0.10584730493E+03  0.00000000000E+00 0. -1.
        -13    1    3    3    0    0 -0.74813985047E+02 -0.12908187696E+02  0.50014514306E+02  0.90913174565E+02  0.00000000000E+00 0. -1.
         13    1    3    3    0    0  0.35931089939E+01 -0.38616702091E+02 -0.27952823142E+02  0.47807116983E+02  0.00000000000E+00 0.  1.
         21    1    1    2  502  501  0.11103125999E+03  0.92965868880E+02  0.37756091515E+02  0.14965331910E+03  0.00000000000E+00 0.  1.
<scales pt_clust_5="13000.00000" pt_clust_6="13000.00000" pt_clust_7="13000.00000" pt_clust_8="13000.00000" pt_clust_9="114.11310"></scales>
<clustering>
<clus scale="   91.949">  5  6 -1 -1</clus>
<clus scale="  105.021">  7  8 -1 -1</clus>
<clus scale="  108.429">  1  5  2 -1</clus>
<clus scale="  114.113">  1  9  2 -1</clus>
<clus scale="  108.429">  1  5  2 -1</clus>
</clustering>
</event>
<event>
 9    1  0.2423659E-006  0.1602246E+03  0.7546771E-02  0.1205599E+00
         -2   -1    0    0    0  501 -0.00000000000E+00  0.00000000000E+00  0.12051147384E+03  0.12051147384E+03  0.00000000000E+00 0.  1.
          2   -1    0    0  502    0  0.00000000000E+00 -0.00000000000E+00 -0.63316856011E+03  0.63316856011E+03  0.00000000000E+00 0. -1.
         23    2    1    2    0    0 -0.54898875514E+02 -0.20764931244E+02 -0.70337581066E+02  0.13071214506E+03  0.93237442337E+02 0.  0.
         23    2    1    2    0    0 -0.12118689599E+03 -0.18227242395E+02 -0.41270529314E+03  0.44020139829E+03  0.91831998489E+02 0.  0.
        -11    1    4    4    0    0 -0.74510221232E+01  0.28187039331E+02 -0.10227647018E+03  0.10635084988E+03  0.00000000000E+00 0.  1.
         11    1    4    4    0    0 -0.11373587387E+03 -0.46414281725E+02 -0.31042882295E+03  0.33385054841E+03  0.00000000000E+00 0. -1.
        -13    1    3    3    0    0 -0.12042893492E+01 -0.42617871141E+02 -0.43181115526E+01  0.42852996871E+02  0.00000000000E+00 0. -1.
         13    1    3    3    0    0 -0.53694586165E+02  0.21852939897E+02 -0.66019469513E+02  0.87859148188E+02  0.00000000000E+00 0.  1.
         21    1    1    2  502  501  0.17608577151E+03  0.38992173638E+02 -0.29614212073E+02  0.18276649061E+03  0.00000000000E+00 0.  1.
<scales pt_clust_5="13000.00000" pt_clust_6="13000.00000" pt_clust_7="13000.00000" pt_clust_8="13000.00000" pt_clust_9="131.29666"></scales>
<clustering>
<clus scale="   91.832">  5  6 -1 -1</clus>
<clus scale="   93.237">  7  8 -1 -1</clus>
<clus scale="  110.174">  1  7  2 -1</clus>
<clus scale="  131.297">  1  9  2 -1</clus>
<clus scale="  160.225">  2  5  1 -1</clus>
</clustering>
</event>
<event>
 9    1  0.2423659E-006  0.1040774E+03  0.7546771E-02  0.1272069E+00
          1   -1    0    0  502    0  0.00000000000E+00  0.00000000000E+00  0.35098560330E+02  0.35098560330E+02  0.00000000000E+00 0. -1.
         -1   -1    0    0    0  501 -0.00000000000E+00 -0.00000000000E+00 -0.58380661367E+03  0.58380661367E+03  0.00000000000E+00 0.  1.
         23    2    1    2    0    0 -0.64478202820E+02  0.36614364993E+01 -0.17090895915E+03  0.20428510362E+03  0.91387561985E+02 0.  0.
         23    2    1    2    0    0  0.35241831333E+02 -0.20922033278E+02 -0.12725905594E+03  0.16179007931E+03  0.91112262035E+02 0.  0.
        -11    1    4    4    0    0 -0.14608953990E+02  0.16677141319E+02 -0.25427558541E+01  0.22316231460E+02  0.00000000000E+00 0. -1.
         11    1    4    4    0    0  0.49850785323E+02 -0.37599174597E+02 -0.12471630008E+03  0.13947384785E+03  0.00000000000E+00 0.  1.
        -13    1    3    3    0    0 -0.37030613575E+02 -0.40897530099E+02 -0.11588266948E+03  0.12834588967E+03  0.00000000000E+00 0.  1.
         13    1    3    3    0    0 -0.27447589245E+02  0.44558966598E+02 -0.55026289673E+02  0.75939213947E+02  0.00000000000E+00 0. -1.
         21    1    1    2  502  501  0.29236371487E+02  0.17260596779E+02 -0.25054003825E+03  0.25282999107E+03  0.00000000000E+00 0. -1.
<scales pt_clust_5="13000.00000" pt_clust_6="13000.00000" pt_clust_7="13000.00000" pt_clust_8="13000.00000" pt_clust_9="33.95134"></scales>
<clustering>
<clus scale="   33.951">  2  9  1 -1</clus>
<clus scale="   91.112">  5  6 -1 -1</clus>
<clus scale="   91.388">  7  8 -1 -1</clus>
<clus scale="  103.836">  1  5  2 -1</clus>
<clus scale="  103.836">  1  5  2 -1</clus>
</clustering>
</event>
<event>
 9    1  0.2423659E-006  0.5082189E+03  0.7546771E-02  0.1034671E+00
          2   -1    0    0  502    0  0.00000000000E+00  0.00000000000E+00  0.17042625246E+04  0.17042625246E+04  0.00000000000E+00 0. -1.
         -2   -1    0    0    0  501 -0.00000000000E+00 -0.00000000000E+00 -0.31018018239E+03  0.31018018239E+03  0.00000000000E+00 0.  1.
         23    2    1    2    0    0  0.19362891069E+03 -0.38855348356E+03  0.20553420481E+03  0.48891722744E+03  0.91267635535E+02 0.  0.
         23    2    1    2    0    0  0.18931108156E+03 -0.12748202470E+03  0.60987470006E+03  0.66077197102E+03  0.11216994107E+03 0.  0.
        -11    1    4    4    0    0  0.19391553440E+03 -0.85355862241E+02  0.50273889692E+03  0.54555958078E+03  0.00000000000E+00 0.  1.
         11    1    4    4    0    0 -0.46044528386E+01 -0.42126162463E+02  0.10713580314E+03  0.11521239024E+03  0.00000000000E+00 0. -1.
        -11    1    3    3    0    0  0.17142469557E+03 -0.28001407615E+03  0.12234948567E+03  0.35037651996E+03  0.00000000000E+00 0.  1.
         11    1    3    3    0    0  0.22204215117E+02 -0.10853940740E+03  0.83184719145E+02  0.13854070747E+03  0.00000000000E+00 0. -1.
         21    1    1    2  502  501 -0.38293999225E+03  0.51603550826E+03  0.57867343730E+03  0.86475350851E+03  0.00000000000E+00 0. -1.
<scales pt_clust_5="13000.00000" pt_clust_6="13000.00000" pt_clust_7="13000.00000" pt_clust_8="13000.00000" pt_clust_9="499.95667"></scales>
<clustering>
<clus scale="   91.268">  7  8 -1 -1</clus>
<clus scale="  112.170">  5  6 -1 -1</clus>
<clus scale="  254.308">  1  5  2 -1</clus>
<clus scale="  499.957">  1  9  2 -1</clus>
<clus scale="  254.308">  1  5  2 -1</clus>
</clustering>
</event>
<event>
 9    1  0.2423659E-006  0.1608550E+03  0.7546771E-02  0.1192553E+00
          1   -1    0    0  502    0  0.00000000000E+00  0.00000000000E+00  0.14655299207E+03  0.14655299207E+03  0.00000000000E+00 0. -1.
         -1   -1    0    0    0  501 -0.00000000000E+00 -0.00000000000E+00 -0.25539497851E+03  0.25539497851E+03  0.00000000000E+00 0.  1.
         23    2    1    2    0    0 -0.64931369651E+02  0.11541419239E+03 -0.14770335579E+03  0.21177055776E+03  0.74121314444E+02 0.  0.
         23    2    1    2    0    0  0.61483239441E+02 -0.84850118350E+02  0.80252499496E+01  0.14662378515E+03  0.10224675260E+03 0.  0.
        -11    1    3    3    0    0 -0.79781108331E+01  0.31465896642E+02  0.14995757335E+00  0.32461906771E+02  0.00000000000E+00 0. -1.
         11    1    3    3    0    0 -0.56953258818E+02  0.83948295745E+02 -0.14785331336E+03  0.17930865099E+03  0.00000000000E+00 0.  1.
        -11    1    4    4    0    0  0.42066502570E+02  0.14378999395E+02  0.96865084904E+01  0.45499172617E+02  0.00000000000E+00 0. -1.
         11    1    4    4    0    0  0.19416736871E+02 -0.99229117745E+02 -0.16612585409E+01  0.10112461253E+03  0.00000000000E+00 0.  1.
         21    1    1    2  502  501  0.34481302107E+01 -0.30564074037E+02  0.30836119402E+02  0.43553627672E+02  0.00000000000E+00 0. -1.
<scales pt_clust_5="13000.00000" pt_clust_6="13000.00000" pt_clust_7="13000.00000" pt_clust_8="13000.00000" pt_clust_9="30.75796"></scales>
<clustering>
<clus scale="   30.758">  1  9  2 -1</clus>
<clus scale="   74.121">  5  6 -1 -1</clus>
<clus scale="  102.247">  7  8 -1 -1</clus>
<clus scale="  144.616">  2  5  1 -1</clus>
<clus scale="   30.758">  1  5  2 -1</clus>
</clustering>
</event>
<event>
 9    1  0.2423659E-006  0.2020687E+03  0.7546771E-02  0.1181113E+00
          2   -1    0    0  502    0  0.00000000000E+00  0.00000000000E+00  0.66436972535E+03  0.66436972535E+03  0.00000000000E+00 0. -1.
         -2   -1    0    0    0  501 -0.00000000000E+00 -0.00000000000E+00 -0.10552757074E+03  0.10552757074E+03  0.00000000000E+00 0.  1.
         23    2    1    2    0    0 -0.14216460662E+02 -0.16815002916E+02  0.44300411077E+02  0.10396738515E+03  0.91443089823E+02 0.  0.
         23    2    1    2    0    0 -0.48422351478E+01 -0.17486895889E+03  0.38856424754E+03  0.43576409115E+03  0.91134892596E+02 0.  0.
        -11    1    3    3    0    0 -0.15989218644E+02 -0.44922689473E+02 -0.42156167236E+01  0.47869348927E+02  0.00000000000E+00 0.  1.
         11    1    3    3    0    0  0.17727579819E+01  0.28107686558E+02  0.48516027800E+02  0.56098036222E+02  0.00000000000E+00 0. -1.
        -13    1    4    4    0    0 -0.25643727964E+02 -0.26366962961E+02  0.31261399169E+02  0.48271032697E+02  0.00000000000E+00 0. -1.
         13    1    4    4    0    0  0.20801492816E+02 -0.14850199593E+03  0.35730284837E+03  0.38749305846E+03  0.00000000000E+00 0.  1.
         21    1    1    2  502  501  0.19058695810E+02  0.19168396181E+03  0.12597749600E+03  0.23016581979E+03  0.00000000000E+00 0. -1.
<scales pt_clust_5="13000.00000" pt_clust_6="13000.00000" pt_clust_7="13000.00000" pt_clust_8="13000.00000" pt_clust_9="180.35018"></scales>
<clustering>
<clus scale="   91.135">  7  8 -1 -1</clus>
<clus scale="   91.443">  5  6 -1 -1</clus>
<clus scale="   94.057">  2  5  1 -1</clus>
<clus scale="  180.350">  2  9  1 -1</clus>
<clus scale="  202.069">  1  5  2 -1</clus>
</clustering>
</event>
<event>
 9    1  0.2423659E-006  0.1994596E+03  0.7546771E-02  0.1180054E+00
         -2   -1    0    0    0  501 -0.00000000000E+00  0.00000000000E+00  0.90629076386E+02  0.90629076386E+02  0.00000000000E+00 0.  1.
          2   -1    0    0  502    0  0.00000000000E+00 -0.00000000000E+00 -0.82216980111E+03  0.82216980111E+03  0.00000000000E+00 0. -1.
         23    2    1    2    0    0 -0.11560221127E+03 -0.89372821369E+02 -0.41871080990E+03  0.45315370016E+03  0.93156648666E+02 0.  0.
         23    2    1    2    0    0 -0.24735980551E+02 -0.32524502524E+02 -0.23989669762E+03  0.25996288011E+03  0.91436106145E+02 0.  0.
        -11    1    3    3    0    0 -0.61392044714E+02  0.74548410182E+01 -0.16628353148E+03  0.17741130362E+03  0.00000000000E+00 0.  1.
         11    1    3    3    0    0 -0.54210166552E+02 -0.96827662387E+02 -0.25242727842E+03  0.27574239654E+03  0.00000000000E+00 0. -1.
        -13    1    4    4    0    0 -0.54765761957E+02 -0.41580412451E+02 -0.16734744631E+03  0.18092370538E+03  0.00000000000E+00 0.  1.
         13    1    4    4    0    0  0.30029781406E+02  0.90559099266E+01 -0.72549251312E+02  0.79039174729E+02  0.00000000000E+00 0. -1.
         21    1    1    2  502  501  0.14033819182E+03  0.12189732389E+03 -0.72933217201E+02  0.19968229723E+03  0.00000000000E+00 0.  1.
<scales pt_clust_5="13000.00000" pt_clust_6="13000.00000" pt_clust_7="13000.00000" pt_clust_8="13000.00000" pt_clust_9="176.36883"></scales>
<clustering>
<clus scale="   91.436">  7  8 -1 -1</clus>
<clus scale="   93.157">  5  6 -1 -1</clus>
<clus scale="  100.151">  2  7  1 -1</clus>
<clus scale="  176.369">  1  9  2 -1</clus>
<clus scale="  100.151">  2  5  1 -1</clus>
</clustering>
</event>
<event>
 9    1  0.2423659E-006  0.1147231E+03  0.7546771E-02  0.1262137E+00
         -2   -1    0    0    0  501 -0.00000000000E+00  0.00000000000E+00  0.12864691931E+03  0.12864691931E+03  0.00000000000E+00 0.  1.
          2   -1    0    0  502    0  0.00000000000E+00 -0.00000000000E+00 -0.23142878993E+03  0.23142878993E+03  0.00000000000E+00 0. -1.
         23    2    1    2    0    0  0.17300482220E+02 -0.26026640839E+02  0.35243205813E+02  0.10231207314E+03  0.90823917752E+02 0.  0.
         23    2    1    2    0    0  0.59847046153E+02  0.18822039397E+02 -0.43709870860E+02  0.13570215397E+03  0.11210969486E+03 0.  0.
        -13    1    4    4    0    0 -0.18257282702E+02  0.42600378767E+02 -0.10247946309E+02  0.47467262890E+02  0.00000000000E+00 0. -1.
         13    1    4    4    0    0  0.78104328855E+02 -0.23778339370E+02 -0.33461924551E+02  0.88234891079E+02  0.00000000000E+00 0.  1.
        -13    1    3    3    0    0  0.53484417735E+02 -0.53351500656E+01  0.14072453920E+02  0.55561503993E+02  0.00000000000E+00 0.  1.
         13    1    3    3    0    0 -0.36183935515E+02 -0.20691490773E+02  0.21170751892E+02  0.46750569146E+02  0.00000000000E+00 0. -1.
         21    1    1    2  502  501 -0.77147528373E+02  0.72046014423E+01 -0.94315205574E+02  0.12206148212E+03  0.00000000000E+00 0. -1.
<scales pt_clust_5="13000.00000" pt_clust_6="13000.00000" pt_clust_7="13000.00000" pt_clust_8="13000.00000" pt_clust_9="77.48321"></scales>
<clustering>
<clus scale="   77.483">  2  9  1 -1</clus>
<clus scale="   90.824">  7  8 -1 -1</clus>
<clus scale="   94.031">  1  7  2 -1</clus>
<clus scale="  112.110">  5  6 -1 -1</clus>
<clus scale="   77.483">  2  5  1 -1</clus>
</clustering>
</event>
<event>
 9    1  0.2423659E-006  0.1056201E+03  0.7546771E-02  0.1269007E+00
         -1   -1    0    0    0  501 -0.00000000000E+00  0.00000000000E+00  0.19193893887E+02  0.19193893887E+02  0.00000000000E+00 0.  1.
          1   -1    0    0  502    0  0.00000000000E+00 -0.00000000000E+00 -0.82557512249E+03  0.82557512249E+03  0.00000000000E+00 0. -1.
         23    2    1    2    0    0  0.19518451499E+02 -0.67977551853E+02 -0.42097671351E+03  0.43622913264E+03  0.89847344652E+02 0.  0.
         23    2    1    2    0    0 -0.16634929769E+02  0.37254099413E+02 -0.33632038737E+03  0.35056146688E+03  0.90096338916E+02 0.  0.
        -11    1    4    4    0    0  0.89109274086E+00 -0.26584993791E+02 -0.16052908040E+03  0.16271798178E+03  0.00000000000E+00 0. -1.
         11    1    4    4    0    0 -0.17526022510E+02  0.63839093204E+02 -0.17579130697E+03  0.18784348510E+03  0.00000000000E+00 0.  1.
        -13    1    3    3    0    0  0.52886192822E+02 -0.23454220214E+02 -0.18798411530E+03  0.19668522426E+03  0.00000000000E+00 0.  1.
         13    1    3    3    0    0 -0.33367741323E+02 -0.44523331639E+02 -0.23299259822E+03  0.23954390839E+03  0.00000000000E+00 0. -1.
         21    1    1    2  502  501 -0.28835217300E+01  0.30723452440E+02 -0.49084127723E+02  0.57978416861E+02  0.00000000000E+00 0. -1.
<scales pt_clust_5="13000.00000" pt_clust_6="13000.00000" pt_clust_7="13000.00000" pt_clust_8="13000.00000" pt_clust_9="30.85847"></scales>
<clustering>
<clus scale="   30.858">  1  9  2 -1</clus>
<clus scale="   89.847">  7  8 -1 -1</clus>
<clus scale="   90.096">  5  6 -1 -1</clus>
<clus scale="  105.408">  1  7  2 -1</clus>
<clus scale="  105.620">  2  5  1 -1</clus>
</clustering>
</event>
<event>
 9    1  0.2423659E-006  0.9790817E+02  0.7546771E-02  0.1285541E+00
          2   -1    0    0  502    0  0.00000000000E+00  0.00000000000E+00  0.27441663404E+03  0.27441663404E+03  0.00000000000E+00 0. -1.
         -2   -1    0    0    0  501 -0.00000000000E+00 -0.00000000000E+00 -0.14891614318E+03  0.14891614318E+03  0.00000000000E+00 0.  1.
         23    2    1    2    0    0  0.34342362676E+02  0.45177588541E+02 -0.86165728064E+02  0.13849939699E+03  0.92396633555E+02 0.  0.
         23    2    1    2    0    0 -0.13796201697E+02 -0.27077601853E+02  0.23181483181E+03  0.25083748563E+03  0.90872417402E+02 0.  0.
        -11    1    3    3    0    0 -0.25399049170E+02  0.24974758023E+02 -0.60918394127E+02  0.70568413473E+02  0.00000000000E+00 0. -1.
         11    1    3    3    0    0  0.59741411845E+02  0.20202830517E+02 -0.25247333937E+02  0.67930983514E+02  0.00000000000E+00 0.  1.
        -13    1    4    4    0    0  0.38420835193E+02 -0.12402483899E+02  0.79715625044E+02  0.89356382313E+02  0.00000000000E+00 0. -1.
         13    1    4    4    0    0 -0.52217036889E+02 -0.14675117954E+02  0.15209920677E+03  0.16148110331E+03  0.00000000000E+00 0.  1.
         21    1    1    2  502  501 -0.20546160979E+02 -0.18099986688E+02 -0.20148612880E+02  0.33995894606E+02  0.00000000000E+00 0.  1.
<scales pt_clust_5="13000.00000" pt_clust_6="13000.00000" pt_clust_7="13000.00000" pt_clust_8="13000.00000" pt_clust_9="27.38164"></scales>
<clustering>
<clus scale="   27.382">  2  9  1 -1</clus>
<clus scale="   90.872">  7  8 -1 -1</clus>
<clus scale="   92.397">  5  6 -1 -1</clus>
<clus scale="   96.471">  1  7  2 -1</clus>
<clus scale="   96.471">  1  5  2 -1</clus>
</clustering>
</event>
<event>
 9    1  0.2423659E-006  0.9419679E+02  0.7546771E-02  0.1293125E+00
          2   -1    0    0  502    0  0.00000000000E+00  0.00000000000E+00  0.34853899681E+02  0.34853899681E+02  0.00000000000E+00 0. -1.
         -2   -1    0    0    0  501 -0.00000000000E+00 -0.00000000000E+00 -0.46035125002E+03  0.46035125002E+03  0.00000000000E+00 0.  1.
         23    2    1    2    0    0  0.13487922235E+02 -0.27100406893E+02 -0.16924008337E+03  0.19534816738E+03  0.92748825220E+02 0.  0.
         23    2    1    2    0    0 -0.19605968599E+02 -0.29278847455E+02 -0.16243403314E+03  0.19022646641E+03  0.92518368387E+02 0.  0.
        -11    1    4    4    0    0  0.79355332132E+01 -0.53176654563E+02 -0.13269206230E+03  0.14317092119E+03  0.00000000000E+00 0.  1.
         11    1    4    4    0    0 -0.27541501812E+02  0.23897807108E+02 -0.29741970844E+02  0.47055545224E+02  0.00000000000E+00 0. -1.
        -13    1    3    3    0    0 -0.64142897219E+01 -0.43810802979E+02 -0.16260719289E+03  0.16852782782E+03  0.00000000000E+00 0. -1.
         13    1    3    3    0    0  0.19902211957E+02  0.16710396085E+02 -0.66328904834E+01  0.26820339563E+02  0.00000000000E+00 0.  1.
         21    1    1    2  502  501  0.61180463641E+01  0.56379254348E+02 -0.93823233829E+02  0.10963051591E+03  0.00000000000E+00 0. -1.
<scales pt_clust_5="13000.00000" pt_clust_6="13000.00000" pt_clust_7="13000.00000" pt_clust_8="13000.00000" pt_clust_9="56.71024"></scales>
<clustering>
<clus scale="   56.710">  1  9  2 -1</clus>
<clus scale="   92.518">  5  6 -1 -1</clus>
<clus scale="   92.749">  7  8 -1 -1</clus>
<clus scale="   93.970">  1  5  2 -1</clus>
<clus scale="   56.710">  1  5  2 -1</clus>
</clustering>
</event>
<event>
 9    1  0.2423659E-006  0.1677872E+03  0.7546771E-02  0.1203463E+00
         -1   -1    0    0    0  501 -0.00000000000E+00  0.00000000000E+00  0.51522409824E+03  0.51522409824E+03  0.00000000000E+00 0.  1.
          1   -1    0    0  502    0  0.00000000000E+00 -0.00000000000E+00 -0.10805315036E+03  0.10805315036E+03  0.00000000000E+00 0. -1.
         23    2    1    2    0    0 -0.35068572182E+02 -0.11396927202E+01  0.25815186004E+03  0.27700883905E+03  0.94129753088E+02 0.  0.
         23    2    1    2    0    0 -0.10214846668E+03 -0.73823699952E+02  0.68207995003E+02  0.17026142468E+03  0.91936794773E+02 0.  0.
        -11    1    3    3    0    0 -0.70333984032E+01  0.42764182649E+02  0.75294060634E+02  0.86876001160E+02  0.00000000000E+00 0.  1.
         11    1    3    3    0    0 -0.28035173779E+02 -0.43903875370E+02  0.18285779941E+03  0.19013283789E+03  0.00000000000E+00 0. -1.
        -13    1    4    4    0    0 -0.53355213392E+01 -0.38516691572E+02 -0.10860176774E+02  0.40372599089E+02  0.00000000000E+00 0.  1.
         13    1    4    4    0    0 -0.96812945338E+02 -0.35307008379E+02  0.79068171777E+02  0.12988882559E+03  0.00000000000E+00 0. -1.
         21    1    1    2  502  501  0.13721703886E+03  0.74963392672E+02  0.80811092841E+02  0.17600698486E+03  0.00000000000E+00 0. -1.
<scales pt_clust_5="13000.00000" pt_clust_6="13000.00000" pt_clust_7="13000.00000" pt_clust_8="13000.00000" pt_clust_9="140.35724"></scales>
<clustering>
<clus scale="   91.937">  7  8 -1 -1</clus>
<clus scale="   94.130">  5  6 -1 -1</clus>
<clus scale="  100.457">  1  5  2 -1</clus>
<clus scale="  140.357">  1  9  2 -1</clus>
<clus scale="  167.787">  2  5  1 -1</clus>
</clustering>
</event>
<event>
 9    1  0.2423659E-006  0.9509179E+02  0.7546771E-02  0.1304190E+00
          1   -1    0    0  502    0  0.00000000000E+00  0.00000000000E+00  0.22723037639E+03  0.22723037639E+03  0.00000000000E+00 0. -1.
         -1   -1    0    0    0  501 -0.00000000000E+00 -0.00000000000E+00 -0.15162022319E+03  0.15162022319E+03  0.00000000000E+00 0.  1.
         23    2    1    2    0    0 -0.14031351611E+02 -0.48940218657E+01 -0.80799017904E+02  0.12378126288E+03  0.92587739298E+02 0.  0.
         23    2    1    2    0    0  0.27329443951E+02 -0.42652770225E+02 -0.37382972854E+01  0.87484288644E+02  0.71227582989E+02 0.  0.
        -11    1    3    3    0    0  0.19178337889E+02  0.35933155458E+02 -0.41055501773E+02  0.57832123696E+02  0.00000000000E+00 0.  1.
         11    1    3    3    0    0 -0.33209689500E+02 -0.40827177324E+02 -0.39743516132E+02  0.65949139186E+02  0.00000000000E+00 0. -1.
        -11    1    4    4    0    0  0.14472066738E+02  0.19244180539E+02 -0.29727889791E+01  0.24261423590E+02  0.00000000000E+00 0.  1.
         11    1    4    4    0    0  0.12857377213E+02 -0.61896950764E+02 -0.76550830635E+00  0.63222865054E+02  0.00000000000E+00 0. -1.
         21    1    1    2  502  501 -0.13298092340E+02  0.47546792090E+02  0.16014746839E+03  0.16758504805E+03  0.00000000000E+00 0.  1.
<scales pt_clust_5="13000.00000" pt_clust_6="13000.00000" pt_clust_7="13000.00000" pt_clust_8="13000.00000" pt_clust_9="49.37142"></scales>
<clustering>
<clus scale="   49.371">  1  9  2 -1</clus>
<clus scale="   71.228">  7  8 -1 -1</clus>
<clus scale="   74.454">  1  7  2 -1</clus>
<clus scale="   92.588">  5  6 -1 -1</clus>
<clus scale="   49.371">  1  5  2 -1</clus>
</clustering>
</event>
<event>
 9    1  0.2423659E-006  0.9726367E+02  0.7546771E-02  0.1287040E+00
          1   -1    0    0  502    0  0.00000000000E+00  0.00000000000E+00  0.27545345388E+03  0.27545345388E+03  0.00000000000E+00 0. -1.
         -1   -1    0    0    0  501 -0.00000000000E+00 -0.00000000000E+00 -0.12532171518E+03  0.12532171518E+03  0.00000000000E+00 0.  1.
         23    2    1    2    0    0  0.52694312086E+01 -0.29144454842E+02  0.26907897890E+02  0.10032365836E+03  0.91998017939E+02 0.  0.
         23    2    1    2    0    0  0.26551373673E+02  0.14704739998E+02  0.19621188593E+03  0.21952979719E+03  0.93664416153E+02 0.  0.
        -11    1    4    4    0    0 -0.20104331042E+02  0.39337533797E+02  0.10884476135E+03  0.11746832665E+03  0.00000000000E+00 0.  1.
         11    1    4    4    0    0  0.46655704715E+02 -0.24632793798E+02  0.87367124576E+02  0.10206147054E+03  0.00000000000E+00 0. -1.
        -11    1    3    3    0    0 -0.39954307948E+02  0.34675336131E+01  0.17598434979E+02  0.43795838006E+02  0.00000000000E+00 0.  1.
         11    1    3    3    0    0  0.45223739157E+02 -0.32611988455E+02  0.93094629104E+01  0.56527820354E+02  0.00000000000E+00 0. -1.
         21    1    1    2  502  501 -0.31820804881E+02  0.14439714844E+02 -0.72988045116E+02  0.80921713513E+02  0.00000000000E+00 0.  1.
<scales pt_clust_5="13000.00000" pt_clust_6="13000.00000" pt_clust_7="13000.00000" pt_clust_8="13000.00000" pt_clust_9="34.94380"></scales>
<clustering>
<clus scale="   34.944">  2  9  1 -1</clus>
<clus scale="   91.998">  7  8 -1 -1</clus>
<clus scale="   93.664">  5  6 -1 -1</clus>
<clus scale="   95.660">  2  7  1 -1</clus>
<clus scale="   97.264">  1  5  2 -1</clus>
</clustering>
</event>
<event>
 9    1  0.2423659E-006  0.9702788E+02  0.7546771E-02  0.1286820E+00
         -1   -1    0    0    0  501 -0.00000000000E+00  0.00000000000E+00  0.88946345622E+02  0.88946345622E+02  0.00000000000E+00 0.  1.
          1   -1    0    0  502    0  0.00000000000E+00 -0.00000000000E+00 -0.23647772464E+03  0.23647772464E+03  0.00000000000E+00 0. -1.
         23    2    1    2    0    0  0.20361091757E+02  0.13582052303E+02 -0.22692470420E+02  0.97686880642E+02  0.91808127274E+02 0.  0.
         23    2    1    2    0    0  0.54529821617E+00  0.54260208190E+02 -0.11339254545E+03  0.15582982783E+03  0.92090164149E+02 0.  0.
        -11    1    4    4    0    0  0.36800291463E+02  0.59701818357E+02 -0.71323832555E+02  0.10002828429E+03  0.00000000000E+00 0.  1.
         11    1    4    4    0    0 -0.36254993247E+02 -0.54416101669E+01 -0.42068712898E+02  0.55801543540E+02  0.00000000000E+00 0. -1.
        -13    1    3    3    0    0  0.56641569574E+02  0.28485914133E+01 -0.18327576742E+02  0.59601023029E+02  0.00000000000E+00 0.  1.
         13    1    3    3    0    0 -0.36280477817E+02  0.10733460889E+02 -0.43648936780E+01  0.38085857613E+02  0.00000000000E+00 0. -1.
         21    1    1    2  502  501 -0.20906389973E+02 -0.67842260492E+02 -0.11446363142E+02  0.71907361790E+02  0.00000000000E+00 0.  1.
<scales pt_clust_5="13000.00000" pt_clust_6="13000.00000" pt_clust_7="13000.00000" pt_clust_8="13000.00000" pt_clust_9="70.99049"></scales>
<clustering>
<clus scale="   70.990">  1  9  2 -1</clus>
<clus scale="   91.808">  7  8 -1 -1</clus>
<clus scale="   92.090">  5  6 -1 -1</clus>
<clus scale="   96.760">  1  7  2 -1</clus>
<clus scale="   97.028">  2  5  1 -1</clus>
</clustering>
</event>
<event>
 9    1  0.2423659E-006  0.1714939E+03  0.7546771E-02  0.1204668E+00
          2   -1    0    0  502    0  0.00000000000E+00  0.00000000000E+00  0.16399085098E+04  0.16399085098E+04  0.00000000000E+00 0.  1.
         -2   -1    0    0    0  501 -0.00000000000E+00 -0.00000000000E+00 -0.26764231615E+02  0.26764231615E+02  0.00000000000E+00 0. -1.
         23    2    1    2    0    0  0.16149820968E+02 -0.85408032960E+01  0.25318519650E+03  0.26926903315E+03  0.89829318401E+02 0.  0.
         23    2    1    2    0    0 -0.13203964775E+03 -0.76343390189E+02  0.68304934479E+03  0.70541919243E+03  0.88300893730E+02 0.  0.
        -11    1    4    4    0    0 -0.66792427827E+02  0.83771622986E+01  0.31710312240E+03  0.32416939322E+03  0.00000000000E+00 0.  1.
         11    1    4    4    0    0 -0.65247219923E+02 -0.84720552488E+02  0.36594622238E+03  0.38124979921E+03  0.00000000000E+00 0. -1.
        -13    1    3    3    0    0  0.11513556293E+01 -0.46329799472E+02  0.91715142021E+02  0.10275915149E+03  0.00000000000E+00 0.  1.
         13    1    3    3    0    0  0.14998465339E+02  0.37788996176E+02  0.16147005448E+03  0.16650988166E+03  0.00000000000E+00 0. -1.
         21    1    1    2  502  501  0.11588982678E+03  0.84884193485E+02  0.67690973688E+03  0.69198451582E+03  0.00000000000E+00 0. -1.
<scales pt_clust_5="13000.00000" pt_clust_6="13000.00000" pt_clust_7="13000.00000" pt_clust_8="13000.00000" pt_clust_9="147.01397"></scales>
<clustering>
<clus scale="   88.301">  5  6 -1 -1</clus>
<clus scale="   89.829">  7  8 -1 -1</clus>
<clus scale="   91.668">  2  7  1 -1</clus>
<clus scale="  147.014">  1  9  2 -1</clus>
<clus scale="  147.014">  1  5  2 -1</clus>
</clustering>
</event>
<event>
 9    1  0.2423659E-006  0.1302416E+03  0.7546771E-02  0.1227140E+00
         -1   -1    0    0    0  501 -0.00000000000E+00  0.00000000000E+00  0.19695496092E+03  0.19695496092E+03  0.00000000000E+00 0.  1.
          1   -1    0    0  502    0  0.00000000000E+00 -0.00000000000E+00 -0.44511752152E+03  0.44511752152E+03  0.00000000000E+00 0. -1.
         23    2    1    2    0    0 -0.32815622272E+01 -0.93831734338E+02  0.15853349021E+03  0.20601635356E+03  0.92166736916E+02 0.  0.
         23    2    1    2    0    0  0.30790142657E+02  0.64805265601E+02 -0.28934650339E+03  0.31207962237E+03  0.92328415691E+02 0.  0.
        -11    1    4    4    0    0  0.25302100169E+02 -0.14182037757E+02 -0.33756329188E+02  0.44506361659E+02  0.00000000000E+00 0.  1.
         11    1    4    4    0    0  0.54880424882E+01  0.78987303359E+02 -0.25559017420E+03  0.26757326071E+03  0.00000000000E+00 0. -1.
        -13    1    3    3    0    0  0.27631880656E+02  0.53562895942E+00  0.14898005417E+02  0.31396787931E+02  0.00000000000E+00 0. -1.
         13    1    3    3    0    0 -0.30913442883E+02 -0.94367363297E+02  0.14363548480E+03  0.17461956562E+03  0.00000000000E+00 0.  1.
         21    1    1    2  502  501 -0.27508580429E+02  0.29026468737E+02 -0.11734954742E+03  0.12397650650E+03  0.00000000000E+00 0.  1.
<scales pt_clust_5="13000.00000" pt_clust_6="13000.00000" pt_clust_7="13000.00000" pt_clust_8="13000.00000" pt_clust_9="39.99072"></scales>
<clustering>
<clus scale="   39.991">  2  9  1 -1</clus>
<clus scale="   92.167">  7  8 -1 -1</clus>
<clus scale="   92.328">  5  6 -1 -1</clus>
<clus scale="  130.127">  1  7  2 -1</clus>
<clus scale="   39.991">  2  5  1 -1</clus>
</clustering>
</event>
<event>
 9    1  0.2423659E-006  0.1265571E+03  0.7546771E-02  0.1234537E+00
         -2   -1    0    0    0  501 -0.00000000000E+00  0.00000000000E+00  0.93604227634E+02  0.93604227634E+02  0.00000000000E+00 0.  1.
          2   -1    0    0  502    0  0.00000000000E+00 -0.00000000000E+00 -0.71164635175E+03  0.71164635175E+03  0.00000000000E+00 0. -1.
         23    2    1    2    0    0 -0.40913128953E+02 -0.28619557973E+02  0.25763088067E+02  0.11599866446E+03  0.10148394075E+03 0.  0.
         23    2    1    2    0    0  0.76020014979E+02 -0.23546758035E+02 -0.59971711030E+03  0.61245622039E+03  0.95438550970E+02 0.  0.
        -11    1    4    4    0    0  0.74878648461E+02  0.22081045550E+02 -0.34978410520E+03  0.35838987823E+03  0.00000000000E+00 0.  1.
         11    1    4    4    0    0  0.11413665182E+01 -0.45627803585E+02 -0.24993300510E+03  0.25406634215E+03  0.00000000000E+00 0. -1.
        -13    1    3    3    0    0  0.12127309021E+02 -0.39241112501E+02 -0.19499725599E+02  0.45466205393E+02  0.00000000000E+00 0. -1.
         13    1    3    3    0    0 -0.53040437973E+02  0.10621554528E+02  0.45262813666E+02  0.70532459066E+02  0.00000000000E+00 0.  1.
         21    1    1    2  502  501 -0.35106886026E+02  0.52166316008E+02 -0.44088101887E+02  0.76795694542E+02  0.00000000000E+00 0.  1.
<scales pt_clust_5="13000.00000" pt_clust_6="13000.00000" pt_clust_7="13000.00000" pt_clust_8="13000.00000" pt_clust_9="62.87939"></scales>
<clustering>
<clus scale="   62.879">  1  9  2 -1</clus>
<clus scale="   95.439">  5  6 -1 -1</clus>
<clus scale="  101.484">  7  8 -1 -1</clus>
<clus scale="  121.763">  2  5  1 -1</clus>
<clus scale="  121.763">  2  5  1 -1</clus>
</clustering>
</event>
<event>
 9    1  0.2423659E-006  0.1046820E+03  0.7546771E-02  0.1273402E+00
          2   -1    0    0  502    0  0.00000000000E+00  0.00000000000E+00  0.17308214735E+03  0.17308214735E+03  0.00000000000E+00 0. -1.
         -2   -1    0    0    0  501 -0.00000000000E+00 -0.00000000000E+00 -0.15387727430E+03  0.15387727430E+03  0.00000000000E+00 0.  1.
         23    2    1    2    0    0  0.38121139271E+02 -0.19025437852E+02 -0.39509061849E+02  0.10291211743E+03  0.84939680958E+02 0.  0.
         23    2    1    2    0    0 -0.34720246974E+02  0.59408855330E+02 -0.37139516504E+02  0.11997871808E+03  0.90998030000E+02 0.  0.
        -11    1    3    3    0    0  0.19854437489E+02  0.26436671674E+02  0.86884389990E+01  0.34184576485E+02  0.00000000000E+00 0. -1.
         11    1    3    3    0    0  0.18266701782E+02 -0.45462109526E+02 -0.48197500848E+02  0.68727540946E+02  0.00000000000E+00 0.  1.
        -11    1    4    4    0    0 -0.50422759356E+02  0.33136982569E+02  0.12541651051E+02  0.61626352204E+02  0.00000000000E+00 0. -1.
         11    1    4    4    0    0  0.15702512382E+02  0.26271872761E+02 -0.49681167555E+02  0.58352365874E+02  0.00000000000E+00 0.  1.
         21    1    1    2  502  501 -0.34008922972E+01 -0.40383417478E+02  0.95853451404E+02  0.10406858614E+03  0.00000000000E+00 0. -1.
<scales pt_clust_5="13000.00000" pt_clust_6="13000.00000" pt_clust_7="13000.00000" pt_clust_8="13000.00000" pt_clust_9="40.52637"></scales>
<clustering>
<clus scale="   40.526">  1  9  2 -1</clus>
<clus scale="   84.940">  5  6 -1 -1</clus>
<clus scale="   90.998">  7  8 -1 -1</clus>
<clus scale="   99.461">  2  5  1 -1</clus>
<clus scale="   40.526">  1  5  2 -1</clus>
</clustering>
</event>
<event>
 9    1  0.2423659E-006  0.2011836E+03  0.7546771E-02  0.1149134E+00
          1   -1    0    0  502    0  0.00000000000E+00  0.00000000000E+00  0.74495486983E+03  0.74495486983E+03  0.00000000000E+00 0. -1.
         -1   -1    0    0    0  501 -0.00000000000E+00 -0.00000000000E+00 -0.11832645990E+03  0.11832645990E+03  0.00000000000E+00 0.  1.
         23    2    1    2    0    0  0.18820624824E+02 -0.21117620092E+03  0.92451392502E+02  0.24836078657E+03  0.90477713140E+02 0.  0.
         23    2    1    2    0    0 -0.92347958853E+02  0.92322210539E+02  0.33303864796E+03  0.36999364886E+03  0.94493508235E+02 0.  0.
        -11    1    4    4    0    0 -0.10735709027E+03  0.65478232408E+02  0.22605422118E+03  0.25867635118E+03  0.00000000000E+00 0.  1.
         11    1    4    4    0    0  0.15009131414E+02  0.26843978130E+02  0.10698442679E+03  0.11131729768E+03  0.00000000000E+00 0. -1.
        -13    1    3    3    0    0  0.52185547723E+02 -0.16259109807E+03  0.77683477353E+02  0.18760042435E+03  0.00000000000E+00 0. -1.
         13    1    3    3    0    0 -0.33364922898E+02 -0.48585102850E+02  0.14767915149E+02  0.60760362217E+02  0.00000000000E+00 0.  1.
         21    1    1    2  502  501  0.73527334028E+02  0.11885399038E+03  0.20113836946E+03  0.24492689430E+03  0.00000000000E+00 0. -1.
<scales pt_clust_5="13000.00000" pt_clust_6="13000.00000" pt_clust_7="13000.00000" pt_clust_8="13000.00000" pt_clust_9="139.75886"></scales>
<clustering>
<clus scale="   90.478">  7  8 -1 -1</clus>
<clus scale="   94.494">  5  6 -1 -1</clus>
<clus scale="  139.759">  1  9  2 -1</clus>
<clus scale="  199.329">  2  7  1 -1</clus>
<clus scale="  139.759">  1  5  2 -1</clus>
</clustering>
</event>
<event>
 9    1  0.2423659E-006  0.9523460E+02  0.7546771E-02  0.1291239E+00
          3   -1    0    0  502    0  0.00000000000E+00  0.00000000000E+00  0.45248785729E+02  0.45248785729E+02  0.00000000000E+00 0. -1.
         -3   -1    0    0    0  501 -0.00000000000E+00 -0.00000000000E+00 -0.31813226370E+03  0.31813226370E+03  0.00000000000E+00 0.  1.
         23    2    1    2    0    0  0.41604306086E+02 -0.10108711379E+02 -0.16417840533E+03  0.19275991934E+03  0.91480781580E+02 0.  0.
         23    2    1    2    0    0 -0.21944438739E+01  0.73675239202E+01 -0.86277517647E+02  0.12519375319E+03  0.90391204184E+02 0.  0.
        -11    1    3    3    0    0 -0.65538402606E+01  0.32963883676E+02 -0.36196657822E+02  0.49394012660E+02  0.00000000000E+00 0. -1.
         11    1    3    3    0    0  0.48158146347E+02 -0.43072595056E+02 -0.12798174751E+03  0.14336590668E+03  0.00000000000E+00 0.  1.
        -13    1    4    4    0    0 -0.31246899171E+02  0.14704282590E+02 -0.72059173567E+00  0.34541335914E+02  0.00000000000E+00 0. -1.
         13    1    4    4    0    0  0.29052455297E+02 -0.73367586695E+01 -0.85556925911E+02  0.90652417276E+02  0.00000000000E+00 0.  1.
         21    1    1    2  502  501 -0.39409862212E+02  0.27411874592E+01 -0.22427554991E+02  0.45427376890E+02  0.00000000000E+00 0. -1.
<scales pt_clust_5="13000.00000" pt_clust_6="13000.00000" pt_clust_7="13000.00000" pt_clust_8="13000.00000" pt_clust_9="39.50508"></scales>
<clustering>
<clus scale="   39.505">  1  9  2 -1</clus>
<clus scale="   90.391">  7  8 -1 -1</clus>
<clus scale="   91.481">  5  6 -1 -1</clus>
<clus scale="   94.188">  1  7  2 -1</clus>
<clus scale="   39.505">  1  5  2 -1</clus>
</clustering>
</event>
<event>
 9    1  0.2423659E-006  0.9176825E+02  0.7546771E-02  0.1301135E+00
         -2   -1    0    0    0  501 -0.00000000000E+00  0.00000000000E+00  0.20990654892E+03  0.20990654892E+03  0.00000000000E+00 0. -1.
          2   -1    0    0  502    0  0.00000000000E+00 -0.00000000000E+00 -0.35488401941E+03  0.35488401941E+03  0.00000000000E+00 0.  1.
         23    2    1    2    0    0 -0.14054752026E+02 -0.13426853958E+01  0.18769344241E+03  0.20891754743E+03  0.90655250474E+02 0.  0.
         23    2    1    2    0    0  0.15586608823E+02  0.22894097460E+02 -0.31542413624E+03  0.32822774549E+03  0.86452212914E+02 0.  0.
        -11    1    4    4    0    0  0.38069964989E+02  0.45196868599E+02 -0.20843510905E+03  0.21665011851E+03  0.00000000000E+00 0.  1.
         11    1    4    4    0    0 -0.22483356166E+02 -0.22302771139E+02 -0.10698902719E+03  0.11157762699E+03  0.00000000000E+00 0. -1.
        -13    1    3    3    0    0 -0.37181014765E+02 -0.33827498751E+02  0.84957217941E+02  0.98714013245E+02  0.00000000000E+00 0.  1.
         13    1    3    3    0    0  0.23126262738E+02  0.32484813355E+02  0.10273622447E+03  0.11020353418E+03  0.00000000000E+00 0. -1.
         21    1    1    2  502  501 -0.15318567968E+01 -0.21551412064E+02 -0.17246776667E+02  0.27645275412E+02  0.00000000000E+00 0.  1.
<scales pt_clust_5="13000.00000" pt_clust_6="13000.00000" pt_clust_7="13000.00000" pt_clust_8="13000.00000" pt_clust_9="21.60579"></scales>
<clustering>
<clus scale="   21.606">  2  9  1 -1</clus>
<clus scale="   86.452">  5  6 -1 -1</clus>
<clus scale="   87.619">  2  5  1 -1</clus>
<clus scale="   90.655">  7  8 -1 -1</clus>
<clus scale="   21.606">  2  5  1 -1</clus>
</clustering>
</event>
<event>
 9    1  0.2423659E-006  0.1660022E+03  0.7546771E-02  0.1196327E+00
         -1   -1    0    0    0  501 -0.00000000000E+00  0.00000000000E+00  0.28745253790E+03  0.28745253790E+03  0.00000000000E+00 0.  1.
          1   -1    0    0  502    0  0.00000000000E+00 -0.00000000000E+00 -0.82148577450E+03  0.82148577450E+03  0.00000000000E+00 0. -1.
         23    2    1    2    0    0  0.29766033664E+02  0.75234156768E+02 -0.51560634255E+02  0.13164324484E+03  0.90140167528E+02 0.  0.
         23    2    1    2    0    0  0.68656420269E+02  0.15589067968E+02  0.22551056567E+03  0.25675637756E+03  0.10055893349E+03 0.  0.
        -11    1    3    3    0    0  0.58505772037E+02  0.46086555075E+02 -0.51780749773E+02  0.90709106309E+02  0.00000000000E+00 0.  1.
         11    1    3    3    0    0 -0.28739738374E+02  0.29147601693E+02  0.22011551844E+00  0.40934138528E+02  0.00000000000E+00 0. -1.
        -13    1    4    4    0    0  0.27153930340E+02 -0.42706512556E+02  0.10595812806E+03  0.11742362220E+03  0.00000000000E+00 0. -1.
         13    1    4    4    0    0  0.41502489930E+02  0.58295580525E+02  0.11955243761E+03  0.13933275537E+03  0.00000000000E+00 0.  1.
         21    1    1    2  502  501 -0.98422453933E+02 -0.90823224736E+02 -0.70798316801E+03  0.72053868999E+03  0.00000000000E+00 0. -1.
<scales pt_clust_5="13000.00000" pt_clust_6="13000.00000" pt_clust_7="13000.00000" pt_clust_8="13000.00000" pt_clust_9="132.07809"></scales>
<clustering>
<clus scale="   90.140">  5  6 -1 -1</clus>
<clus scale="  100.559">  7  8 -1 -1</clus>
<clus scale="  121.126">  1  5  2 -1</clus>
<clus scale="  132.078">  2  9  1 -1</clus>
<clus scale="  132.078">  2  5  1 -1</clus>
</clustering>
</event>
<event>
 9    1  0.2423659E-006  0.9888011E+02  0.7546771E-02  0.1283115E+00
          1   -1    0    0  502    0  0.00000000000E+00  0.00000000000E+00  0.40468551379E+03  0.40468551379E+03  0.00000000000E+00 0. -1.
         -1   -1    0    0    0  501 -0.00000000000E+00 -0.00000000000E+00 -0.66831975745E+02  0.66831975745E+02  0.00000000000E+00 0.  1.
         23    2    1    2    0    0  0.78543819550E+00  0.15037463458E+02 -0.37025846610E+00  0.92792675510E+02  0.91562008041E+02 0.  0.
         23    2    1    2    0    0 -0.42570307119E+02  0.13489431249E+02  0.29615828897E+03  0.31292765666E+03  0.90663059578E+02 0.  0.
        -11    1    3    3    0    0 -0.41533849545E+02  0.42379584518E+01 -0.18294871429E+02  0.45582049872E+02  0.00000000000E+00 0.  1.
         11    1    3    3    0    0  0.42319287741E+02  0.10799505006E+02  0.17924612963E+02  0.47210625638E+02  0.00000000000E+00 0. -1.
        -13    1    4    4    0    0  0.25274689593E+02 -0.10148605317E+02  0.11167784502E+03  0.11495105563E+03  0.00000000000E+00 0. -1.
         13    1    4    4    0    0 -0.67844996712E+02  0.23638036565E+02  0.18448044396E+03  0.19797660103E+03  0.00000000000E+00 0.  1.
         21    1    1    2  502  501  0.41784868924E+02 -0.28526894707E+02  0.42065507535E+02  0.65797157361E+02  0.00000000000E+00 0. -1.
<scales pt_clust_5="13000.00000" pt_clust_6="13000.00000" pt_clust_7="13000.00000" pt_clust_8="13000.00000" pt_clust_9="50.59406"></scales>
<clustering>
<clus scale="   50.594">  2  9  1 -1</clus>
<clus scale="   90.663">  7  8 -1 -1</clus>
<clus scale="   91.562">  5  6 -1 -1</clus>
<clus scale="   98.048">  1  7  2 -1</clus>
<clus scale="   98.048">  1  5  2 -1</clus>
</clustering>
</event>
<event>
 9    1  0.2423659E-006  0.1525391E+03  0.7546771E-02  0.1199665E+00
         -2   -1    0    0    0  501 -0.00000000000E+00  0.00000000000E+00  0.73756118795E+02  0.73756118795E+02  0.00000000000E+00 0.  1.
          2   -1    0    0  502    0  0.00000000000E+00 -0.00000000000E+00 -0.68083271846E+03  0.68083271846E+03  0.00000000000E+00 0. -1.
         23    2    1    2    0    0  0.67212493197E+02 -0.95748111732E+02 -0.13223609504E+03  0.20059730892E+03  0.95224342334E+02 0.  0.
         23    2    1    2    0    0  0.20733139554E+02  0.12855741498E+03 -0.41473716025E+03  0.44253168487E+03  0.82888527576E+02 0.  0.
        -11    1    4    4    0    0 -0.28994500401E+02  0.22683721389E+02 -0.11642751019E+03  0.12210895708E+03  0.00000000000E+00 0.  1.
         11    1    4    4    0    0  0.49727639955E+02  0.10587369359E+03 -0.29830965006E+03  0.32042272780E+03  0.00000000000E+00 0. -1.
        -13    1    3    3    0    0  0.75458163896E+01 -0.90480810300E+02 -0.83980596740E+02  0.12367884624E+03  0.00000000000E+00 0.  1.
         13    1    3    3    0    0  0.59666676807E+02 -0.52673014316E+01 -0.48255498300E+02  0.76918462685E+02  0.00000000000E+00 0. -1.
         21    1    1    2  502  501 -0.87945632751E+02 -0.32809303244E+02 -0.60103344375E+02  0.11145984346E+03  0.00000000000E+00 0.  1.
<scales pt_clust_5="13000.00000" pt_clust_6="13000.00000" pt_clust_7="13000.00000" pt_clust_8="13000.00000" pt_clust_9="93.86631"></scales>
<clustering>
<clus scale="   82.889">  5  6 -1 -1</clus>
<clus scale="   93.866">  1  9  2 -1</clus>
<clus scale="   95.224">  7  8 -1 -1</clus>
<clus scale="  145.159">  2  5  1 -1</clus>
<clus scale="  145.159">  2  5  1 -1</clus>
</clustering>
</event>
<event>
 9    1  0.2423659E-006  0.1481723E+03  0.7546771E-02  0.1203137E+00
         -1   -1    0    0    0  501 -0.00000000000E+00  0.00000000000E+00  0.43847173480E+03  0.43847173480E+03  0.00000000000E+00 0.  1.
          1   -1    0    0  502    0  0.00000000000E+00 -0.00000000000E+00 -0.11157124965E+03  0.11157124965E+03  0.00000000000E+00 0. -1.
         23    2    1    2    0    0  0.13542839698E+03 -0.19150111276E+02  0.31509028800E+03  0.35524856783E+03  0.90620515823E+02 0.  0.
         23    2    1    2    0    0 -0.53033099634E+02  0.21052698675E+01 -0.11687871175E+02  0.10743498176E+03  0.92675385923E+02 0.  0.
        -11    1    4    4    0    0  0.12696750952E+02 -0.19897804061E+02  0.20265283594E+02  0.31109673903E+02  0.00000000000E+00 0. -1.
         11    1    4    4    0    0 -0.65729850585E+02  0.22003073929E+02 -0.31953154770E+02  0.76325307861E+02  0.00000000000E+00 0.  1.
        -11    1    3    3    0    0  0.11751651394E+03 -0.49274801686E+02  0.22496666618E+03  0.25855006869E+03  0.00000000000E+00 0.  1.
         11    1    3    3    0    0  0.17911883036E+02  0.30124690410E+02  0.90123621820E+02  0.96698499141E+02  0.00000000000E+00 0. -1.
         21    1    1    2  502  501 -0.82395297341E+02  0.17044841408E+02  0.23498068333E+02  0.87359434854E+02  0.00000000000E+00 0. -1.
<scales pt_clust_5="13000.00000" pt_clust_6="13000.00000" pt_clust_7="13000.00000" pt_clust_8="13000.00000" pt_clust_9="84.13983"></scales>
<clustering>
<clus scale="   84.140">  2  9  1 -1</clus>
<clus scale="   90.621">  7  8 -1 -1</clus>
<clus scale="   92.675">  5  6 -1 -1</clus>
<clus scale="  146.896">  1  7  2 -1</clus>
<clus scale="   84.140">  2  5  1 -1</clus>
</clustering>
</event>
<event>
 9    1  0.2423659E-006  0.2186472E+03  0.7546771E-02  0.1170697E+00
          2   -1    0    0  502    0  0.00000000000E+00  0.00000000000E+00  0.17323561790E+03  0.17323561790E+03  0.00000000000E+00 0. -1.
         -2   -1    0    0    0  501 -0.00000000000E+00 -0.00000000000E+00 -0.58314490387E+03  0.58314490387E+03  0.00000000000E+00 0.  1.
         23    2    1    2    0    0  0.17906593526E+03 -0.94183351702E+02 -0.40973722164E+03  0.46639457771E+03  0.93296293656E+02 0.  0.
         23    2    1    2    0    0 -0.22948289505E+02 -0.67554771645E+01  0.35902769082E+02  0.10061128868E+03  0.90892035514E+02 0.  0.
        -11    1    3    3    0    0  0.13415703094E+03 -0.56181445110E+02 -0.19212151271E+03  0.24096709189E+03  0.00000000000E+00 0. -1.
         11    1    3    3    0    0  0.44908904323E+02 -0.38001906592E+02 -0.21761570893E+03  0.22542748583E+03  0.00000000000E+00 0.  1.
        -13    1    4    4    0    0 -0.20788799016E+02  0.40938382421E+02  0.21816375988E+02  0.50833842871E+02  0.00000000000E+00 0. -1.
         13    1    4    4    0    0 -0.21594904891E+01 -0.47693859585E+02  0.14086393094E+02  0.49777445813E+02  0.00000000000E+00 0.  1.
         21    1    1    2  502  501 -0.15611764576E+03  0.10093882887E+03 -0.36074833406E+02  0.18937465537E+03  0.00000000000E+00 0.  1.
<scales pt_clust_5="13000.00000" pt_clust_6="13000.00000" pt_clust_7="13000.00000" pt_clust_8="13000.00000" pt_clust_9="197.74325"></scales>
<clustering>
<clus scale="   90.892">  7  8 -1 -1</clus>
<clus scale="   93.296">  5  6 -1 -1</clus>
<clus scale="   93.987">  1  7  2 -1</clus>
<clus scale="  197.743">  1  9  2 -1</clus>
<clus scale="   93.987">  1  5  2 -1</clus>
</clustering>
</event>
<event>
 9    1  0.2423659E-006  0.9505369E+02  0.7546771E-02  0.1298908E+00
         -1   -1    0    0    0  501 -0.00000000000E+00  0.00000000000E+00  0.11613591242E+03  0.11613591242E+03  0.00000000000E+00 0.  1.
          1   -1    0    0  502    0  0.00000000000E+00 -0.00000000000E+00 -0.14179010097E+03  0.14179010097E+03  0.00000000000E+00 0. -1.
         23    2    1    2    0    0  0.89605288049E+01  0.17822886070E+02  0.30592125498E+02  0.85879543746E+02  0.77726903626E+02 0.  0.
         23    2    1    2    0    0  0.45005929735E+02  0.24706526160E+01 -0.51831074699E+02  0.11422172842E+03  0.91260643781E+02 0.  0.
        -11    1    3    3    0    0 -0.26027587613E+02 -0.12314552110E+02 -0.27462347443E+01  0.28924476069E+02  0.00000000000E+00 0. -1.
         11    1    3    3    0    0  0.34988116418E+02  0.30137438180E+02  0.33338360242E+02  0.56955067677E+02  0.00000000000E+00 0.  1.
        -13    1    4    4    0    0  0.20159613976E+02 -0.36165298056E+02  0.43720497645E+01  0.41634764780E+02  0.00000000000E+00 0.  1.
         13    1    4    4    0    0  0.24846315759E+02  0.38635950672E+02 -0.56203124464E+02  0.72586963641E+02  0.00000000000E+00 0. -1.
         21    1    1    2  502  501 -0.53966458540E+02 -0.20293538686E+02 -0.44152393487E+01  0.57824741230E+02  0.00000000000E+00 0. -1.
<scales pt_clust_5="13000.00000" pt_clust_6="13000.00000" pt_clust_7="13000.00000" pt_clust_8="13000.00000" pt_clust_9="57.65593"></scales>
<clustering>
<clus scale="   57.656">  1  9  2 -1</clus>
<clus scale="   77.727">  5  6 -1 -1</clus>
<clus scale="   82.147">  1  5  2 -1</clus>
<clus scale="   91.261">  7  8 -1 -1</clus>
<clus scale="   95.054">  2  5  1 -1</clus>
</clustering>
</event>
<event>
 9    1  0.2423659E-006  0.9951456E+02  0.7546771E-02  0.1285465E+00
          2   -1    0    0  502    0  0.00000000000E+00  0.00000000000E+00  0.58688737055E+03  0.58688737055E+03  0.00000000000E+00 0. -1.
         -2   -1    0    0    0  501 -0.00000000000E+00 -0.00000000000E+00 -0.62420970562E+02  0.62420970562E+02  0.00000000000E+00 0.  1.
         23    2    1    2    0    0 -0.35913365005E+00  0.19902291594E+01  0.33963795597E+02  0.10243315399E+03  0.96617398206E+02 0.  0.
         23    2    1    2    0    0 -0.64438760889E+02  0.38261823873E+02  0.11433351793E+03  0.16304947600E+03  0.88863137633E+02 0.  0.
        -13    1    3    3    0    0 -0.40675091736E+02  0.20630249550E+02 -0.14438203074E+01  0.45630635556E+02  0.00000000000E+00 0.  1.
         13    1    3    3    0    0  0.40315958086E+02 -0.18640020391E+02  0.35407615904E+02  0.56802518435E+02  0.00000000000E+00 0. -1.
        -13    1    4    4    0    0 -0.40333797742E+02 -0.14533046800E+02  0.90818424785E+02  0.10042913407E+03  0.00000000000E+00 0. -1.
         13    1    4    4    0    0 -0.24104963147E+02  0.52794870672E+02  0.23515093145E+02  0.62620341928E+02  0.00000000000E+00 0.  1.
         21    1    1    2  502  501  0.64797894539E+02 -0.40252053032E+02  0.37616908646E+03  0.38382571113E+03  0.00000000000E+00 0. -1.
<scales pt_clust_5="13000.00000" pt_clust_6="13000.00000" pt_clust_7="13000.00000" pt_clust_8="13000.00000" pt_clust_9="76.28234"></scales>
<clustering>
<clus scale="   76.282">  1  9  2 -1</clus>
<clus scale="   88.863">  7  8 -1 -1</clus>
<clus scale="   92.005">  1  7  2 -1</clus>
<clus scale="   96.617">  5  6 -1 -1</clus>
<clus scale="   76.282">  1  5  2 -1</clus>
</clustering>
</event>
<event>
 9    1  0.2423659E-006  0.1099444E+03  0.7546771E-02  0.1261264E+00
         -2   -1    0    0    0  501 -0.00000000000E+00  0.00000000000E+00  0.31498472226E+03  0.31498472226E+03  0.00000000000E+00 0.  1.
          2   -1    0    0  502    0  0.00000000000E+00 -0.00000000000E+00 -0.26150583009E+03  0.26150583009E+03  0.00000000000E+00 0. -1.
         23    2    1    2    0    0 -0.79981726728E+02 -0.90536833046E+01 -0.46555422856E+02  0.12931639896E+03  0.89868113652E+02 0.  0.
         23    2    1    2    0    0  0.35734647573E+02 -0.56124462986E+02 -0.14839582944E+03  0.18655272017E+03  0.91398439951E+02 0.  0.
        -11    1    4    4    0    0  0.44397529279E+02 -0.32747171449E+02 -0.24832406660E+02  0.60499307968E+02  0.00000000000E+00 0.  1.
         11    1    4    4    0    0 -0.86628817058E+01 -0.23377291537E+02 -0.12356342278E+03  0.12605341220E+03  0.00000000000E+00 0. -1.
        -13    1    3    3    0    0  0.14411248208E+02 -0.19577015520E+02 -0.19545126362E+01  0.24387778317E+02  0.00000000000E+00 0. -1.
         13    1    3    3    0    0 -0.94392974935E+02  0.10523332215E+02 -0.44600910220E+02  0.10492862065E+03  0.00000000000E+00 0.  1.
         21    1    1    2  502  501  0.44247079154E+02  0.65178146291E+02  0.24843014447E+03  0.26062143321E+03  0.00000000000E+00 0.  1.
<scales pt_clust_5="13000.00000" pt_clust_6="13000.00000" pt_clust_7="13000.00000" pt_clust_8="13000.00000" pt_clust_9="78.77814"></scales>
<clustering>
<clus scale="   78.778">  1  9  2 -1</clus>
<clus scale="   89.868">  7  8 -1 -1</clus>
<clus scale="   91.398">  5  6 -1 -1</clus>
<clus scale="  108.676">  1  7  2 -1</clus>
<clus scale="  109.944">  2  5  1 -1</clus>
</clustering>
</event>
<event>
 9    1  0.2423659E-006  0.1047903E+03  0.7546771E-02  0.1271884E+00
          1   -1    0    0  502    0  0.00000000000E+00  0.00000000000E+00  0.77245029968E+03  0.77245029968E+03  0.00000000000E+00 0. -1.
         -1   -1    0    0    0  501 -0.00000000000E+00 -0.00000000000E+00 -0.18462080448E+02  0.18462080448E+02  0.00000000000E+00 0.  1.
         23    2    1    2    0    0  0.44675093746E+02  0.45780559080E+01  0.29605561373E+03  0.31153495853E+03  0.85955112535E+02 0.  0.
         23    2    1    2    0    0 -0.66320985675E+02  0.11790544711E+02  0.32402113741E+03  0.34274376172E+03  0.89140891987E+02 0.  0.
        -11    1    3    3    0    0  0.52632280669E+02 -0.24016895325E+02  0.12267793922E+03  0.13563496968E+03  0.00000000000E+00 0.  1.
         11    1    3    3    0    0 -0.79571869227E+01  0.28594951233E+02  0.17337767450E+03  0.17589998885E+03  0.00000000000E+00 0. -1.
        -11    1    4    4    0    0 -0.73960108887E+02 -0.15411562766E+02  0.16828460420E+03  0.18446496140E+03  0.00000000000E+00 0.  1.
         11    1    4    4    0    0  0.76391232123E+01  0.27202107477E+02  0.15573653321E+03  0.15827880032E+03  0.00000000000E+00 0. -1.
         21    1    1    2  502  501  0.21645891928E+02 -0.16368600619E+02  0.13391146810E+03  0.13663365988E+03  0.00000000000E+00 0. -1.
<scales pt_clust_5="13000.00000" pt_clust_6="13000.00000" pt_clust_7="13000.00000" pt_clust_8="13000.00000" pt_clust_9="27.13809"></scales>
<clustering>
<clus scale="   27.138">  1  9  2 -1</clus>
<clus scale="   85.955">  5  6 -1 -1</clus>
<clus scale="   89.141">  7  8 -1 -1</clus>
<clus scale="  102.094">  2  5  1 -1</clus>
<clus scale="   27.138">  1  5  2 -1</clus>
</clustering>
</event>
<event>
 9    1  0.2423659E-006  0.2750244E+03  0.7546771E-02  0.1098527E+00
         -1   -1    0    0    0  501 -0.00000000000E+00  0.00000000000E+00  0.20929088924E+03  0.20929088924E+03  0.00000000000E+00 0.  1.
          1   -1    0    0  502    0  0.00000000000E+00 -0.00000000000E+00 -0.78755338953E+03  0.78755338953E+03  0.00000000000E+00 0. -1.
         23    2    1    2    0    0  0.14068012824E+03 -0.21899107695E+03  0.17789567901E+02  0.27610988880E+03  0.90400285970E+02 0.  0.
         23    2    1    2    0    0 -0.64446767447E+02  0.25810879020E+03 -0.29540084807E+03  0.40811181088E+03  0.92304147963E+02 0.  0.
        -11    1    3    3    0    0  0.78786494416E+02 -0.15966395578E+03  0.49338196815E+02  0.18475429127E+03  0.00000000000E+00 0.  1.
         11    1    3    3    0    0  0.61893633822E+02 -0.59327121168E+02 -0.31548628914E+02  0.91355597530E+02  0.00000000000E+00 0. -1.
        -11    1    4    4    0    0  0.12268428058E+02  0.13437054987E+03 -0.12435470136E+03  0.18349400739E+03  0.00000000000E+00 0.  1.
         11    1    4    4    0    0 -0.76715195504E+02  0.12373824033E+03 -0.17104614671E+03  0.22461780349E+03  0.00000000000E+00 0. -1.
         21    1    1    2  502  501 -0.76233360791E+02 -0.39117713252E+02 -0.30065122013E+03  0.31262257908E+03  0.00000000000E+00 0.  1.
<scales pt_clust_5="13000.00000" pt_clust_6="13000.00000" pt_clust_7="13000.00000" pt_clust_8="13000.00000" pt_clust_9="85.68384"></scales>
<clustering>
<clus scale="   85.684">  2  9  1 -1</clus>
<clus scale="   90.400">  5  6 -1 -1</clus>
<clus scale="   92.304">  7  8 -1 -1</clus>
<clus scale="  274.391">  1  5  2 -1</clus>
<clus scale="   85.684">  2  5  1 -1</clus>
</clustering>
</event>
<event>
 9    1  0.2423659E-006  0.9972088E+02  0.7546771E-02  0.1283886E+00
         -1   -1    0    0    0  501 -0.00000000000E+00  0.00000000000E+00  0.14697339590E+03  0.14697339590E+03  0.00000000000E+00 0.  1.
          1   -1    0    0  502    0  0.00000000000E+00 -0.00000000000E+00 -0.95767379789E+02  0.95767379789E+02  0.00000000000E+00 0. -1.
         23    2    1    2    0    0  0.54494349831E+01  0.57600229616E+01  0.69701619513E+02  0.12056593086E+03  0.98055870372E+02 0.  0.
         23    2    1    2    0    0 -0.22437801684E+02  0.72848467849E+01 -0.26969153882E+02  0.99140646613E+02  0.92439215772E+02 0.  0.
        -13    1    4    4    0    0 -0.19940520827E+02  0.41731720848E+02  0.11279254930E+02  0.47606538286E+02  0.00000000000E+00 0.  1.
         13    1    4    4    0    0 -0.24972808567E+01 -0.34446874063E+02 -0.38248408812E+02  0.51534108327E+02  0.00000000000E+00 0. -1.
        -13    1    3    3    0    0  0.42697987780E+02 -0.25445838182E+02  0.32845731084E+02  0.59577268246E+02  0.00000000000E+00 0.  1.
         13    1    3    3    0    0 -0.37248552797E+02  0.31205861144E+02  0.36855888428E+02  0.60988662610E+02  0.00000000000E+00 0. -1.
         21    1    1    2  502  501  0.16988366701E+02 -0.13044869747E+02  0.84735504805E+01  0.23034198219E+02  0.00000000000E+00 0.  1.
<scales pt_clust_5="13000.00000" pt_clust_6="13000.00000" pt_clust_7="13000.00000" pt_clust_8="13000.00000" pt_clust_9="21.41899"></scales>
<clustering>
<clus scale="   21.419">  1  9  2 -1</clus>
<clus scale="   92.439">  5  6 -1 -1</clus>
<clus scale="   94.204">  2  5  1 -1</clus>
<clus scale="   98.056">  7  8 -1 -1</clus>
<clus scale="   94.204">  2  5  1 -1</clus>
</clustering>
</event>
<event>
 9    1  0.2875755E-006  0.2458646E+03  0.7546771E-02  0.1155522E+00
          1   -1    0    0  502    0  0.00000000000E+00  0.00000000000E+00  0.28471242340E+03  0.28471242340E+03  0.00000000000E+00 0. -1.
         -1   -1    0    0    0  501 -0.00000000000E+00 -0.00000000000E+00 -0.87939552083E+03  0.87939552083E+03  0.00000000000E+00 0.  1.
         23    2    1    2    0    0 -0.18548681138E+02 -0.12523678229E+02 -0.16772643228E+03  0.19223667181E+03  0.91224370741E+02 0.  0.
         23    2    1    2    0    0 -0.17221333279E+03  0.15018748681E+03  0.19079527183E+03  0.31084258485E+03  0.89479403323E+02 0.  0.
        -11    1    4    4    0    0 -0.59848747169E+02  0.46963694298E+02  0.12129621030E+03  0.14317901995E+03  0.00000000000E+00 0.  1.
         11    1    4    4    0    0 -0.11236458562E+03  0.10322379251E+03  0.69499061526E+02  0.16766356490E+03  0.00000000000E+00 0. -1.
        -11    1    3    3    0    0  0.36117684992E+02 -0.10864234451E+02 -0.52004488924E+02  0.64241619124E+02  0.00000000000E+00 0. -1.
         11    1    3    3    0    0 -0.54666366130E+02 -0.16594437783E+01 -0.11572194335E+03  0.12799505269E+03  0.00000000000E+00 0.  1.
         21    1    1    2  502  501  0.19076201393E+03 -0.13766380858E+03 -0.61775193698E+03  0.66102868757E+03  0.00000000000E+00 0.  1.
<scales pt_clust_5="13000.00000" pt_clust_6="13000.00000" pt_clust_7="13000.00000" pt_clust_8="13000.00000" pt_clust_9="229.00402"></scales>
<clustering>
<clus scale="   89.479">  5  6 -1 -1</clus>
<clus scale="   91.224">  7  8 -1 -1</clus>
<clus scale="   93.930">  2  7  1 -1</clus>
<clus scale="  229.004">  2  9  1 -1</clus>
<clus scale="  245.865">  1  5  2 -1</clus>
</clustering>
</event>
<event>
 9    1  0.2423659E-006  0.1224970E+03  0.7546771E-02  0.1242177E+00
         -2   -1    0    0    0  501 -0.00000000000E+00  0.00000000000E+00  0.77282256753E+02  0.77282256753E+02  0.00000000000E+00 0.  1.
          2   -1    0    0  502    0  0.00000000000E+00 -0.00000000000E+00 -0.36980986127E+03  0.36980986127E+03  0.00000000000E+00 0. -1.
         23    2    1    2    0    0 -0.83024473459E+02  0.49085045098E+02 -0.88627009170E+02  0.16047476576E+03  0.92709216621E+02 0.  0.
         23    2    1    2    0    0  0.64632436679E+02 -0.36535840906E+02 -0.22814880534E+03  0.25369737002E+03  0.82451553246E+02 0.  0.
        -11    1    4    4    0    0  0.49151072218E+02 -0.60797992426E+02 -0.19322779665E+03  0.20844472932E+03  0.00000000000E+00 0. -1.
         11    1    4    4    0    0  0.15481364461E+02  0.24262151520E+02 -0.34921008692E+02  0.45252640697E+02  0.00000000000E+00 0.  1.
        -13    1    3    3    0    0 -0.45846193259E+02  0.24193715524E+02  0.94333416964E+01  0.52689631265E+02  0.00000000000E+00 0.  1.
         13    1    3    3    0    0 -0.37178280200E+02  0.24891329574E+02 -0.98060350866E+02  0.10778513450E+03  0.00000000000E+00 0. -1.
         21    1    1    2  502  501  0.18392036780E+02 -0.12549204193E+02  0.24248209997E+02  0.32919982242E+02  0.00000000000E+00 0. -1.
<scales pt_clust_5="13000.00000" pt_clust_6="13000.00000" pt_clust_7="13000.00000" pt_clust_8="13000.00000" pt_clust_9="22.26543"></scales>
<clustering>
<clus scale="   22.265">  1  9  2 -1</clus>
<clus scale="   82.452">  5  6 -1 -1</clus>
<clus scale="   92.709">  7  8 -1 -1</clus>
<clus scale="  114.929">  2  5  1 -1</clus>
<clus scale="  114.929">  2  5  1 -1</clus>
</clustering>
</event>
<event>
 9    1  0.2423659E-006  0.8872097E+02  0.7546771E-02  0.1307543E+00
          1   -1    0    0  502    0  0.00000000000E+00  0.00000000000E+00  0.63596615390E+02  0.63596615390E+02  0.00000000000E+00 0. -1.
         -1   -1    0    0    0  501 -0.00000000000E+00 -0.00000000000E+00 -0.27590373571E+03  0.27590373571E+03  0.00000000000E+00 0.  1.
         23    2    1    2    0    0 -0.32516943849E+02 -0.10898552771E+02 -0.10431075730E+03  0.13957660197E+03  0.86167068188E+02 0.  0.
         23    2    1    2    0    0 -0.32650243535E+02 -0.10090644960E+02 -0.85592465682E+02  0.12788734619E+03  0.88663654418E+02 0.  0.
        -11    1    3    3    0    0 -0.53435889847E+02 -0.32217809885E+02 -0.63743441447E+02  0.89199820208E+02  0.00000000000E+00 0.  1.
         11    1    3    3    0    0  0.20918945998E+02  0.21319257114E+02 -0.40567315853E+02  0.50376781766E+02  0.00000000000E+00 0. -1.
        -13    1    4    4    0    0 -0.35211500091E+02  0.30424007009E+02 -0.19785318053E+02  0.50566083016E+02  0.00000000000E+00 0. -1.
         13    1    4    4    0    0  0.25612565560E+01 -0.40514651969E+02 -0.65807147629E+02  0.77321263172E+02  0.00000000000E+00 0.  1.
         21    1    1    2  502  501  0.65167187384E+02  0.20989197731E+02 -0.22403897341E+02  0.72036402943E+02  0.00000000000E+00 0. -1.
<scales pt_clust_5="13000.00000" pt_clust_6="13000.00000" pt_clust_7="13000.00000" pt_clust_8="13000.00000" pt_clust_9="68.46392"></scales>
<clustering>
<clus scale="   68.464">  1  9  2 -1</clus>
<clus scale="   86.167">  5  6 -1 -1</clus>
<clus scale="   86.226">  2  5  1 -1</clus>
<clus scale="   88.664">  7  8 -1 -1</clus>
<clus scale="   68.464">  1  5  2 -1</clus>
</clustering>
</event>
<event>
 9    1  0.2423659E-006  0.9811179E+02  0.7546771E-02  0.1285175E+00
         -2   -1    0    0    0  501 -0.00000000000E+00  0.00000000000E+00  0.39905636686E+02  0.39905636686E+02  0.00000000000E+00 0.  1.
          2   -1    0    0  502    0  0.00000000000E+00 -0.00000000000E+00 -0.68017781001E+03  0.68017781001E+03  0.00000000000E+00 0. -1.
         23    2    1    2    0    0  0.51400806649E+01 -0.34439260409E+02 -0.37440777774E+02  0.10600092546E+03  0.92854193609E+02 0.  0.
         23    2    1    2    0    0 -0.45366584942E+01  0.12392504537E+02 -0.42394654542E+03  0.43384319931E+03  0.91187130539E+02 0.  0.
        -11    1    3    3    0    0 -0.21988002600E+02 -0.43456985695E+02  0.10836821342E+02  0.49894073404E+02  0.00000000000E+00 0.  1.
         11    1    3    3    0    0  0.27128083265E+02  0.90177252857E+01 -0.48277599116E+02  0.56106852054E+02  0.00000000000E+00 0. -1.
        -13    1    4    4    0    0 -0.46122281429E+02 -0.55203388780E+01 -0.19431426439E+03  0.19978931986E+03  0.00000000000E+00 0.  1.
         13    1    4    4    0    0  0.41585622935E+02  0.17912843415E+02 -0.22963228103E+03  0.23405387945E+03  0.00000000000E+00 0. -1.
         21    1    1    2  502  501 -0.60342217072E+00  0.22046755872E+02 -0.17888485013E+03  0.18023932193E+03  0.00000000000E+00 0. -1.
<scales pt_clust_5="13000.00000" pt_clust_6="13000.00000" pt_clust_7="13000.00000" pt_clust_8="13000.00000" pt_clust_9="22.05501"></scales>
<clustering>
<clus scale="   22.055">  2  9  1 -1</clus>
<clus scale="   91.187">  7  8 -1 -1</clus>
<clus scale="   92.854">  5  6 -1 -1</clus>
<clus scale="   96.536">  2  7  1 -1</clus>
<clus scale="   22.055">  2  5  1 -1</clus>
</clustering>
</event>
<event>
 9    1  0.2423659E-006  0.9449290E+02  0.7546771E-02  0.1304468E+00
         -1   -1    0    0    0  501 -0.00000000000E+00  0.00000000000E+00  0.84414258661E+02  0.84414258661E+02  0.00000000000E+00 0.  1.
          1   -1    0    0  502    0  0.00000000000E+00 -0.00000000000E+00 -0.27055813415E+03  0.27055813415E+03  0.00000000000E+00 0. -1.
         23    2    1    2    0    0 -0.18605584062E+02 -0.26661724128E+02  0.83728908449E+01  0.97913054013E+02  0.91977418714E+02 0.  0.
         23    2    1    2    0    0  0.26765661153E+02 -0.41177035681E+02 -0.59526684261E+02  0.10576159774E+03  0.72319710546E+02 0.  0.
        -11    1    4    4    0    0 -0.14775816405E+02 -0.22704643401E+02  0.42692635043E+01  0.27423570032E+02  0.00000000000E+00 0.  1.
         11    1    4    4    0    0  0.41541477558E+02 -0.18472392280E+02 -0.63795947766E+02  0.78338027711E+02  0.00000000000E+00 0. -1.
        -11    1    3    3    0    0 -0.13149623563E+02  0.31671943460E+02 -0.11304905592E+02  0.36108523825E+02  0.00000000000E+00 0. -1.
         11    1    3    3    0    0 -0.54559604983E+01 -0.58333667588E+02  0.19677796436E+02  0.61804530188E+02  0.00000000000E+00 0.  1.
         21    1    1    2  502  501 -0.81600770909E+01  0.67838759809E+02 -0.13499008207E+03  0.15129774105E+03  0.00000000000E+00 0.  1.
<scales pt_clust_5="13000.00000" pt_clust_6="13000.00000" pt_clust_7="13000.00000" pt_clust_8="13000.00000" pt_clust_9="68.32777"></scales>
<clustering>
<clus scale="   68.328">  2  9  1 -1</clus>
<clus scale="   72.320">  5  6 -1 -1</clus>
<clus scale="   75.493">  2  5  1 -1</clus>
<clus scale="   91.977">  7  8 -1 -1</clus>
<clus scale="   68.328">  2  5  1 -1</clus>
</clustering>
</event>
<event>
 9    1  0.2423659E-006  0.9821944E+02  0.7546771E-02  0.1285134E+00
         -1   -1    0    0    0  501 -0.00000000000E+00  0.00000000000E+00  0.70001669401E+02  0.70001669401E+02  0.00000000000E+00 0.  1.
          1   -1    0    0  502    0  0.00000000000E+00 -0.00000000000E+00 -0.53799554352E+03  0.53799554352E+03  0.00000000000E+00 0. -1.
         23    2    1    2    0    0 -0.27372307778E+02 -0.23554951753E+02  0.14145452186E+02  0.10085962097E+03  0.93104727801E+02 0.  0.
         23    2    1    2    0    0  0.24442275397E+02 -0.24103935210E+02 -0.21830229903E+03  0.23901461354E+03  0.91069573412E+02 0.  0.
        -11    1    4    4    0    0  0.43182875993E+02 -0.49537454181E+02 -0.14940688797E+03  0.16322113319E+03  0.00000000000E+00 0.  1.
         11    1    4    4    0    0 -0.18740600596E+02  0.25433518971E+02 -0.68895411059E+02  0.75793480346E+02  0.00000000000E+00 0. -1.
        -13    1    3    3    0    0 -0.45736396682E+02 -0.34403699199E+02  0.38124523604E+02  0.68767083696E+02  0.00000000000E+00 0.  1.
         13    1    3    3    0    0  0.18364088904E+02  0.10848747446E+02 -0.23979071417E+02  0.32092537271E+02  0.00000000000E+00 0. -1.
         21    1    1    2  502  501  0.29300323811E+01  0.47658886963E+02 -0.26383702728E+03  0.26812297842E+03  0.00000000000E+00 0. -1.
<scales pt_clust_5="13000.00000" pt_clust_6="13000.00000" pt_clust_7="13000.00000" pt_clust_8="13000.00000" pt_clust_9="47.74887"></scales>
<clustering>
<clus scale="   47.749">  2  9  1 -1</clus>
<clus scale="   91.070">  5  6 -1 -1</clus>
<clus scale="   93.105">  7  8 -1 -1</clus>
<clus scale="   96.292">  2  5  1 -1</clus>
<clus scale="   47.749">  2  5  1 -1</clus>
</clustering>
</event>
<event>
 9    1  0.2423659E-006  0.1089628E+03  0.7546771E-02  0.1263410E+00
         -2   -1    0    0    0  501 -0.00000000000E+00  0.00000000000E+00  0.14520391780E+03  0.14520391780E+03  0.00000000000E+00 0.  1.
          2   -1    0    0  502    0  0.00000000000E+00 -0.00000000000E+00 -0.43042919268E+03  0.43042919268E+03  0.00000000000E+00 0. -1.
         23    2    1    2    0    0 -0.15800734938E+02 -0.61910609664E+02  0.10772787445E+03  0.15390965501E+03  0.89444397025E+02 0.  0.
         23    2    1    2    0    0 -0.10214122914E+02  0.72741180805E+01 -0.23736059354E+03  0.25477746882E+03  0.91729309139E+02 0.  0.
        -11    1    3    3    0    0 -0.42191288745E+02 -0.68528205233E+02  0.92953316161E+02  0.12294933405E+03  0.00000000000E+00 0.  1.
         11    1    3    3    0    0  0.26390553808E+02  0.66175955684E+01  0.14774558288E+02  0.30960320961E+02  0.00000000000E+00 0. -1.
        -13    1    4    4    0    0  0.35513499899E+02  0.73762108651E+01 -0.16677884103E+03  0.17067747062E+03  0.00000000000E+00 0. -1.
         13    1    4    4    0    0 -0.45727622813E+02 -0.10209278461E+00 -0.70581752512E+02  0.84099998209E+02  0.00000000000E+00 0.  1.
         21    1    1    2  502  501  0.26014857852E+02  0.54636491584E+02 -0.15559255579E+03  0.16694598665E+03  0.00000000000E+00 0. -1.
<scales pt_clust_5="13000.00000" pt_clust_6="13000.00000" pt_clust_7="13000.00000" pt_clust_8="13000.00000" pt_clust_9="60.51379"></scales>
<clustering>
<clus scale="   60.514">  2  9  1 -1</clus>
<clus scale="   89.444">  5  6 -1 -1</clus>
<clus scale="   91.729">  7  8 -1 -1</clus>
<clus scale="  107.046">  1  5  2 -1</clus>
<clus scale="   60.514">  2  5  1 -1</clus>
</clustering>
</event>
<event>
 9    1  0.2423659E-006  0.1967810E+03  0.7546771E-02  0.1184556E+00
          1   -1    0    0  502    0  0.00000000000E+00  0.00000000000E+00  0.12119099045E+04  0.12119099045E+04  0.00000000000E+00 0. -1.
         -1   -1    0    0    0  501 -0.00000000000E+00 -0.00000000000E+00 -0.92459688525E+02  0.92459688525E+02  0.00000000000E+00 0.  1.
         23    2    1    2    0    0 -0.10127054289E+02 -0.56288789749E+01  0.29488267072E+02  0.98799590358E+02  0.93581833990E+02 0.  0.
         23    2    1    2    0    0  0.18229337369E+03  0.21802503368E+02  0.16099755194E+03  0.26064795377E+03  0.91164251931E+02 0.  0.
        -11    1    4    4    0    0  0.31229977943E+02 -0.12382178227E+02 -0.45986386066E+01  0.33908366770E+02  0.00000000000E+00 0. -1.
         11    1    4    4    0    0  0.15106339575E+03  0.34184681596E+02  0.16559619054E+03  0.22673958700E+03  0.00000000000E+00 0.  1.
        -13    1    3    3    0    0 -0.31658056791E+02 -0.38915408338E+02  0.31274422683E+02  0.59116250559E+02  0.00000000000E+00 0.  1.
         13    1    3    3    0    0  0.21531002502E+02  0.33286529363E+02 -0.17861556112E+01  0.39683339800E+02  0.00000000000E+00 0. -1.
         21    1    1    2  502  501 -0.17216631940E+03 -0.16173624394E+02  0.92896439701E+03  0.94492204894E+03  0.00000000000E+00 0. -1.
<scales pt_clust_5="13000.00000" pt_clust_6="13000.00000" pt_clust_7="13000.00000" pt_clust_8="13000.00000" pt_clust_9="174.38993"></scales>
<clustering>
<clus scale="   91.164">  5  6 -1 -1</clus>
<clus scale="   93.582">  7  8 -1 -1</clus>
<clus scale="   94.296">  2  7  1 -1</clus>
<clus scale="  174.390">  1  9  2 -1</clus>
<clus scale="  174.390">  1  5  2 -1</clus>
</clustering>
</event>
<event>
 9    1  0.2423659E-006  0.1035181E+03  0.7546771E-02  0.1275802E+00
          2   -1    0    0  502    0  0.00000000000E+00  0.00000000000E+00  0.82852621609E+03  0.82852621609E+03  0.00000000000E+00 0. -1.
         -2   -1    0    0    0  501 -0.00000000000E+00 -0.00000000000E+00 -0.20080749826E+02  0.20080749826E+02  0.00000000000E+00 0.  1.
         23    2    1    2    0    0 -0.70972463846E+00 -0.46584820800E+02  0.21868608972E+03  0.24123826391E+03  0.90562933366E+02 0.  0.
         23    2    1    2    0    0 -0.28633633606E+02  0.20403264818E+02  0.36167564116E+03  0.37591957823E+03  0.96281263514E+02 0.  0.
        -13    1    4    4    0    0 -0.59861567694E+02  0.11880119075E+02  0.30125040641E+03  0.30737005690E+03  0.00000000000E+00 0.  1.
         13    1    4    4    0    0  0.31227934088E+02  0.85231457430E+01  0.60425234741E+02  0.68549521328E+02  0.00000000000E+00 0. -1.
        -13    1    3    3    0    0  0.38552260771E+02 -0.46272643844E+02  0.15655779775E+03  0.16774319186E+03  0.00000000000E+00 0. -1.
         13    1    3    3    0    0 -0.39261985409E+02 -0.31217695596E+00  0.62128291967E+02  0.73495072049E+02  0.00000000000E+00 0.  1.
         21    1    1    2  502  501  0.29343358245E+02  0.26181555982E+02  0.22808373539E+03  0.23144912377E+03  0.00000000000E+00 0. -1.
<scales pt_clust_5="13000.00000" pt_clust_6="13000.00000" pt_clust_7="13000.00000" pt_clust_8="13000.00000" pt_clust_9="39.32565"></scales>
<clustering>
<clus scale="   39.326">  1  9  2 -1</clus>
<clus scale="   90.563">  7  8 -1 -1</clus>
<clus scale="   96.281">  5  6 -1 -1</clus>
<clus scale="   98.222">  2  7  1 -1</clus>
<clus scale="   39.326">  1  5  2 -1</clus>
</clustering>
</event>
<event>
 9    1  0.2423659E-006  0.1792048E+03  0.7546771E-02  0.1197916E+00
         -2   -1    0    0    0  501 -0.00000000000E+00  0.00000000000E+00  0.71731153030E+02  0.71731153030E+02  0.00000000000E+00 0.  1.
          2   -1    0    0  502    0  0.00000000000E+00 -0.00000000000E+00 -0.67978726788E+03  0.67978726788E+03  0.00000000000E+00 0. -1.
         23    2    1    2    0    0  0.12349578149E+02 -0.20943643934E+02 -0.74989118626E+02  0.11946486697E+03  0.89762677245E+02 0.  0.
         23    2    1    2    0    0  0.54557455435E+02  0.15152478453E+03 -0.36299471144E+03  0.40743706417E+03  0.91123676736E+02 0.  0.
        -13    1    4    4    0    0  0.77420816086E+02  0.12613988255E+03 -0.31961402821E+03  0.35221922117E+03  0.00000000000E+00 0. -1.
         13    1    4    4    0    0 -0.22863360651E+02  0.25384901981E+02 -0.43380683221E+02  0.55217842999E+02  0.00000000000E+00 0.  1.
        -13    1    3    3    0    0  0.20425787339E+02 -0.16048472501E+01  0.16061264680E+02  0.26033680997E+02  0.00000000000E+00 0.  1.
         13    1    3    3    0    0 -0.80762091902E+01 -0.19338796684E+02 -0.91050383306E+02  0.93431185973E+02  0.00000000000E+00 0. -1.
         21    1    1    2  502  501 -0.66907033584E+02 -0.13058114059E+03 -0.17007228479E+03  0.22461648977E+03  0.00000000000E+00 0.  1.
<scales pt_clust_5="13000.00000" pt_clust_6="13000.00000" pt_clust_7="13000.00000" pt_clust_8="13000.00000" pt_clust_9="154.30756"></scales>
<clustering>
<clus scale="   89.763">  7  8 -1 -1</clus>
<clus scale="   91.124">  5  6 -1 -1</clus>
<clus scale="   92.997">  1  7  2 -1</clus>
<clus scale="  154.308">  1  9  2 -1</clus>
<clus scale="  179.205">  2  5  1 -1</clus>
</clustering>
</event>
<event>
 9    1  0.2423659E-006  0.9942652E+02  0.7546771E-02  0.1284876E+00
          1   -1    0    0  502    0  0.00000000000E+00  0.00000000000E+00  0.21622726127E+03  0.21622726127E+03  0.00000000000E+00 0. -1.
         -1   -1    0    0    0  501 -0.00000000000E+00 -0.00000000000E+00 -0.15826411956E+03  0.15826411956E+03  0.00000000000E+00 0.  1.
         23    2    1    2    0    0  0.10544059752E+02 -0.34294699411E+02  0.13508988317E+02  0.10424657080E+03  0.96940967365E+02 0.  0.
         23    2    1    2    0    0 -0.12015927931E+02 -0.38951765144E+02  0.12609939746E+03  0.16054906334E+03  0.90627375381E+02 0.  0.
        -13    1    4    4    0    0  0.32684432504E+02 -0.19966161929E+02  0.18577735614E+02  0.42568204223E+02  0.00000000000E+00 0.  1.
         13    1    4    4    0    0 -0.44700360434E+02 -0.18985603215E+02  0.10752166184E+03  0.11798085912E+03  0.00000000000E+00 0. -1.
        -13    1    3    3    0    0 -0.63447158762E+00  0.28077488700E+02  0.27552303304E+02  0.39343072366E+02  0.00000000000E+00 0.  1.
         13    1    3    3    0    0  0.11178531339E+02 -0.62372188110E+02 -0.14043314987E+02  0.64903498429E+02  0.00000000000E+00 0. -1.
         21    1    1    2  502  501  0.14718681791E+01  0.73246464555E+02 -0.81645244066E+02  0.10969574670E+03  0.00000000000E+00 0.  1.
<scales pt_clust_5="13000.00000" pt_clust_6="13000.00000" pt_clust_7="13000.00000" pt_clust_8="13000.00000" pt_clust_9="73.26125"></scales>
<clustering>
<clus scale="   73.261">  2  9  1 -1</clus>
<clus scale="   90.627">  5  6 -1 -1</clus>
<clus scale="   93.281">  1  5  2 -1</clus>
<clus scale="   96.941">  7  8 -1 -1</clus>
<clus scale="   93.281">  1  5  2 -1</clus>
</clustering>
</event>
<event>
 9    1  0.2423659E-006  0.1418192E+03  0.7546771E-02  0.1211622E+00
          1   -1    0    0  502    0  0.00000000000E+00  0.00000000000E+00  0.73115840234E+02  0.73115840234E+02  0.00000000000E+00 0. -1.
         -1   -1    0    0    0  501 -0.00000000000E+00 -0.00000000000E+00 -0.32984050970E+03  0.32984050970E+03  0.00000000000E+00 0.  1.
         23    2    1    2    0    0  0.75849442411E+02 -0.61356231404E+02 -0.15168018853E+03  0.20118651622E+03  0.89170677185E+02 0.  0.
         23    2    1    2    0    0 -0.97175462560E+02  0.60748707571E+02 -0.76013640441E+02  0.16574265064E+03  0.92515278265E+02 0.  0.
        -13    1    3    3    0    0 -0.20071166071E+02 -0.58744196459E+01 -0.30491122262E+02  0.36973896879E+02  0.00000000000E+00 0. -1.
         13    1    3    3    0    0  0.95920608482E+02 -0.55481811758E+02 -0.12118906626E+03  0.16421261934E+03  0.00000000000E+00 0.  1.
        -13    1    4    4    0    0 -0.47998867208E+02 -0.44809964837E+01  0.76509991445E+01  0.48810945193E+02  0.00000000000E+00 0. -1.
         13    1    4    4    0    0 -0.49176595351E+02  0.65229704054E+02 -0.83664639586E+02  0.11693170545E+03  0.00000000000E+00 0.  1.
         21    1    1    2  502  501  0.21326020148E+02  0.60752383321E+00 -0.29030840503E+02  0.36027183083E+02  0.00000000000E+00 0.  1.
<scales pt_clust_5="13000.00000" pt_clust_6="13000.00000" pt_clust_7="13000.00000" pt_clust_8="13000.00000" pt_clust_9="21.33467"></scales>
<clustering>
<clus scale="   21.335">  2  9  1 -1</clus>
<clus scale="   89.171">  5  6 -1 -1</clus>
<clus scale="   92.515">  7  8 -1 -1</clus>
<clus scale="  139.660">  2  5  1 -1</clus>
<clus scale="  141.819">  1  5  2 -1</clus>
</clustering>
</event>
<event>
 9    1  0.2423659E-006  0.1150352E+03  0.7546771E-02  0.1251780E+00
         -1   -1    0    0    0  501 -0.00000000000E+00  0.00000000000E+00  0.20011134245E+03  0.20011134245E+03  0.00000000000E+00 0.  1.
          1   -1    0    0  502    0  0.00000000000E+00 -0.00000000000E+00 -0.38849607361E+03  0.38849607361E+03  0.00000000000E+00 0. -1.
         23    2    1    2    0    0  0.41090285049E+02 -0.92191857182E+02  0.12229733730E+03  0.18347462225E+03  0.92295981726E+02 0.  0.
         23    2    1    2    0    0 -0.64218836972E+02  0.23537685383E+02 -0.31242115987E+03  0.33266659715E+03  0.91553274508E+02 0.  0.
        -11    1    3    3    0    0  0.20764163508E+02 -0.55903160824E+02  0.12826952693E+03  0.14145453480E+03  0.00000000000E+00 0.  1.
         11    1    3    3    0    0  0.20326121541E+02 -0.36288696358E+02 -0.59721896303E+01  0.42020087450E+02  0.00000000000E+00 0. -1.
        -11    1    4    4    0    0 -0.72655532029E+02 -0.11366484847E+02 -0.16028478102E+03  0.17634975004E+03  0.00000000000E+00 0. -1.
         11    1    4    4    0    0  0.84366950572E+01  0.34904170230E+02 -0.15213637884E+03  0.15631684711E+03  0.00000000000E+00 0.  1.
         21    1    1    2  502  501  0.23128551922E+02  0.68654171799E+02  0.17390913962E+01  0.72466196660E+02  0.00000000000E+00 0. -1.
<scales pt_clust_5="13000.00000" pt_clust_6="13000.00000" pt_clust_7="13000.00000" pt_clust_8="13000.00000" pt_clust_9="72.44533"></scales>
<clustering>
<clus scale="   72.445">  1  9  2 -1</clus>
<clus scale="   91.553">  7  8 -1 -1</clus>
<clus scale="   92.296">  5  6 -1 -1</clus>
<clus scale="  114.440">  2  7  1 -1</clus>
<clus scale="  114.440">  2  5  1 -1</clus>
</clustering>
</event>
<event>
 9    1  0.2423659E-006  0.1318439E+03  0.7546771E-02  0.1228775E+00
         -1   -1    0    0    0  501 -0.00000000000E+00  0.00000000000E+00  0.41453913935E+03  0.41453913935E+03  0.00000000000E+00 0.  1.
          1   -1    0    0  502    0  0.00000000000E+00 -0.00000000000E+00 -0.53586254140E+03  0.53586254140E+03  0.00000000000E+00 0. -1.
         23    2    1    2    0    0 -0.14554849422E+03 -0.47341169906E+01  0.11531066774E+03  0.21214723413E+03  0.10248474434E+03 0.  0.
         23    2    1    2    0    0  0.49042519030E+02 -0.66691349940E+02 -0.46485279614E+03  0.48038085814E+03  0.88457571529E+02 0.  0.
        -11    1    3    3    0    0 -0.12962246313E+03  0.35246793204E+02  0.78986331750E+02  0.15583054894E+03  0.00000000000E+00 0.  1.
         11    1    3    3    0    0 -0.15926031086E+02 -0.39980910194E+02  0.36324335985E+02  0.56316685190E+02  0.00000000000E+00 0. -1.
        -13    1    4    4    0    0  0.42122374388E+02 -0.87261524874E+02 -0.33519165310E+03  0.34891591029E+03  0.00000000000E+00 0. -1.
         13    1    4    4    0    0  0.69201446422E+01  0.20570174934E+02 -0.12966114304E+03  0.13146494785E+03  0.00000000000E+00 0.  1.
         21    1    1    2  502  501  0.96505975191E+02  0.71425466930E+02  0.22821872635E+03  0.25787358847E+03  0.00000000000E+00 0. -1.
<scales pt_clust_5="13000.00000" pt_clust_6="13000.00000" pt_clust_7="13000.00000" pt_clust_8="13000.00000" pt_clust_9="120.06249"></scales>
<clustering>
<clus scale="   88.458">  7  8 -1 -1</clus>
<clus scale="  102.485">  5  6 -1 -1</clus>
<clus scale="  120.062">  1  9  2 -1</clus>
<clus scale="  121.262">  2  7  1 -1</clus>
<clus scale="  121.262">  2  5  1 -1</clus>
</clustering>
</event>
<event>
 9    1  0.2423659E-006  0.9856395E+02  0.7546771E-02  0.1285009E+00
         -3   -1    0    0    0  501 -0.00000000000E+00  0.00000000000E+00  0.37475110999E+03  0.37475110999E+03  0.00000000000E+00 0.  1.
          3   -1    0    0  502    0  0.00000000000E+00 -0.00000000000E+00 -0.10378211284E+03  0.10378211284E+03  0.00000000000E+00 0. -1.
         23    2    1    2    0    0  0.41172054306E+01  0.31310431128E+02  0.27417089289E+03  0.28977972525E+03  0.88347700500E+02 0.  0.
         23    2    1    2    0    0  0.31883854208E+02 -0.61364214800E+02  0.43311782752E+02  0.12270178682E+03  0.91638806993E+02 0.  0.
        -11    1    4    4    0    0  0.18356086335E+02  0.21493288370E+02  0.69048743379E-01  0.28265033491E+02  0.00000000000E+00 0.  1.
         11    1    4    4    0    0  0.13527767873E+02 -0.82857503170E+02  0.43242734008E+02  0.94436753331E+02  0.00000000000E+00 0. -1.
        -11    1    3    3    0    0 -0.25480373135E+02 -0.16929065632E+02  0.50355453980E+02  0.58919558924E+02  0.00000000000E+00 0. -1.
         11    1    3    3    0    0  0.29597578565E+02  0.48239496760E+02  0.22381543891E+03  0.23086016633E+03  0.00000000000E+00 0.  1.
         21    1    1    2  502  501 -0.36001059639E+02  0.30053783672E+02 -0.46513678485E+02  0.66051710760E+02  0.00000000000E+00 0.  1.
<scales pt_clust_5="13000.00000" pt_clust_6="13000.00000" pt_clust_7="13000.00000" pt_clust_8="13000.00000" pt_clust_9="46.89676"></scales>
<clustering>
<clus scale="   46.897">  2  9  1 -1</clus>
<clus scale="   88.348">  7  8 -1 -1</clus>
<clus scale="   91.639">  5  6 -1 -1</clus>
<clus scale="   95.512">  1  7  2 -1</clus>
<clus scale="   46.897">  2  5  1 -1</clus>
</clustering>
</event>
<event>
 9    1  0.2423659E-006  0.1556995E+03  0.7546771E-02  0.1196878E+00
          2   -1    0    0  502    0  0.00000000000E+00  0.00000000000E+00  0.52371279996E+03  0.52371279996E+03  0.00000000000E+00 0. -1.
         -2   -1    0    0    0  501 -0.00000000000E+00 -0.00000000000E+00 -0.23821594522E+03  0.23821594522E+03  0.00000000000E+00 0.  1.
         23    2    1    2    0    0 -0.10339656276E+03 -0.68084721584E+02 -0.18427582091E+03  0.23302704659E+03  0.70835356769E+02 0.  0.
         23    2    1    2    0    0  0.14421400175E+03  0.78054804720E+02  0.29763346999E+03  0.35170866257E+03  0.90681144833E+02 0.  0.
        -11    1    3    3    0    0 -0.28427624822E+02 -0.49185825176E+02 -0.40455159240E+02  0.69742348400E+02  0.00000000000E+00 0. -1.
         11    1    3    3    0    0 -0.74968937935E+02 -0.18898896408E+02 -0.14382066167E+03  0.16328469819E+03  0.00000000000E+00 0.  1.
        -13    1    4    4    0    0  0.91860638039E+02 -0.93680011132E+00  0.16228321841E+03  0.18648082312E+03  0.00000000000E+00 0. -1.
         13    1    4    4    0    0  0.52353363714E+02  0.78991604831E+02  0.13535025159E+03  0.16522783945E+03  0.00000000000E+00 0.  1.
         21    1    1    2  502  501 -0.40817438996E+02 -0.99700831360E+01  0.17213920566E+03  0.17719303600E+03  0.00000000000E+00 0.  1.
<scales pt_clust_5="13000.00000" pt_clust_6="13000.00000" pt_clust_7="13000.00000" pt_clust_8="13000.00000" pt_clust_9="42.01745"></scales>
<clustering>
<clus scale="   42.017">  1  9  2 -1</clus>
<clus scale="   70.835">  5  6 -1 -1</clus>
<clus scale="   90.681">  7  8 -1 -1</clus>
<clus scale="  145.041">  2  5  1 -1</clus>
<clus scale="   42.017">  1  5  2 -1</clus>
</clustering>
</event>
<event>
 9    1  0.2423659E-006  0.3084529E+03  0.7546771E-02  0.1111945E+00
          3   -1    0    0  502    0  0.00000000000E+00  0.00000000000E+00  0.12505886873E+04  0.12505886873E+04  0.00000000000E+00 0. -1.
         -3   -1    0    0    0  501 -0.00000000000E+00 -0.00000000000E+00 -0.22917785466E+03  0.22917785466E+03  0.00000000000E+00 0.  1.
         23    2    1    2    0    0 -0.69865550764E+02 -0.19061684603E+03  0.92421512082E+03  0.95071185817E+03  0.91997122434E+02 0.  0.
         23    2    1    2    0    0 -0.56381259850E+02 -0.88638537370E+02  0.16522482899E+03  0.21512827979E+03  0.89136389203E+02 0.  0.
        -11    1    4    4    0    0 -0.32374398222E+02 -0.15473262998E+02  0.35562736126E+01  0.36057878612E+02  0.00000000000E+00 0.  1.
         11    1    4    4    0    0 -0.24006861629E+02 -0.73165274373E+02  0.16166855538E+03  0.17907040118E+03  0.00000000000E+00 0. -1.
        -13    1    3    3    0    0 -0.83420471890E+02 -0.10819909536E+03  0.49867136320E+03  0.51704849661E+03  0.00000000000E+00 0. -1.
         13    1    3    3    0    0  0.13554921126E+02 -0.82417750670E+02  0.42554375762E+03  0.43366336156E+03  0.00000000000E+00 0.  1.
         21    1    1    2  502  501  0.12624681061E+03  0.27925538340E+03 -0.68029117166E+02  0.31392640401E+03  0.00000000000E+00 0.  1.
<scales pt_clust_5="13000.00000" pt_clust_6="13000.00000" pt_clust_7="13000.00000" pt_clust_8="13000.00000" pt_clust_9="294.41420"></scales>
<clustering>
<clus scale="   89.136">  5  6 -1 -1</clus>
<clus scale="   91.997">  7  8 -1 -1</clus>
<clus scale="  137.771">  1  5  2 -1</clus>
<clus scale="  294.414">  2  9  1 -1</clus>
<clus scale="  137.771">  1  5  2 -1</clus>
</clustering>
</event>
<event>
 9    1  0.2423659E-006  0.9798852E+02  0.7546771E-02  0.1285336E+00
          1   -1    0    0  502    0  0.00000000000E+00  0.00000000000E+00  0.51413842117E+03  0.51413842117E+03  0.00000000000E+00 0. -1.
         -1   -1    0    0    0  501 -0.00000000000E+00 -0.00000000000E+00 -0.44360509287E+02  0.44360509287E+02  0.00000000000E+00 0.  1.
         23    2    1    2    0    0 -0.36661729717E+02  0.18303308702E+02  0.48446678329E+02  0.11145866265E+03  0.91634378390E+02 0.  0.
         23    2    1    2    0    0 -0.48235650477E+01 -0.16076427318E+02  0.19269627597E+03  0.21466141225E+03  0.93091078200E+02 0.  0.
        -11    1    3    3    0    0 -0.39687637117E+02  0.47828005485E+02  0.52687832488E+02  0.81477815023E+02  0.00000000000E+00 0. -1.
         11    1    3    3    0    0  0.30259074002E+01 -0.29524696783E+02 -0.42411541598E+01  0.29980847625E+02  0.00000000000E+00 0.  1.
        -11    1    4    4    0    0 -0.34880898452E+02 -0.40838638469E+01  0.17353432729E+03  0.17705230235E+03  0.00000000000E+00 0. -1.
         11    1    4    4    0    0  0.30057333404E+02 -0.11992563471E+02  0.19161948684E+02  0.37609109898E+02  0.00000000000E+00 0.  1.
         21    1    1    2  502  501  0.41485294764E+02 -0.22268813841E+01  0.22863495758E+03  0.23237885556E+03  0.00000000000E+00 0.  1.
<scales pt_clust_5="13000.00000" pt_clust_6="13000.00000" pt_clust_7="13000.00000" pt_clust_8="13000.00000" pt_clust_9="41.54502"></scales>
<clustering>
<clus scale="   41.545">  1  9  2 -1</clus>
<clus scale="   91.634">  5  6 -1 -1</clus>
<clus scale="   93.091">  7  8 -1 -1</clus>
<clus scale="   96.606">  2  5  1 -1</clus>
<clus scale="   41.545">  1  5  2 -1</clus>
</clustering>
</event>
<event>
 9    1  0.2423659E-006  0.1402399E+03  0.7546771E-02  0.1213494E+00
         -3   -1    0    0    0  501 -0.00000000000E+00  0.00000000000E+00  0.21859583015E+03  0.21859583015E+03  0.00000000000E+00 0.  1.
          3   -1    0    0  502    0  0.00000000000E+00 -0.00000000000E+00 -0.39204402642E+03  0.39204402642E+03  0.00000000000E+00 0. -1.
         23    2    1    2    0    0 -0.25261027229E+01  0.39428889622E+02  0.39503606719E+02  0.10880926049E+03  0.93369704368E+02 0.  0.
         23    2    1    2    0    0 -0.70055315850E+02 -0.99149140559E+02 -0.32312019653E+03  0.35701469353E+03  0.91184048155E+02 0.  0.
        -11    1    4    4    0    0 -0.36056951275E+01 -0.42580347896E+02 -0.32820867217E+02  0.53882245584E+02  0.00000000000E+00 0.  1.
         11    1    4    4    0    0 -0.66449620722E+02 -0.56568792662E+02 -0.29029932932E+03  0.30313244795E+03  0.00000000000E+00 0. -1.
        -13    1    3    3    0    0 -0.23032427544E+02  0.49169068846E+02  0.58056918853E+02  0.79490225037E+02  0.00000000000E+00 0.  1.
         13    1    3    3    0    0  0.20506324821E+02 -0.97401792242E+01 -0.18553312134E+02  0.29319035457E+02  0.00000000000E+00 0. -1.
         21    1    1    2  502  501  0.72581418573E+02  0.59720250937E+02  0.11016839355E+03  0.14481590255E+03  0.00000000000E+00 0.  1.
<scales pt_clust_5="13000.00000" pt_clust_6="13000.00000" pt_clust_7="13000.00000" pt_clust_8="13000.00000" pt_clust_9="93.99240"></scales>
<clustering>
<clus scale="   91.184">  5  6 -1 -1</clus>
<clus scale="   93.370">  7  8 -1 -1</clus>
<clus scale="   93.992">  1  9  2 -1</clus>
<clus scale="  138.794">  2  5  1 -1</clus>
<clus scale="  138.794">  2  5  1 -1</clus>
</clustering>
</event>
<event>
 9    1  0.2423659E-006  0.1418154E+03  0.7546771E-02  0.1228738E+00
          2   -1    0    0  502    0  0.00000000000E+00  0.00000000000E+00  0.15088603999E+03  0.15088603999E+03  0.00000000000E+00 0. -1.
         -2   -1    0    0    0  501 -0.00000000000E+00 -0.00000000000E+00 -0.22422895723E+03  0.22422895723E+03  0.00000000000E+00 0.  1.
         23    2    1    2    0    0 -0.10253466660E+02 -0.31758907693E+02 -0.55990834896E+02  0.11244519759E+03  0.91625253469E+02 0.  0.
         23    2    1    2    0    0  0.67131843140E+01 -0.88224199821E+02 -0.54217680405E+02  0.13710088624E+03  0.89602008136E+02 0.  0.
        -13    1    4    4    0    0 -0.32474619238E+02 -0.62270197516E+02 -0.56361548846E+02  0.90048889952E+02  0.00000000000E+00 0.  1.
         13    1    4    4    0    0  0.39187803552E+02 -0.25954002305E+02  0.21438684409E+01  0.47051996289E+02  0.00000000000E+00 0. -1.
        -13    1    3    3    0    0 -0.14845843632E+02  0.30786116454E+02 -0.13794298501E+02  0.36857383393E+02  0.00000000000E+00 0. -1.
         13    1    3    3    0    0  0.45923769718E+01 -0.62545024147E+02 -0.42196536396E+02  0.75587814201E+02  0.00000000000E+00 0.  1.
         21    1    1    2  502  501  0.35402823465E+01  0.11998310751E+03  0.36865598063E+02  0.12556891338E+03  0.00000000000E+00 0. -1.
<scales pt_clust_5="13000.00000" pt_clust_6="13000.00000" pt_clust_7="13000.00000" pt_clust_8="13000.00000" pt_clust_9="109.92314"></scales>
<clustering>
<clus scale="   89.602">  5  6 -1 -1</clus>
<clus scale="   91.625">  7  8 -1 -1</clus>
<clus scale="   97.514">  2  7  1 -1</clus>
<clus scale="  109.923">  1  9  2 -1</clus>
<clus scale="  109.923">  1  5  2 -1</clus>
</clustering>
</event>
<event>
 9    1  0.2423659E-006  0.2176616E+03  0.7546771E-02  0.1168648E+00
          2   -1    0    0  502    0  0.00000000000E+00  0.00000000000E+00  0.16708873865E+03  0.16708873865E+03  0.00000000000E+00 0. -1.
         -2   -1    0    0    0  501 -0.00000000000E+00 -0.00000000000E+00 -0.40550882254E+03  0.40550882254E+03  0.00000000000E+00 0.  1.
         23    2    1    2    0    0 -0.37367809918E+02 -0.99165656098E+01 -0.70113327570E+02  0.12200294533E+03  0.92055138236E+02 0.  0.
         23    2    1    2    0    0  0.21359300976E+03 -0.37884843592E+02 -0.92361649413E+02  0.25283730236E+03  0.91316986301E+02 0.  0.
        -11    1    3    3    0    0 -0.31480404012E+02  0.12329244711E+02  0.12651745608E+02  0.36098376402E+02  0.00000000000E+00 0. -1.
         11    1    3    3    0    0 -0.58874059061E+01 -0.22245810321E+02 -0.82765073178E+02  0.85904568932E+02  0.00000000000E+00 0.  1.
        -13    1    4    4    0    0  0.11801669002E+03 -0.60496282511E+02 -0.77220255678E+02  0.15346239672E+03  0.00000000000E+00 0.  1.
         13    1    4    4    0    0  0.95576319741E+02  0.22611438919E+02 -0.15141393736E+02  0.99374905632E+02  0.00000000000E+00 0. -1.
         21    1    1    2  502  501 -0.17622519984E+03  0.47801409202E+02 -0.75945106907E+02  0.19775731351E+03  0.00000000000E+00 0. -1.
<scales pt_clust_5="13000.00000" pt_clust_6="13000.00000" pt_clust_7="13000.00000" pt_clust_8="13000.00000" pt_clust_9="197.57980"></scales>
<clustering>
<clus scale="   91.317">  7  8 -1 -1</clus>
<clus scale="   92.055">  5  6 -1 -1</clus>
<clus scale="   99.844">  2  5  1 -1</clus>
<clus scale="  197.580">  1  9  2 -1</clus>
<clus scale="  197.580">  1  5  2 -1</clus>
</clustering>
</event>
<event>
 9    1  0.2423659E-006  0.1160763E+03  0.7546771E-02  0.1250619E+00
         -4   -1    0    0    0  501 -0.00000000000E+00  0.00000000000E+00  0.26643198840E+02  0.26643198840E+02  0.00000000000E+00 0.  1.
          4   -1    0    0  502    0  0.00000000000E+00 -0.00000000000E+00 -0.86863378444E+03  0.86863378444E+03  0.00000000000E+00 0. -1.
         23    2    1    2    0    0  0.52452477949E+02  0.70581487196E+02 -0.25234204352E+03  0.28220039693E+03  0.90705834011E+02 0.  0.
         23    2    1    2    0    0 -0.57341629762E+02 -0.28118041128E+02 -0.51302461942E+03  0.52533678021E+03  0.93304800351E+02 0.  0.
        -11    1    3    3    0    0 -0.98731954394E+01  0.62381896922E+02 -0.13640736896E+03  0.15031949759E+03  0.00000000000E+00 0.  1.
         11    1    3    3    0    0  0.62325673388E+02  0.81995902745E+01 -0.11593467457E+03  0.13188089934E+03  0.00000000000E+00 0. -1.
        -13    1    4    4    0    0 -0.43902053016E+02  0.28517672363E+02 -0.29847019549E+03  0.30302657555E+03  0.00000000000E+00 0.  1.
         13    1    4    4    0    0 -0.13439576746E+02 -0.56635713491E+02 -0.21455442393E+03  0.22231020465E+03  0.00000000000E+00 0. -1.
         21    1    1    2  502  501  0.48891518128E+01 -0.42463446069E+02 -0.76623922661E+02  0.87739806139E+02  0.00000000000E+00 0. -1.
<scales pt_clust_5="13000.00000" pt_clust_6="13000.00000" pt_clust_7="13000.00000" pt_clust_8="13000.00000" pt_clust_9="42.74398"></scales>
<clustering>
<clus scale="   42.744">  1  9  2 -1</clus>
<clus scale="   90.706">  5  6 -1 -1</clus>
<clus scale="   93.305">  7  8 -1 -1</clus>
<clus scale="  113.998">  1  5  2 -1</clus>
<clus scale="  116.076">  2  5  1 -1</clus>
</clustering>
</event>
<event>
 9    1  0.2423659E-006  0.9642987E+02  0.7546771E-02  0.1288795E+00
         -2   -1    0    0    0  501 -0.00000000000E+00  0.00000000000E+00  0.34934052589E+02  0.34934052589E+02  0.00000000000E+00 0.  1.
          2   -1    0    0  502    0  0.00000000000E+00 -0.00000000000E+00 -0.43971128003E+03  0.43971128003E+03  0.00000000000E+00 0. -1.
         23    2    1    2    0    0  0.31394450701E+02 -0.24243221510E+02 -0.12728211069E+03  0.16208786648E+03  0.92186742179E+02 0.  0.
         23    2    1    2    0    0 -0.87326175729E+01 -0.18031555849E+02 -0.18950141307E+03  0.21233966648E+03  0.93680055450E+02 0.  0.
        -11    1    4    4    0    0  0.13392001515E+02 -0.48781226258E+02 -0.65982654467E+02  0.83142434594E+02  0.00000000000E+00 0.  1.
         11    1    4    4    0    0 -0.22124619088E+02  0.30749670408E+02 -0.12351875860E+03  0.12919723188E+03  0.00000000000E+00 0. -1.
        -13    1    3    3    0    0  0.51359916419E+02  0.30868026329E+01 -0.11516853254E+03  0.12613944764E+03  0.00000000000E+00 0.  1.
         13    1    3    3    0    0 -0.19965465719E+02 -0.27330024143E+02 -0.12113578153E+02  0.35948418835E+02  0.00000000000E+00 0. -1.
         21    1    1    2  502  501 -0.22661833128E+02  0.42274777360E+02 -0.87993703683E+02  0.10021779966E+03  0.00000000000E+00 0. -1.
<scales pt_clust_5="13000.00000" pt_clust_6="13000.00000" pt_clust_7="13000.00000" pt_clust_8="13000.00000" pt_clust_9="47.96577"></scales>
<clustering>
<clus scale="   47.966">  2  9  1 -1</clus>
<clus scale="   92.187">  7  8 -1 -1</clus>
<clus scale="   93.680">  5  6 -1 -1</clus>
<clus scale="   94.980">  1  7  2 -1</clus>
<clus scale="   47.966">  2  5  1 -1</clus>
</clustering>
</event>
<event>
 9    1  0.2423659E-006  0.9734322E+02  0.7546771E-02  0.1287408E+00
         -3   -1    0    0    0  501 -0.00000000000E+00  0.00000000000E+00  0.26432702907E+03  0.26432702907E+03  0.00000000000E+00 0.  1.
          3   -1    0    0  502    0  0.00000000000E+00 -0.00000000000E+00 -0.75084670117E+02  0.75084670117E+02  0.00000000000E+00 0. -1.
         23    2    1    2    0    0 -0.34202167021E+02  0.39633981688E+02  0.12043192111E+03  0.15954795955E+03  0.90614916210E+02 0.  0.
         23    2    1    2    0    0  0.32194990003E+02  0.21572804177E+02  0.69657453974E+02  0.11861819424E+03  0.87841970890E+02 0.  0.
        -11    1    4    4    0    0  0.72636665704E+01 -0.34111578242E+02  0.28257963475E+02  0.44887338103E+02  0.00000000000E+00 0. -1.
         11    1    4    4    0    0  0.24931323433E+02  0.55684382419E+02  0.41399490498E+02  0.73730856139E+02  0.00000000000E+00 0.  1.
        -13    1    3    3    0    0  0.23450095566E+02  0.85753352489E+01  0.30763366736E+01  0.25157647029E+02  0.00000000000E+00 0. -1.
         13    1    3    3    0    0 -0.57652262587E+02  0.31058646439E+02  0.11735558444E+03  0.13439031252E+03  0.00000000000E+00 0.  1.
         21    1    1    2  502  501  0.20071770179E+01 -0.61206785865E+02 -0.84701612529E+00  0.61245545404E+02  0.00000000000E+00 0. -1.
<scales pt_clust_5="13000.00000" pt_clust_6="13000.00000" pt_clust_7="13000.00000" pt_clust_8="13000.00000" pt_clust_9="61.23969"></scales>
<clustering>
<clus scale="   61.240">  2  9  1 -1</clus>
<clus scale="   87.842">  5  6 -1 -1</clus>
<clus scale="   90.615">  7  8 -1 -1</clus>
<clus scale="   94.767">  2  5  1 -1</clus>
<clus scale="   61.240">  2  5  1 -1</clus>
</clustering>
</event>
<event>
 9    1  0.2423659E-006  0.9309217E+02  0.7546771E-02  0.1295602E+00
         -3   -1    0    0    0  501 -0.00000000000E+00  0.00000000000E+00  0.16744251047E+03  0.16744251047E+03  0.00000000000E+00 0.  1.
          3   -1    0    0  502    0  0.00000000000E+00 -0.00000000000E+00 -0.16223437590E+03  0.16223437590E+03  0.00000000000E+00 0. -1.
         23    2    1    2    0    0  0.20100384175E+02 -0.71510864419E+00  0.80413032061E+02  0.12366421317E+03  0.91771700813E+02 0.  0.
         23    2    1    2    0    0  0.90879067434E+01 -0.33061059169E+02  0.20685223604E+02  0.10024074326E+03  0.91895073056E+02 0.  0.
        -11    1    4    4    0    0  0.44140735447E+01  0.29716980030E+02 -0.79576407988E+01  0.31079044298E+02  0.00000000000E+00 0.  1.
         11    1    4    4    0    0  0.46738331987E+01 -0.62778039199E+02  0.28642864403E+02  0.69161698965E+02  0.00000000000E+00 0. -1.
        -11    1    3    3    0    0 -0.34124502622E+02  0.13984068511E+02  0.40330285232E+02  0.54649499158E+02  0.00000000000E+00 0.  1.
         11    1    3    3    0    0  0.54224886797E+02 -0.14699177155E+02  0.40082746829E+02  0.69014714015E+02  0.00000000000E+00 0. -1.
         21    1    1    2  502  501 -0.29188290919E+02  0.33776167813E+02 -0.95890121096E+02  0.10577192994E+03  0.00000000000E+00 0.  1.
<scales pt_clust_5="13000.00000" pt_clust_6="13000.00000" pt_clust_7="13000.00000" pt_clust_8="13000.00000" pt_clust_9="44.64063"></scales>
<clustering>
<clus scale="   44.641">  2  9  1 -1</clus>
<clus scale="   91.772">  7  8 -1 -1</clus>
<clus scale="   91.895">  5  6 -1 -1</clus>
<clus scale="   92.970">  1  7  2 -1</clus>
<clus scale="   44.641">  2  5  1 -1</clus>
</clustering>
</event>
<event>
 9    1  0.2423659E-006  0.9532951E+02  0.7546771E-02  0.1291948E+00
          1   -1    0    0  502    0  0.00000000000E+00  0.00000000000E+00  0.26336853558E+03  0.26336853558E+03  0.00000000000E+00 0. -1.
         -1   -1    0    0    0  501 -0.00000000000E+00 -0.00000000000E+00 -0.69628891332E+02  0.69628891332E+02  0.00000000000E+00 0.  1.
         23    2    1    2    0    0 -0.96840991691E+01  0.29631861243E+02 -0.17913494785E+01  0.96302835605E+02  0.91099935429E+02 0.  0.
         23    2    1    2    0    0  0.25025488437E+02 -0.14347402044E+02  0.19386164755E+03  0.21497456290E+03  0.88315351362E+02 0.  0.
        -11    1    3    3    0    0  0.31704777781E+02  0.22701608843E+00 -0.25098890675E+02  0.40437591219E+02  0.00000000000E+00 0.  1.
         11    1    3    3    0    0 -0.41388876950E+02  0.29404845155E+02  0.23307541196E+02  0.55865244387E+02  0.00000000000E+00 0. -1.
        -13    1    4    4    0    0 -0.92611731868E+01  0.28730788871E+02  0.11431034097E+03  0.11822893728E+03  0.00000000000E+00 0.  1.
         13    1    4    4    0    0  0.34286661623E+02 -0.43078190915E+02  0.79551306580E+02  0.96745625619E+02  0.00000000000E+00 0. -1.
         21    1    1    2  502  501 -0.15341389268E+02 -0.15284459199E+02  0.16693461840E+01  0.21720028415E+02  0.00000000000E+00 0. -1.
<scales pt_clust_5="13000.00000" pt_clust_6="13000.00000" pt_clust_7="13000.00000" pt_clust_8="13000.00000" pt_clust_9="21.65578"></scales>
<clustering>
<clus scale="   21.656">  2  9  1 -1</clus>
<clus scale="   88.315">  7  8 -1 -1</clus>
<clus scale="   91.100">  5  6 -1 -1</clus>
<clus scale="   92.672">  1  7  2 -1</clus>
<clus scale="   92.672">  1  5  2 -1</clus>
</clustering>
</event>
<event>
 9    1  0.2423659E-006  0.1854605E+03  0.7546771E-02  0.1195913E+00
          1   -1    0    0  502    0  0.00000000000E+00  0.00000000000E+00  0.93382251760E+03  0.93382251760E+03  0.00000000000E+00 0. -1.
         -1   -1    0    0    0  501 -0.00000000000E+00 -0.00000000000E+00 -0.78718564894E+02  0.78718564894E+02  0.00000000000E+00 0.  1.
         23    2    1    2    0    0  0.11064732250E+02  0.16311666608E+03  0.92519772549E+02  0.20752014179E+03  0.88177241305E+02 0.  0.
         23    2    1    2    0    0  0.39061175161E+02 -0.52542419412E+01  0.19562907144E+03  0.21436770330E+03  0.78290460230E+02 0.  0.
        -11    1    4    4    0    0 -0.20059957544E+02  0.36083881530E+01  0.96323750298E+02  0.98456524585E+02  0.00000000000E+00 0.  1.
         11    1    4    4    0    0  0.59121132705E+02 -0.88626300942E+01  0.99305321143E+02  0.11591117872E+03  0.00000000000E+00 0. -1.
        -11    1    3    3    0    0  0.33507335048E+02  0.61114263978E+02  0.73625907452E+02  0.10138278459E+03  0.00000000000E+00 0. -1.
         11    1    3    3    0    0 -0.22442602798E+02  0.10200240210E+03  0.18893865097E+02  0.10613735720E+03  0.00000000000E+00 0.  1.
         21    1    1    2  502  501 -0.50125907410E+02 -0.15786242414E+03  0.56695510871E+03  0.59065323739E+03  0.00000000000E+00 0. -1.
<scales pt_clust_5="13000.00000" pt_clust_6="13000.00000" pt_clust_7="13000.00000" pt_clust_8="13000.00000" pt_clust_9="163.15756"></scales>
<clustering>
<clus scale="   78.290">  5  6 -1 -1</clus>
<clus scale="   87.651">  1  5  2 -1</clus>
<clus scale="   88.177">  7  8 -1 -1</clus>
<clus scale="  163.158">  1  9  2 -1</clus>
<clus scale="   87.651">  1  5  2 -1</clus>
</clustering>
</event>
<event>
 9    1  0.2423659E-006  0.1094242E+03  0.7546771E-02  0.1262470E+00
          2   -1    0    0  502    0  0.00000000000E+00  0.00000000000E+00  0.50080761655E+02  0.50080761655E+02  0.00000000000E+00 0.  1.
         -2   -1    0    0    0  501 -0.00000000000E+00 -0.00000000000E+00 -0.40343807917E+03  0.40343807917E+03  0.00000000000E+00 0. -1.
         23    2    1    2    0    0 -0.18741520554E+02 -0.49075228028E+02 -0.19124281416E+03  0.21861010273E+03  0.91961624857E+02 0.  0.
         23    2    1    2    0    0  0.60757598854E+02  0.44718139426E+02 -0.15101340956E+03  0.19123300868E+03  0.89854415195E+02 0.  0.
        -11    1    3    3    0    0 -0.30766871725E+02 -0.65817912967E+02 -0.18210206764E+03  0.19606060569E+03  0.00000000000E+00 0.  1.
         11    1    3    3    0    0  0.12025351171E+02  0.16742684939E+02 -0.91407465217E+01  0.22549497039E+02  0.00000000000E+00 0. -1.
        -13    1    4    4    0    0 -0.34203858710E+01  0.47814673620E+02 -0.37759856793E+02  0.61022527299E+02  0.00000000000E+00 0.  1.
         13    1    4    4    0    0  0.64177984725E+02 -0.30965341949E+01 -0.11325355277E+03  0.13021048138E+03  0.00000000000E+00 0. -1.
         21    1    1    2  502  501 -0.42016078299E+02  0.43570886024E+01 -0.11101093791E+02  0.43675729417E+02  0.00000000000E+00 0. -1.
<scales pt_clust_5="13000.00000" pt_clust_6="13000.00000" pt_clust_7="13000.00000" pt_clust_8="13000.00000" pt_clust_9="42.24139"></scales>
<clustering>
<clus scale="   42.241">  1  9  2 -1</clus>
<clus scale="   89.854">  7  8 -1 -1</clus>
<clus scale="   91.962">  5  6 -1 -1</clus>
<clus scale="  107.659">  1  7  2 -1</clus>
<clus scale="   42.241">  1  5  2 -1</clus>
</clustering>
</event>
<event>
 9    1  0.2423659E-006  0.9401970E+02  0.7546771E-02  0.1294594E+00
         -1   -1    0    0    0  501 -0.00000000000E+00  0.00000000000E+00  0.80980079171E+02  0.80980079171E+02  0.00000000000E+00 0.  1.
          1   -1    0    0  502    0  0.00000000000E+00 -0.00000000000E+00 -0.63080522775E+03  0.63080522775E+03  0.00000000000E+00 0. -1.
         23    2    1    2    0    0  0.63484643552E+02  0.28056930410E+02 -0.56375913982E+02  0.12877232361E+03  0.92663781166E+02 0.  0.
         23    2    1    2    0    0  0.24560799479E+02 -0.31608156745E+01 -0.48169886269E+03  0.49076393016E+03  0.90566093001E+02 0.  0.
        -11    1    3    3    0    0  0.10949206573E+02 -0.25152383269E+02 -0.45614014606E+02  0.53227491366E+02  0.00000000000E+00 0.  1.
         11    1    3    3    0    0  0.52535436978E+02  0.53209313679E+02 -0.10761899377E+02  0.75544832245E+02  0.00000000000E+00 0. -1.
        -13    1    4    4    0    0 -0.34024994683E+02  0.51991663226E+01 -0.15889999180E+03  0.16258517456E+03  0.00000000000E+00 0.  1.
         13    1    4    4    0    0  0.58585794162E+02 -0.83599819971E+01 -0.32279887090E+03  0.32817875560E+03  0.00000000000E+00 0. -1.
         21    1    1    2  502  501 -0.88045443031E+02 -0.24896114735E+02 -0.11750371908E+02  0.92249053152E+02  0.00000000000E+00 0.  1.
<scales pt_clust_5="13000.00000" pt_clust_6="13000.00000" pt_clust_7="13000.00000" pt_clust_8="13000.00000" pt_clust_9="91.49763"></scales>
<clustering>
<clus scale="   90.566">  7  8 -1 -1</clus>
<clus scale="   91.498">  1  9  2 -1</clus>
<clus scale="   91.953">  2  7  1 -1</clus>
<clus scale="   92.664">  5  6 -1 -1</clus>
<clus scale="   91.953">  2  5  1 -1</clus>
</clustering>
</event>
<event>
 9    1  0.2423659E-006  0.1590836E+03  0.7546771E-02  0.1197847E+00
         -2   -1    0    0    0  501 -0.00000000000E+00  0.00000000000E+00  0.17117906245E+03  0.17117906245E+03  0.00000000000E+00 0.  1.
          2   -1    0    0  502    0  0.00000000000E+00 -0.00000000000E+00 -0.20578121651E+03  0.20578121651E+03  0.00000000000E+00 0. -1.
         23    2    1    2    0    0 -0.10236225242E+03 -0.20638064093E+01  0.20943134654E+01  0.13723702104E+03  0.91363689597E+02 0.  0.
         23    2    1    2    0    0  0.77791982357E+02  0.69062131517E+02 -0.11185693661E+02  0.16393887086E+03  0.12621276920E+03 0.  0.
        -11    1    4    4    0    0  0.43460303989E+02  0.47984206802E+01  0.51688261198E+02  0.67701545104E+02  0.00000000000E+00 0.  1.
         11    1    4    4    0    0  0.34331678369E+02  0.64263710836E+02 -0.62873954859E+02  0.96237325761E+02  0.00000000000E+00 0. -1.
        -13    1    3    3    0    0 -0.17859943931E+02  0.38131847646E+02 -0.88398717305E+01  0.43025094239E+02  0.00000000000E+00 0.  1.
         13    1    3    3    0    0 -0.84502308492E+02 -0.40195654055E+02  0.10934185196E+02  0.94211926799E+02  0.00000000000E+00 0. -1.
         21    1    1    2  502  501  0.24570270065E+02 -0.66998325107E+02 -0.25510773860E+02  0.75784387054E+02  0.00000000000E+00 0.  1.
<scales pt_clust_5="13000.00000" pt_clust_6="13000.00000" pt_clust_7="13000.00000" pt_clust_8="13000.00000" pt_clust_9="71.36157"></scales>
<clustering>
<clus scale="   71.362">  2  9  1 -1</clus>
<clus scale="   91.364">  7  8 -1 -1</clus>
<clus scale="  126.213">  5  6 -1 -1</clus>
<clus scale="  133.136">  1  7  2 -1</clus>
<clus scale="   71.362">  2  5  1 -1</clus>
</clustering>
</event>
<event>
 9    1  0.2423659E-006  0.9884168E+02  0.7546771E-02  0.1282998E+00
          1   -1    0    0  502    0  0.00000000000E+00  0.00000000000E+00  0.77939828061E+03  0.77939828061E+03  0.00000000000E+00 0. -1.
         -1   -1    0    0    0  501 -0.00000000000E+00 -0.00000000000E+00 -0.36101643199E+02  0.36101643199E+02  0.00000000000E+00 0.  1.
         23    2    1    2    0    0  0.18538902366E+02  0.22683279580E+02  0.15250297403E+03  0.18023413916E+03  0.91482051563E+02 0.  0.
         23    2    1    2    0    0  0.25243008724E+01  0.65169920709E+02  0.47705442790E+03  0.49001270544E+03  0.90983699930E+02 0.  0.
        -11    1    3    3    0    0 -0.37396774093E+01 -0.26184677522E+02  0.10581596889E+03  0.10907172775E+03  0.00000000000E+00 0. -1.
         11    1    3    3    0    0  0.22278579775E+02  0.48867957102E+02  0.46687005145E+02  0.71162411409E+02  0.00000000000E+00 0.  1.
        -13    1    4    4    0    0  0.39735226923E+02  0.35645585650E+01  0.16145712543E+03  0.16631295105E+03  0.00000000000E+00 0.  1.
         13    1    4    4    0    0 -0.37210926051E+02  0.61605362144E+02  0.31559730247E+03  0.32369975438E+03  0.00000000000E+00 0. -1.
         21    1    1    2  502  501 -0.21063203238E+02 -0.87853200289E+02  0.11373923548E+03  0.14525307921E+03  0.00000000000E+00 0. -1.
<scales pt_clust_5="13000.00000" pt_clust_6="13000.00000" pt_clust_7="13000.00000" pt_clust_8="13000.00000" pt_clust_9="90.34292"></scales>
<clustering>
<clus scale="   90.343">  2  9  1 -1</clus>
<clus scale="   90.984">  7  8 -1 -1</clus>
<clus scale="   91.482">  5  6 -1 -1</clus>
<clus scale="   98.381">  1  7  2 -1</clus>
<clus scale="   98.381">  1  5  2 -1</clus>
</clustering>
</event>
<event>
 9    1  0.2423659E-006  0.1130235E+03  0.7546771E-02  0.1255302E+00
          3   -1    0    0  502    0  0.00000000000E+00  0.00000000000E+00  0.57578276584E+03  0.57578276584E+03  0.00000000000E+00 0. -1.
         -3   -1    0    0    0  501 -0.00000000000E+00 -0.00000000000E+00 -0.32787959530E+02  0.32787959530E+02  0.00000000000E+00 0.  1.
         23    2    1    2    0    0 -0.84365739552E+02  0.20910784067E+02  0.21543260025E+03  0.24936784153E+03  0.90654708853E+02 0.  0.
         23    2    1    2    0    0  0.55562376287E+02 -0.22638261468E+01  0.28589482213E+03  0.30522591043E+03  0.91294602855E+02 0.  0.
        -11    1    3    3    0    0  0.80258545258E+01 -0.20647994840E+02  0.58730720961E+02  0.62769830463E+02  0.00000000000E+00 0. -1.
         11    1    3    3    0    0 -0.92391594077E+02  0.41558778907E+02  0.15670187929E+03  0.18659801106E+03  0.00000000000E+00 0.  1.
        -13    1    4    4    0    0 -0.22870802466E+02 -0.41489849312E+01  0.11295760908E+03  0.11532436486E+03  0.00000000000E+00 0. -1.
         13    1    4    4    0    0  0.78433178752E+02  0.18851587844E+01  0.17293721305E+03  0.18990154557E+03  0.00000000000E+00 0.  1.
         21    1    1    2  502  501  0.28803363265E+02 -0.18646957920E+02  0.41667383932E+02  0.53976973413E+02  0.00000000000E+00 0. -1.
<scales pt_clust_5="13000.00000" pt_clust_6="13000.00000" pt_clust_7="13000.00000" pt_clust_8="13000.00000" pt_clust_9="34.31243"></scales>
<clustering>
<clus scale="   34.312">  2  9  1 -1</clus>
<clus scale="   90.655">  5  6 -1 -1</clus>
<clus scale="   91.295">  7  8 -1 -1</clus>
<clus scale="  112.507">  2  5  1 -1</clus>
<clus scale="  113.024">  1  5  2 -1</clus>
</clustering>
</event>
<event>
 9    1  0.2423659E-006  0.9974194E+02  0.7546771E-02  0.1281619E+00
         -1   -1    0    0    0  501 -0.00000000000E+00  0.00000000000E+00  0.21352113127E+03  0.21352113127E+03  0.00000000000E+00 0.  1.
          1   -1    0    0  502    0  0.00000000000E+00 -0.00000000000E+00 -0.19693780636E+03  0.19693780636E+03  0.00000000000E+00 0. -1.
         23    2    1    2    0    0  0.12442125760E+02 -0.17078377145E+02  0.34877272844E+02  0.98538554919E+02  0.89704766792E+02 0.  0.
         23    2    1    2    0    0  0.17194947939E+02  0.43713573703E+02 -0.14580210091E+03  0.17833101596E+03  0.91308027360E+02 0.  0.
        -11    1    4    4    0    0  0.27789842242E+02 -0.22339543262E+02 -0.46486228264E+02  0.58585833980E+02  0.00000000000E+00 0.  1.
         11    1    4    4    0    0 -0.10594894303E+02  0.66053116965E+02 -0.99315872650E+02  0.11974518198E+03  0.00000000000E+00 0. -1.
        -13    1    3    3    0    0 -0.31131460960E+02  0.33133284538E+01  0.39278130461E+02  0.50228652574E+02  0.00000000000E+00 0.  1.
         13    1    3    3    0    0  0.43573586719E+02 -0.20391705599E+02 -0.44008576166E+01  0.48309902345E+02  0.00000000000E+00 0. -1.
         21    1    1    2  502  501 -0.29637073698E+02 -0.26635196558E+02  0.12750815298E+03  0.13358936675E+03  0.00000000000E+00 0.  1.
<scales pt_clust_5="13000.00000" pt_clust_6="13000.00000" pt_clust_7="13000.00000" pt_clust_8="13000.00000" pt_clust_9="39.84708"></scales>
<clustering>
<clus scale="   39.847">  1  9  2 -1</clus>
<clus scale="   89.705">  7  8 -1 -1</clus>
<clus scale="   91.308">  5  6 -1 -1</clus>
<clus scale="   98.276">  1  7  2 -1</clus>
<clus scale="   99.742">  2  5  1 -1</clus>
</clustering>
</event>
<event>
 9    1  0.2423659E-006  0.1561355E+03  0.7546771E-02  0.1203696E+00
          1   -1    0    0  502    0  0.00000000000E+00  0.00000000000E+00  0.51534926489E+03  0.51534926489E+03  0.00000000000E+00 0. -1.
         -1   -1    0    0    0  501 -0.00000000000E+00 -0.00000000000E+00 -0.19491822206E+03  0.19491822206E+03  0.00000000000E+00 0.  1.
         23    2    1    2    0    0 -0.35553327496E+02  0.11693374686E+03 -0.10741806521E+03  0.18578552331E+03  0.89666491429E+02 0.  0.
         23    2    1    2    0    0  0.54109640064E+02  0.61388310678E+02  0.17880577695E+03  0.21761770423E+03  0.93217924720E+02 0.  0.
        -11    1    4    4    0    0 -0.12860440832E+02  0.54641943394E+02  0.70775927605E+02  0.90334737752E+02  0.00000000000E+00 0.  1.
         11    1    4    4    0    0  0.66970080896E+02  0.67463672838E+01  0.10802984934E+03  0.12728296648E+03  0.00000000000E+00 0. -1.
        -13    1    3    3    0    0 -0.32807755452E+02  0.13333202915E+02  0.14931057894E+01  0.35445062881E+02  0.00000000000E+00 0. -1.
         13    1    3    3    0    0 -0.27455720440E+01  0.10360054395E+03 -0.10891117100E+03  0.15034046043E+03  0.00000000000E+00 0.  1.
         21    1    1    2  502  501 -0.18556312568E+02 -0.17832205754E+03  0.24904333109E+03  0.30686425941E+03  0.00000000000E+00 0. -1.
<scales pt_clust_5="13000.00000" pt_clust_6="13000.00000" pt_clust_7="13000.00000" pt_clust_8="13000.00000" pt_clust_9="127.82105"></scales>
<clustering>
<clus scale="   89.666">  7  8 -1 -1</clus>
<clus scale="   93.218">  5  6 -1 -1</clus>
<clus scale="  124.040">  1  5  2 -1</clus>
<clus scale="  127.821">  1  9  2 -1</clus>
<clus scale="  124.040">  1  5  2 -1</clus>
</clustering>
</event>
<event>
 9    1  0.2423659E-006  0.1312728E+03  0.7546771E-02  0.1242939E+00
          1   -1    0    0  502    0  0.00000000000E+00  0.00000000000E+00  0.41415148288E+03  0.41415148288E+03  0.00000000000E+00 0. -1.
         -1   -1    0    0    0  501 -0.00000000000E+00 -0.00000000000E+00 -0.15038214549E+03  0.15038214549E+03  0.00000000000E+00 0.  1.
         23    2    1    2    0    0 -0.18485240469E+02  0.10736039973E+03  0.25593241876E+03  0.29290357151E+03  0.91777664414E+02 0.  0.
         23    2    1    2    0    0  0.27604548544E+01 -0.15878315095E+02  0.10342089511E+03  0.13839140913E+03  0.90534852813E+02 0.  0.
        -11    1    4    4    0    0 -0.40007422295E+02 -0.17285114330E+02  0.28380874028E+02  0.52008105394E+02  0.00000000000E+00 0. -1.
         11    1    4    4    0    0  0.42767877150E+02  0.14067992352E+01  0.75040021083E+02  0.86383303735E+02  0.00000000000E+00 0.  1.
        -11    1    3    3    0    0 -0.48725827128E+02  0.25360532057E+02  0.93021283257E+02  0.10802926434E+03  0.00000000000E+00 0. -1.
         11    1    3    3    0    0  0.30240586659E+02  0.81999867671E+02  0.16291113550E+03  0.18487430717E+03  0.00000000000E+00 0.  1.
         21    1    1    2  502  501  0.15724785615E+02 -0.91482084632E+02 -0.95583976472E+02  0.13323864773E+03  0.00000000000E+00 0.  1.
<scales pt_clust_5="13000.00000" pt_clust_6="13000.00000" pt_clust_7="13000.00000" pt_clust_8="13000.00000" pt_clust_9="93.85844"></scales>
<clustering>
<clus scale="   90.535">  5  6 -1 -1</clus>
<clus scale="   91.778">  7  8 -1 -1</clus>
<clus scale="   91.958">  1  5  2 -1</clus>
<clus scale="   93.858">  2  9  1 -1</clus>
<clus scale="   91.958">  1  5  2 -1</clus>
</clustering>
</event>
<event>
 9    1  0.2423659E-006  0.2297185E+03  0.7546771E-02  0.1150350E+00
          1   -1    0    0  502    0  0.00000000000E+00  0.00000000000E+00  0.99590848446E+03  0.99590848446E+03  0.00000000000E+00 0. -1.
         -1   -1    0    0    0  501 -0.00000000000E+00 -0.00000000000E+00 -0.13315000045E+03  0.13315000045E+03  0.00000000000E+00 0.  1.
         23    2    1    2    0    0 -0.91992076802E+02  0.87923442293E+01  0.10329120252E+03  0.16611032023E+03  0.91562647715E+02 0.  0.
         23    2    1    2    0    0 -0.78184629703E+02 -0.14875878025E+03  0.21833971736E+02  0.19310817202E+03  0.92585272887E+02 0.  0.
        -11    1    3    3    0    0 -0.62649743730E+01 -0.23938504875E+02  0.59486817213E+02  0.64428125394E+02  0.00000000000E+00 0. -1.
         11    1    3    3    0    0 -0.85727102429E+02  0.32730849105E+02  0.43804385303E+02  0.10168219483E+03  0.00000000000E+00 0.  1.
        -11    1    4    4    0    0 -0.49455939554E+02 -0.28460902563E+02 -0.23042577211E+02  0.61537576295E+02  0.00000000000E+00 0. -1.
         11    1    4    4    0    0 -0.28728690150E+02 -0.12029787769E+03  0.44876548946E+02  0.13157059572E+03  0.00000000000E+00 0.  1.
         21    1    1    2  502  501  0.17017670651E+03  0.13996643602E+03  0.73763330976E+03  0.76983999267E+03  0.00000000000E+00 0. -1.
<scales pt_clust_5="13000.00000" pt_clust_6="13000.00000" pt_clust_7="13000.00000" pt_clust_8="13000.00000" pt_clust_9="210.23450"></scales>
<clustering>
<clus scale="   91.563">  5  6 -1 -1</clus>
<clus scale="   92.585">  7  8 -1 -1</clus>
<clus scale="  130.091">  2  5  1 -1</clus>
<clus scale="  210.235">  1  9  2 -1</clus>
<clus scale="  210.235">  1  5  2 -1</clus>
</clustering>
</event>
<event>
 9    1  0.2423659E-006  0.1893130E+03  0.7546771E-02  0.1177766E+00
         -2   -1    0    0    0  501 -0.00000000000E+00  0.00000000000E+00  0.52381845620E+02  0.52381845620E+02  0.00000000000E+00 0.  1.
          2   -1    0    0  502    0  0.00000000000E+00 -0.00000000000E+00 -0.18056642758E+04  0.18056642758E+04  0.00000000000E+00 0. -1.
         23    2    1    2    0    0 -0.28937345192E+02 -0.78694034123E+02 -0.14271169376E+03  0.18861657246E+03  0.90440383235E+02 0.  0.
         23    2    1    2    0    0  0.18426485041E+03  0.28180704399E+02 -0.43275568552E+03  0.48034312464E+03  0.93297089158E+02 0.  0.
        -11    1    3    3    0    0 -0.49483796483E+02 -0.68055621657E+02 -0.14248801197E+03  0.16547823817E+03  0.00000000000E+00 0. -1.
         11    1    3    3    0    0  0.20546451291E+02 -0.10638412466E+02 -0.22368179215E+00  0.23138334296E+02  0.00000000000E+00 0.  1.
        -11    1    4    4    0    0  0.90668555236E+02  0.53499660239E+02 -0.16658766788E+03  0.19706458749E+03  0.00000000000E+00 0. -1.
         11    1    4    4    0    0  0.93596295171E+02 -0.25318955841E+02 -0.26616801764E+03  0.28327853715E+03  0.00000000000E+00 0.  1.
         21    1    1    2  502  501 -0.15532750522E+03  0.50513329724E+02 -0.11778150509E+04  0.11890864243E+04  0.00000000000E+00 0. -1.
<scales pt_clust_5="13000.00000" pt_clust_6="13000.00000" pt_clust_7="13000.00000" pt_clust_8="13000.00000" pt_clust_9="164.72725"></scales>
<clustering>
<clus scale="   90.440">  5  6 -1 -1</clus>
<clus scale="   93.297">  7  8 -1 -1</clus>
<clus scale="  123.327">  1  5  2 -1</clus>
<clus scale="  164.727">  2  9  1 -1</clus>
<clus scale="  164.727">  2  5  1 -1</clus>
</clustering>
</event>
<event>
 9    1  0.2423659E-006  0.1181070E+03  0.7546771E-02  0.1253987E+00
          4   -1    0    0  502    0  0.00000000000E+00  0.00000000000E+00  0.17488982432E+03  0.17488982432E+03  0.00000000000E+00 0. -1.
         -4   -1    0    0    0  501 -0.00000000000E+00 -0.00000000000E+00 -0.10647223440E+03  0.10647223440E+03  0.00000000000E+00 0.  1.
         23    2    1    2    0    0  0.24863501178E+02  0.22875619586E+02 -0.46159540011E+00  0.97501427899E+02  0.91459432043E+02 0.  0.
         23    2    1    2    0    0 -0.32002896979E+02 -0.48488014294E+02  0.16842704432E+02  0.12542467376E+03  0.10987446996E+03 0.  0.
        -13    1    3    3    0    0 -0.24717620778E+02 -0.17251972909E+02 -0.12426893689E+02  0.32603972656E+02  0.00000000000E+00 0.  1.
         13    1    3    3    0    0  0.49581121956E+02  0.40127592495E+02  0.11965298289E+02  0.64897455243E+02  0.00000000000E+00 0. -1.
        -13    1    4    4    0    0 -0.19396579384E+02 -0.64911292831E+02 -0.30089426009E+02  0.74128785140E+02  0.00000000000E+00 0.  1.
         13    1    4    4    0    0 -0.12606317595E+02  0.16423278537E+02  0.46932130441E+02  0.51295888616E+02  0.00000000000E+00 0. -1.
         21    1    1    2  502  501  0.71393958013E+01  0.25612394707E+02  0.52036480887E+02  0.58435957066E+02  0.00000000000E+00 0. -1.
<scales pt_clust_5="13000.00000" pt_clust_6="13000.00000" pt_clust_7="13000.00000" pt_clust_8="13000.00000" pt_clust_9="26.58883"></scales>
<clustering>
<clus scale="   26.589">  1  9  2 -1</clus>
<clus scale="   91.459">  5  6 -1 -1</clus>
<clus scale="  101.201">  2  5  1 -1</clus>
<clus scale="  109.874">  7  8 -1 -1</clus>
<clus scale="   26.589">  1  5  2 -1</clus>
</clustering>
</event>
<event>
 9    1  0.2423659E-006  0.1351990E+03  0.7546771E-02  0.1236693E+00
         -2   -1    0    0    0  501 -0.00000000000E+00  0.00000000000E+00  0.58910013311E+03  0.58910013311E+03  0.00000000000E+00 0.  1.
          2   -1    0    0  502    0  0.00000000000E+00 -0.00000000000E+00 -0.15126970651E+03  0.15126970651E+03  0.00000000000E+00 0. -1.
         23    2    1    2    0    0  0.65054688380E+02 -0.71411098867E+02  0.36655069987E+03  0.38978094843E+03  0.90764060413E+02 0.  0.
         23    2    1    2    0    0 -0.99402572849E+01 -0.18808183300E+02 -0.10691051970E+03  0.14339602618E+03  0.93166542423E+02 0.  0.
        -11    1    4    4    0    0  0.22295724587E+02 -0.44958569524E+02 -0.78229512132E+02  0.92942072695E+02  0.00000000000E+00 0. -1.
         11    1    4    4    0    0 -0.32235981872E+02  0.26150386224E+02 -0.28681007571E+02  0.50453953484E+02  0.00000000000E+00 0.  1.
        -11    1    3    3    0    0  0.28058047623E+02 -0.57079559263E+02  0.32920848223E+03  0.33529621963E+03  0.00000000000E+00 0.  1.
         11    1    3    3    0    0  0.36996640757E+02 -0.14331539604E+02  0.37342217637E+02  0.54484728804E+02  0.00000000000E+00 0. -1.
         21    1    1    2  502  501 -0.55114431095E+02  0.90219282167E+02  0.17819024643E+03  0.20719286501E+03  0.00000000000E+00 0. -1.
<scales pt_clust_5="13000.00000" pt_clust_6="13000.00000" pt_clust_7="13000.00000" pt_clust_8="13000.00000" pt_clust_9="100.20308"></scales>
<clustering>
<clus scale="   90.764">  7  8 -1 -1</clus>
<clus scale="   93.167">  5  6 -1 -1</clus>
<clus scale="   95.564">  2  5  1 -1</clus>
<clus scale="  100.203">  2  9  1 -1</clus>
<clus scale="   95.564">  2  5  1 -1</clus>
</clustering>
</event>
<event>
 9    1  0.2423659E-006  0.1360863E+03  0.7546771E-02  0.1218862E+00
          2   -1    0    0  502    0  0.00000000000E+00  0.00000000000E+00  0.24451440813E+03  0.24451440813E+03  0.00000000000E+00 0. -1.
         -2   -1    0    0    0  501 -0.00000000000E+00 -0.00000000000E+00 -0.12844291494E+03  0.12844291494E+03  0.00000000000E+00 0.  1.
         23    2    1    2    0    0 -0.95378289647E+02  0.21846018980E+02  0.40219978703E+02  0.13907542356E+03  0.90277683122E+02 0.  0.
         23    2    1    2    0    0  0.10503151526E+03  0.12075510738E+02  0.11529410605E+03  0.18097090848E+03  0.90996162925E+02 0.  0.
        -11    1    4    4    0    0  0.38071189489E+02 -0.16153692735E+02 -0.37225368349E+01  0.41523662394E+02  0.00000000000E+00 0.  1.
         11    1    4    4    0    0  0.66960325774E+02  0.28229203473E+02  0.11901664289E+03  0.13944724608E+03  0.00000000000E+00 0. -1.
        -13    1    3    3    0    0 -0.21857953699E+02  0.47254643761E+02  0.31372992256E+02  0.60786808931E+02  0.00000000000E+00 0.  1.
         13    1    3    3    0    0 -0.73520335948E+02 -0.25408624781E+02  0.88469864472E+01  0.78288614628E+02  0.00000000000E+00 0. -1.
         21    1    1    2  502  501 -0.96532256165E+01 -0.33921529718E+02 -0.39442591565E+02  0.52910991037E+02  0.00000000000E+00 0.  1.
<scales pt_clust_5="13000.00000" pt_clust_6="13000.00000" pt_clust_7="13000.00000" pt_clust_8="13000.00000" pt_clust_9="35.26833"></scales>
<clustering>
<clus scale="   35.268">  2  9  1 -1</clus>
<clus scale="   90.278">  7  8 -1 -1</clus>
<clus scale="   90.996">  5  6 -1 -1</clus>
<clus scale="  135.607">  2  7  1 -1</clus>
<clus scale="  136.086">  1  5  2 -1</clus>
</clustering>
</event>
<event>
 9    1  0.2423659E-006  0.1005560E+03  0.7546771E-02  0.1279678E+00
         -1   -1    0    0    0  501 -0.00000000000E+00  0.00000000000E+00  0.42229201063E+02  0.42229201063E+02  0.00000000000E+00 0.  1.
          1   -1    0    0  502    0  0.00000000000E+00 -0.00000000000E+00 -0.68098436100E+03  0.68098436100E+03  0.00000000000E+00 0. -1.
         23    2    1    2    0    0  0.97272252887E+01  0.42207752893E+02 -0.45602187850E+02  0.11188204544E+03  0.92530639466E+02 0.  0.
         23    2    1    2    0    0 -0.37029803675E+02 -0.55285563011E+01 -0.46189710875E+03  0.47233908549E+03  0.91397490779E+02 0.  0.
        -11    1    3    3    0    0  0.43885382150E+02  0.48668050905E+02 -0.19381424930E+02  0.68338463384E+02  0.00000000000E+00 0.  1.
         11    1    3    3    0    0 -0.34158156861E+02 -0.64602980115E+01 -0.26220762920E+02  0.43543582060E+02  0.00000000000E+00 0. -1.
        -11    1    4    4    0    0 -0.67306402651E+02 -0.82040160953E+01 -0.34135997464E+03  0.34802886375E+03  0.00000000000E+00 0.  1.
         11    1    4    4    0    0  0.30276598977E+02  0.26754597943E+01 -0.12053713411E+03  0.12431022174E+03  0.00000000000E+00 0. -1.
         21    1    1    2  502  501  0.27302578386E+02 -0.36679196592E+02 -0.13125586334E+03  0.13899243113E+03  0.00000000000E+00 0. -1.
<scales pt_clust_5="13000.00000" pt_clust_6="13000.00000" pt_clust_7="13000.00000" pt_clust_8="13000.00000" pt_clust_9="45.72520"></scales>
<clustering>
<clus scale="   45.725">  2  9  1 -1</clus>
<clus scale="   91.397">  7  8 -1 -1</clus>
<clus scale="   92.531">  5  6 -1 -1</clus>
<clus scale="   99.514">  2  7  1 -1</clus>
<clus scale="   45.725">  2  5  1 -1</clus>
</clustering>
</event>
<event>
 9    1  0.2423659E-006  0.3654633E+03  0.7546771E-02  0.1077951E+00
          1   -1    0    0  502    0  0.00000000000E+00  0.00000000000E+00  0.87956975199E+03  0.87956975199E+03  0.00000000000E+00 0. -1.
         -1   -1    0    0    0  501 -0.00000000000E+00 -0.00000000000E+00 -0.54598595906E+03  0.54598595906E+03  0.00000000000E+00 0.  1.
         23    2    1    2    0    0  0.18008408429E+03 -0.10443283632E+02 -0.35655757731E+03  0.40971579819E+03  0.90522868704E+02 0.  0.
         23    2    1    2    0    0 -0.26986256972E+03  0.30555005338E+03  0.50849979819E+03  0.65787086015E+03  0.89640293514E+02 0.  0.
        -11    1    4    4    0    0 -0.21688971454E+03  0.27005724399E+03  0.46836537701E+03  0.58252741539E+03  0.00000000000E+00 0. -1.
         11    1    4    4    0    0 -0.52972855184E+02  0.35492809395E+02  0.40134421181E+02  0.75343444762E+02  0.00000000000E+00 0.  1.
        -13    1    3    3    0    0  0.11904820416E+03  0.31175623332E+02 -0.17721198164E+03  0.21575096951E+03  0.00000000000E+00 0. -1.
         13    1    3    3    0    0  0.61035880123E+02 -0.41618906964E+02 -0.17934559567E+03  0.19396482868E+03  0.00000000000E+00 0.  1.
         21    1    1    2  502  501  0.89778485434E+02 -0.29510676975E+03  0.18164157206E+03  0.35796905271E+03  0.00000000000E+00 0.  1.
<scales pt_clust_5="13000.00000" pt_clust_6="13000.00000" pt_clust_7="13000.00000" pt_clust_8="13000.00000" pt_clust_9="354.29938"></scales>
<clustering>
<clus scale="   89.640">  5  6 -1 -1</clus>
<clus scale="   90.523">  7  8 -1 -1</clus>
<clus scale="  201.826">  2  7  1 -1</clus>
<clus scale="  354.299">  2  9  1 -1</clus>
<clus scale="  365.463">  1  5  2 -1</clus>
</clustering>
</event>
<event>
 9    1  0.2423659E-006  0.1450853E+03  0.7546771E-02  0.1207471E+00
         -2   -1    0    0    0  501 -0.00000000000E+00  0.00000000000E+00  0.35672744052E+03  0.35672744052E+03  0.00000000000E+00 0.  1.
          2   -1    0    0  502    0  0.00000000000E+00 -0.00000000000E+00 -0.14826952647E+03  0.14826952647E+03  0.00000000000E+00 0. -1.
         23    2    1    2    0    0 -0.16679187777E+02  0.12350342680E+03  0.25814832899E+03  0.30077210698E+03  0.91060468058E+02 0.  0.
         23    2    1    2    0    0 -0.16543449437E+02 -0.60066114833E+02 -0.72330190359E+02  0.12912096128E+03  0.86942178113E+02 0.  0.
        -11    1    3    3    0    0 -0.49520307049E+02  0.37979583938E+02  0.95084469419E+02  0.11373550866E+03  0.00000000000E+00 0. -1.
         11    1    3    3    0    0  0.32841119272E+02  0.85523842865E+02  0.16306385957E+03  0.18703659832E+03  0.00000000000E+00 0.  1.
        -13    1    4    4    0    0  0.32245463739E+02 -0.10608058679E+02 -0.90087406651E+01  0.35120624269E+02  0.00000000000E+00 0.  1.
         13    1    4    4    0    0 -0.48788913176E+02 -0.49458056155E+02 -0.63321449694E+02  0.94000337014E+02  0.00000000000E+00 0. -1.
         21    1    1    2  502  501  0.33222637214E+02 -0.63437311970E+02  0.22639775420E+02  0.75103898730E+02  0.00000000000E+00 0. -1.
<scales pt_clust_5="13000.00000" pt_clust_6="13000.00000" pt_clust_7="13000.00000" pt_clust_8="13000.00000" pt_clust_9="71.61031"></scales>
<clustering>
<clus scale="   71.610">  2  9  1 -1</clus>
<clus scale="   86.942">  7  8 -1 -1</clus>
<clus scale="   91.060">  5  6 -1 -1</clus>
<clus scale="  142.537">  2  7  1 -1</clus>
<clus scale="   71.610">  2  5  1 -1</clus>
</clustering>
</event>
<event>
 9    1  0.2423659E-006  0.9399794E+02  0.7546771E-02  0.1297160E+00
          1   -1    0    0  502    0  0.00000000000E+00  0.00000000000E+00  0.74088414430E+02  0.74088414430E+02  0.00000000000E+00 0. -1.
         -1   -1    0    0    0  501 -0.00000000000E+00 -0.00000000000E+00 -0.27070813139E+03  0.27070813139E+03  0.00000000000E+00 0.  1.
         23    2    1    2    0    0 -0.48408540945E+02 -0.20933992251E+02 -0.14809566705E+03  0.17956054678E+03  0.86764304257E+02 0.  0.
         23    2    1    2    0    0  0.13692441993E+01 -0.11676281985E+02 -0.61712963538E+01  0.94032901087E+02  0.93090768595E+02 0.  0.
        -11    1    3    3    0    0 -0.24666512672E+02 -0.43809635579E+02 -0.13504836915E+03  0.14410337619E+03  0.00000000000E+00 0.  1.
         11    1    3    3    0    0 -0.23742028274E+02  0.22875643328E+02 -0.13047297895E+02  0.35457170594E+02  0.00000000000E+00 0. -1.
        -13    1    4    4    0    0  0.21653132173E+02 -0.46561955735E+02 -0.13321510826E+02  0.53050320503E+02  0.00000000000E+00 0.  1.
         13    1    4    4    0    0 -0.20283887974E+02  0.34885673750E+02  0.71502144726E+01  0.40982580584E+02  0.00000000000E+00 0. -1.
         21    1    1    2  502  501  0.47039296746E+02  0.32610274236E+02 -0.42352753557E+02  0.71203097952E+02  0.00000000000E+00 0.  1.
<scales pt_clust_5="13000.00000" pt_clust_6="13000.00000" pt_clust_7="13000.00000" pt_clust_8="13000.00000" pt_clust_9="57.23745"></scales>
<clustering>
<clus scale="   57.237">  2  9  1 -1</clus>
<clus scale="   86.764">  5  6 -1 -1</clus>
<clus scale="   87.737">  2  5  1 -1</clus>
<clus scale="   93.091">  7  8 -1 -1</clus>
<clus scale="   93.998">  1  5  2 -1</clus>
</clustering>
</event>
<event>
 9    1  0.2423659E-006  0.1023644E+03  0.7546771E-02  0.1275432E+00
         -2   -1    0    0    0  501 -0.00000000000E+00  0.00000000000E+00  0.28402759041E+03  0.28402759041E+03  0.00000000000E+00 0.  1.
          2   -1    0    0  502    0  0.00000000000E+00 -0.00000000000E+00 -0.10193906243E+03  0.10193906243E+03  0.00000000000E+00 0. -1.
         23    2    1    2    0    0  0.22536024368E+02  0.31987796572E+02  0.19032924598E+03  0.21492962244E+03  0.91860923153E+02 0.  0.
         23    2    1    2    0    0 -0.10516809876E+02 -0.75455977044E+02  0.14946815306E+02  0.12032602635E+03  0.91927893305E+02 0.  0.
        -11    1    3    3    0    0  0.48423327514E+02  0.46637673697E+02  0.15358244115E+03  0.16765278848E+03  0.00000000000E+00 0.  1.
         11    1    3    3    0    0 -0.25887303146E+02 -0.14649877125E+02  0.36746804829E+02  0.47276833958E+02  0.00000000000E+00 0. -1.
        -13    1    4    4    0    0 -0.42781831225E+02 -0.74249658256E+02  0.25214590253E+01  0.85730126500E+02  0.00000000000E+00 0. -1.
         13    1    4    4    0    0  0.32265021349E+02 -0.12063187878E+01  0.12425356280E+02  0.34595899849E+02  0.00000000000E+00 0.  1.
         21    1    1    2  502  501 -0.12019214492E+02  0.43468180472E+02 -0.23187533303E+02  0.50711004045E+02  0.00000000000E+00 0.  1.
<scales pt_clust_5="13000.00000" pt_clust_6="13000.00000" pt_clust_7="13000.00000" pt_clust_8="13000.00000" pt_clust_9="45.09927"></scales>
<clustering>
<clus scale="   45.099">  2  9  1 -1</clus>
<clus scale="   91.861">  5  6 -1 -1</clus>
<clus scale="   91.928">  7  8 -1 -1</clus>
<clus scale="  102.304">  1  5  2 -1</clus>
<clus scale="   45.099">  2  5  1 -1</clus>
</clustering>
</event>
<event>
 9    1  0.2423659E-006  0.1024349E+03  0.7546771E-02  0.1282933E+00
         -1   -1    0    0    0  501 -0.00000000000E+00  0.00000000000E+00  0.53772825599E+02  0.53772825599E+02  0.00000000000E+00 0.  1.
          1   -1    0    0  502    0  0.00000000000E+00 -0.00000000000E+00 -0.58311190080E+03  0.58311190080E+03  0.00000000000E+00 0. -1.
         23    2    1    2    0    0 -0.25504322540E+02 -0.29674277866E+02 -0.40825958503E+02  0.10732139588E+03  0.91214526755E+02 0.  0.
         23    2    1    2    0    0  0.10012474906E+03  0.78616520465E+01 -0.32891090659E+03  0.35203343396E+03  0.75222225472E+02 0.  0.
        -11    1    3    3    0    0  0.18986143842E+02 -0.46707589914E+02 -0.29273553176E+02  0.58301059417E+02  0.00000000000E+00 0. -1.
         11    1    3    3    0    0 -0.44490466382E+02  0.17033312048E+02 -0.11552405326E+02  0.49020336464E+02  0.00000000000E+00 0.  1.
        -13    1    4    4    0    0  0.60953247170E+02 -0.28346039812E+02 -0.13345045743E+03  0.14942496747E+03  0.00000000000E+00 0. -1.
         13    1    4    4    0    0  0.39171501895E+02  0.36207691859E+02 -0.19546044916E+03  0.20260846650E+03  0.00000000000E+00 0.  1.
         21    1    1    2  502  501 -0.74620426524E+02  0.21812625819E+02 -0.15960221011E+03  0.17752989656E+03  0.00000000000E+00 0.  1.
<scales pt_clust_5="13000.00000" pt_clust_6="13000.00000" pt_clust_7="13000.00000" pt_clust_8="13000.00000" pt_clust_9="77.74316"></scales>
<clustering>
<clus scale="   75.222">  7  8 -1 -1</clus>
<clus scale="   77.743">  2  9  1 -1</clus>
<clus scale="   88.494">  2  7  1 -1</clus>
<clus scale="   91.215">  5  6 -1 -1</clus>
<clus scale="   77.743">  2  5  1 -1</clus>
</clustering>
</event>
<event>
 9    1  0.2423659E-006  0.1588079E+03  0.7546771E-02  0.1190098E+00
         -1   -1    0    0    0  501 -0.00000000000E+00  0.00000000000E+00  0.10445104451E+04  0.10445104451E+04  0.00000000000E+00 0.  1.
          1   -1    0    0  502    0  0.00000000000E+00 -0.00000000000E+00 -0.38090447771E+02  0.38090447771E+02  0.00000000000E+00 0. -1.
         23    2    1    2    0    0  0.75857483531E+02 -0.14223837703E+03  0.58803261987E+03  0.61652170825E+03  0.91271797467E+02 0.  0.
         23    2    1    2    0    0 -0.23351593590E+02  0.97186216978E+02  0.29826276915E+03  0.32745563999E+03  0.90972847613E+02 0.  0.
        -13    1    4    4    0    0  0.23298361814E+02  0.20722968815E+02  0.15789608769E+03  0.16094542431E+03  0.00000000000E+00 0. -1.
         13    1    4    4    0    0 -0.46649955404E+02  0.76463248163E+02  0.14036668147E+03  0.16651021568E+03  0.00000000000E+00 0.  1.
        -13    1    3    3    0    0 -0.46439234098E+01 -0.22373388217E+02  0.19812681241E+02  0.30243625162E+02  0.00000000000E+00 0.  1.
         13    1    3    3    0    0  0.80501406941E+02 -0.11986498881E+03  0.56821993862E+03  0.58627808309E+03  0.00000000000E+00 0. -1.
         21    1    1    2  502  501 -0.52505889941E+02  0.45052160051E+02  0.12012460829E+03  0.13862354461E+03  0.00000000000E+00 0. -1.
<scales pt_clust_5="13000.00000" pt_clust_6="13000.00000" pt_clust_7="13000.00000" pt_clust_8="13000.00000" pt_clust_9="69.18501"></scales>
<clustering>
<clus scale="   69.185">  2  9  1 -1</clus>
<clus scale="   90.973">  5  6 -1 -1</clus>
<clus scale="   91.272">  7  8 -1 -1</clus>
<clus scale="  158.636">  2  5  1 -1</clus>
<clus scale="   69.185">  2  5  1 -1</clus>
</clustering>
</event>
<event>
 9    1  0.2423659E-006  0.2510126E+03  0.7546771E-02  0.1146152E+00
         -1   -1    0    0    0  501 -0.00000000000E+00  0.00000000000E+00  0.99249792225E+02  0.99249792225E+02  0.00000000000E+00 0.  1.
          1   -1    0    0  502    0  0.00000000000E+00 -0.00000000000E+00 -0.11389388141E+04  0.11389388141E+04  0.00000000000E+00 0. -1.
         23    2    1    2    0    0  0.25769005229E+02 -0.52888989443E+02 -0.12006736736E+03  0.16295558059E+03  0.93150747211E+02 0.  0.
         23    2    1    2    0    0  0.12757350461E+03 -0.14188412826E+03 -0.13148853134E+03  0.24903431323E+03  0.91229109173E+02 0.  0.
        -11    1    3    3    0    0  0.48698917959E+02 -0.28859153092E+01 -0.29557629529E+02  0.57040043661E+02  0.00000000000E+00 0. -1.
         11    1    3    3    0    0 -0.22929912730E+02 -0.50003074134E+02 -0.90509737829E+02  0.10591553693E+03  0.00000000000E+00 0.  1.
        -13    1    4    4    0    0  0.12708204987E+03 -0.10498831990E+03 -0.73921237342E+02  0.18065642542E+03  0.00000000000E+00 0.  1.
         13    1    4    4    0    0  0.49145473162E+00 -0.36895808362E+02 -0.57567294002E+02  0.68377887808E+02  0.00000000000E+00 0. -1.
         21    1    1    2  502  501 -0.15334250983E+03  0.19477311771E+03 -0.78813312313E+03  0.82619871246E+03  0.00000000000E+00 0. -1.
<scales pt_clust_5="13000.00000" pt_clust_6="13000.00000" pt_clust_7="13000.00000" pt_clust_8="13000.00000" pt_clust_9="233.84731"></scales>
<clustering>
<clus scale="   91.229">  7  8 -1 -1</clus>
<clus scale="   93.151">  5  6 -1 -1</clus>
<clus scale="  110.174">  1  5  2 -1</clus>
<clus scale="  233.847">  2  9  1 -1</clus>
<clus scale="  233.847">  2  5  1 -1</clus>
</clustering>
</event>
<event>
 9    1  0.2423659E-006  0.1711123E+03  0.7546771E-02  0.1187888E+00
          1   -1    0    0  502    0  0.00000000000E+00  0.00000000000E+00  0.27370895361E+03  0.27370895361E+03  0.00000000000E+00 0. -1.
         -1   -1    0    0    0  501 -0.00000000000E+00 -0.00000000000E+00 -0.24761425316E+03  0.24761425316E+03  0.00000000000E+00 0.  1.
         23    2    1    2    0    0  0.87854853936E+02  0.70289644834E+02  0.91811506988E-02  0.14478166937E+03  0.91118725691E+02 0.  0.
         23    2    1    2    0    0 -0.25076574015E+02  0.95119381669E+02  0.11732038468E+03  0.17748109647E+03  0.89771574629E+02 0.  0.
        -11    1    3    3    0    0 -0.82324540733E+01  0.36347006358E+02 -0.17850774766E+02  0.41322249830E+02  0.00000000000E+00 0.  1.
         11    1    3    3    0    0  0.96087308010E+02  0.33942638476E+02  0.17859955917E+02  0.10345941955E+03  0.00000000000E+00 0. -1.
        -13    1    4    4    0    0  0.22382585526E+02  0.44342759240E+02  0.90008492654E+02  0.10280461654E+03  0.00000000000E+00 0.  1.
         13    1    4    4    0    0 -0.47459159541E+02  0.50776622428E+02  0.27311892023E+02  0.74676479935E+02  0.00000000000E+00 0. -1.
         21    1    1    2  502  501 -0.62778279921E+02 -0.16540902650E+03 -0.91234865374E+02  0.19906044092E+03  0.00000000000E+00 0.  1.
<scales pt_clust_5="13000.00000" pt_clust_6="13000.00000" pt_clust_7="13000.00000" pt_clust_8="13000.00000" pt_clust_9="144.83370"></scales>
<clustering>
<clus scale="   89.772">  7  8 -1 -1</clus>
<clus scale="   91.119">  5  6 -1 -1</clus>
<clus scale="  133.175">  1  7  2 -1</clus>
<clus scale="  144.834">  2  9  1 -1</clus>
<clus scale="  133.175">  1  5  2 -1</clus>
</clustering>
</event>
<event>
 9    1  0.2423659E-006  0.3431491E+03  0.7546771E-02  0.1065463E+00
         -2   -1    0    0    0  501 -0.00000000000E+00  0.00000000000E+00  0.12930912047E+03  0.12930912047E+03  0.00000000000E+00 0.  1.
          2   -1    0    0  502    0  0.00000000000E+00 -0.00000000000E+00 -0.17191695231E+04  0.17191695231E+04  0.00000000000E+00 0. -1.
         23    2    1    2    0    0 -0.56989159050E+02  0.33239646826E+03 -0.27411159758E+03  0.44394478147E+03  0.90634566836E+02 0.  0.
         23    2    1    2    0    0  0.10812322280E+03 -0.31205535387E+03 -0.13040552805E+04  0.13482738237E+04  0.90625348501E+02 0.  0.
        -11    1    3    3    0    0 -0.29068422088E+02  0.15397129997E+03 -0.70616109359E+02  0.17186846505E+03  0.00000000000E+00 0. -1.
         11    1    3    3    0    0 -0.27920736962E+02  0.17842516829E+03 -0.20349548822E+03  0.27207631642E+03  0.00000000000E+00 0.  1.
        -13    1    4    4    0    0  0.30880664219E+01 -0.63300106531E+02 -0.14611826695E+03  0.15927017165E+03  0.00000000000E+00 0.  1.
         13    1    4    4    0    0  0.10503515638E+03 -0.24875524734E+03 -0.11579370136E+04  0.11890036520E+04  0.00000000000E+00 0. -1.
         21    1    1    2  502  501 -0.51134063752E+02 -0.20341114386E+02 -0.11693524571E+02  0.56260038457E+02  0.00000000000E+00 0. -1.
<scales pt_clust_5="13000.00000" pt_clust_6="13000.00000" pt_clust_7="13000.00000" pt_clust_8="13000.00000" pt_clust_9="55.03139"></scales>
<clustering>
<clus scale="   55.031">  1  9  2 -1</clus>
<clus scale="   90.625">  7  8 -1 -1</clus>
<clus scale="   90.635">  5  6 -1 -1</clus>
<clus scale="  343.147">  2  7  1 -1</clus>
<clus scale="  343.147">  2  5  1 -1</clus>
</clustering>
</event>
<event>
 9    1  0.2423659E-006  0.9432321E+02  0.7546771E-02  0.1293390E+00
          3   -1    0    0  502    0  0.00000000000E+00  0.00000000000E+00  0.84879810522E+02  0.84879810522E+02  0.00000000000E+00 0. -1.
         -3   -1    0    0    0  501 -0.00000000000E+00 -0.00000000000E+00 -0.20792544539E+03  0.20792544539E+03  0.00000000000E+00 0.  1.
         23    2    1    2    0    0  0.13509163789E+02 -0.37537915777E+02 -0.41010862302E+02  0.10798728142E+03  0.91584766720E+02 0.  0.
         23    2    1    2    0    0 -0.72310216024E+00  0.28212621677E+01  0.21449811538E+01  0.92867116168E+02  0.92796648238E+02 0.  0.
        -11    1    4    4    0    0  0.45164722927E+02 -0.72512743036E+01 -0.12910096977E+01  0.45761336105E+02  0.00000000000E+00 0.  1.
         11    1    4    4    0    0 -0.45887825087E+02  0.10072536471E+02  0.34359908515E+01  0.47105780063E+02  0.00000000000E+00 0. -1.
        -13    1    3    3    0    0 -0.13570019839E+02 -0.56956810040E+02 -0.47541079051E+01  0.58743724689E+02  0.00000000000E+00 0. -1.
         13    1    3    3    0    0  0.27079183628E+02  0.19418894263E+02 -0.36256754397E+02  0.49243556734E+02  0.00000000000E+00 0.  1.
         21    1    1    2  502  501 -0.12786061629E+02  0.34716653609E+02 -0.84179753724E+02  0.91950858326E+02  0.00000000000E+00 0.  1.
<scales pt_clust_5="13000.00000" pt_clust_6="13000.00000" pt_clust_7="13000.00000" pt_clust_8="13000.00000" pt_clust_9="36.99634"></scales>
<clustering>
<clus scale="   36.996">  2  9  1 -1</clus>
<clus scale="   91.585">  7  8 -1 -1</clus>
<clus scale="   92.797">  5  6 -1 -1</clus>
<clus scale="   93.131">  2  7  1 -1</clus>
<clus scale="   94.323">  1  5  2 -1</clus>
</clustering>
</event>
<event>
 9    1  0.2423659E-006  0.4040143E+03  0.7546771E-02  0.1075972E+00
         -1   -1    0    0    0  501 -0.00000000000E+00  0.00000000000E+00  0.99554774798E+03  0.99554774798E+03  0.00000000000E+00 0.  1.
          1   -1    0    0  502    0  0.00000000000E+00 -0.00000000000E+00 -0.77999573923E+03  0.77999573923E+03  0.00000000000E+00 0. -1.
         23    2    1    2    0    0 -0.32479045322E+02 -0.39404389911E+03  0.83511223614E+03  0.92851438737E+03  0.91657175423E+02 0.  0.
         23    2    1    2    0    0  0.12818149616E+03  0.17883046188E+02 -0.65840605988E+02  0.17081806362E+03  0.89964027047E+02 0.  0.
        -13    1    3    3    0    0  0.31660791639E+02 -0.13993124848E+03  0.31309452983E+03  0.34439997770E+03  0.00000000000E+00 0. -1.
         13    1    3    3    0    0 -0.64139836960E+02 -0.25411265063E+03  0.52201770630E+03  0.58411440968E+03  0.00000000000E+00 0.  1.
        -13    1    4    4    0    0 -0.89214581189E+00  0.27269063218E+02 -0.18736731425E+02  0.33097776926E+02  0.00000000000E+00 0. -1.
         13    1    4    4    0    0  0.12907364198E+03 -0.93860170299E+01 -0.47103874562E+02  0.13772028669E+03  0.00000000000E+00 0.  1.
         21    1    1    2  502  501 -0.95702450842E+02  0.37616085292E+03 -0.55371962141E+03  0.67621103621E+03  0.00000000000E+00 0. -1.
<scales pt_clust_5="13000.00000" pt_clust_6="13000.00000" pt_clust_7="13000.00000" pt_clust_8="13000.00000" pt_clust_9="393.48000"></scales>
<clustering>
<clus scale="   89.964">  7  8 -1 -1</clus>
<clus scale="   91.657">  5  6 -1 -1</clus>
<clus scale="  157.619">  2  7  1 -1</clus>
<clus scale="  393.480">  2  9  1 -1</clus>
<clus scale="  157.619">  2  5  1 -1</clus>
</clustering>
</event>
<event>
 9    1  0.2423659E-006  0.1043339E+03  0.7546771E-02  0.1272412E+00
         -2   -1    0    0    0  501 -0.00000000000E+00  0.00000000000E+00  0.10108183813E+03  0.10108183813E+03  0.00000000000E+00 0.  1.
          2   -1    0    0  502    0  0.00000000000E+00 -0.00000000000E+00 -0.19172788784E+03  0.19172788784E+03  0.00000000000E+00 0. -1.
         23    2    1    2    0    0 -0.20324260017E+02  0.12155241336E+02  0.93028426151E+01  0.93620768917E+02  0.90097059080E+02 0.  0.
         23    2    1    2    0    0  0.61639690275E+02  0.43250570005E+01 -0.10691141509E+03  0.15416627684E+03  0.92298606178E+02 0.  0.
        -11    1    3    3    0    0 -0.53023511730E+02  0.52363104966E+01 -0.11150811874E+02  0.54435763513E+02  0.00000000000E+00 0. -1.
         11    1    3    3    0    0  0.32699251713E+02  0.69189308390E+01  0.20453654489E+02  0.39185005404E+02  0.00000000000E+00 0.  1.
        -13    1    4    4    0    0  0.49628457545E+02 -0.29595531511E+02 -0.21796592253E+02  0.61757353551E+02  0.00000000000E+00 0.  1.
         13    1    4    4    0    0  0.12011232730E+02  0.33920588511E+02 -0.85114822838E+02  0.92408923289E+02  0.00000000000E+00 0. -1.
         21    1    1    2  502  501 -0.41315430259E+02 -0.16480298336E+02  0.69625227676E+01  0.45022680218E+02  0.00000000000E+00 0. -1.
<scales pt_clust_5="13000.00000" pt_clust_6="13000.00000" pt_clust_7="13000.00000" pt_clust_8="13000.00000" pt_clust_9="44.48106"></scales>
<clustering>
<clus scale="   44.481">  1  9  2 -1</clus>
<clus scale="   90.097">  5  6 -1 -1</clus>
<clus scale="   92.299">  7  8 -1 -1</clus>
<clus scale="  102.391">  1  5  2 -1</clus>
<clus scale="  104.334">  2  5  1 -1</clus>
</clustering>
</event>
<event>
 9    1  0.2423659E-006  0.1134959E+03  0.7546771E-02  0.1256708E+00
          3   -1    0    0  502    0  0.00000000000E+00  0.00000000000E+00  0.21362863716E+03  0.21362863716E+03  0.00000000000E+00 0. -1.
         -3   -1    0    0    0  501 -0.00000000000E+00 -0.00000000000E+00 -0.13218343544E+03  0.13218343544E+03  0.00000000000E+00 0.  1.
         23    2    1    2    0    0 -0.66412308136E+02  0.11918549466E+01 -0.24535963534E+02  0.11545718973E+03  0.91193936006E+02 0.  0.
         23    2    1    2    0    0  0.67551217930E+02  0.20119809134E+02 -0.11904516135E+02  0.11055288781E+03  0.84334155214E+02 0.  0.
        -13    1    4    4    0    0  0.53388507661E+02 -0.23927407263E+02 -0.23181346354E+02  0.62930345521E+02  0.00000000000E+00 0.  1.
         13    1    4    4    0    0  0.14162710269E+02  0.44047216396E+02  0.11276830219E+02  0.47622542291E+02  0.00000000000E+00 0. -1.
        -13    1    3    3    0    0 -0.84718445716E+02 -0.10087342216E+02 -0.35184155571E+01  0.85389394924E+02  0.00000000000E+00 0.  1.
         13    1    3    3    0    0  0.18306137580E+02  0.11279197163E+02 -0.21017547976E+02  0.30067794809E+02  0.00000000000E+00 0. -1.
         21    1    1    2  502  501 -0.11389097943E+01 -0.21311664080E+02  0.11788568139E+03  0.11980199505E+03  0.00000000000E+00 0.  1.
<scales pt_clust_5="13000.00000" pt_clust_6="13000.00000" pt_clust_7="13000.00000" pt_clust_8="13000.00000" pt_clust_9="21.34207"></scales>
<clustering>
<clus scale="   21.342">  1  9  2 -1</clus>
<clus scale="   84.334">  5  6 -1 -1</clus>
<clus scale="   91.194">  7  8 -1 -1</clus>
<clus scale="  108.061">  1  5  2 -1</clus>
<clus scale="   21.342">  1  5  2 -1</clus>
</clustering>
</event>
<event>
 9    1  0.2423659E-006  0.9062017E+02  0.7546771E-02  0.1303044E+00
          2   -1    0    0  502    0  0.00000000000E+00  0.00000000000E+00  0.11478940260E+03  0.11478940260E+03  0.00000000000E+00 0. -1.
         -2   -1    0    0    0  501 -0.00000000000E+00 -0.00000000000E+00 -0.20711682440E+03  0.20711682440E+03  0.00000000000E+00 0.  1.
         23    2    1    2    0    0 -0.20652716623E+02 -0.29818156014E+02 -0.67527803110E+02  0.11829162931E+03  0.90095772604E+02 0.  0.
         23    2    1    2    0    0 -0.45613197172E+02 -0.27862883373E+02 -0.48984454902E+02  0.11249281139E+03  0.86013090663E+02 0.  0.
        -13    1    4    4    0    0  0.37595004948E+01  0.26095640360E+02 -0.22649313204E+02  0.34757843408E+02  0.00000000000E+00 0.  1.
         13    1    4    4    0    0 -0.49372697667E+02 -0.53958523733E+02 -0.26335141699E+02  0.77734967978E+02  0.00000000000E+00 0. -1.
        -13    1    3    3    0    0 -0.33793891098E+02 -0.50667623278E+01 -0.80469155090E+02  0.87424161860E+02  0.00000000000E+00 0. -1.
         13    1    3    3    0    0  0.13141174475E+02 -0.24751393686E+02  0.12941351980E+02  0.30867467455E+02  0.00000000000E+00 0.  1.
         21    1    1    2  502  501  0.66265913794E+02  0.57681039387E+02  0.24184836205E+02  0.91121786297E+02  0.00000000000E+00 0.  1.
<scales pt_clust_5="13000.00000" pt_clust_6="13000.00000" pt_clust_7="13000.00000" pt_clust_8="13000.00000" pt_clust_9="87.85371"></scales>
<clustering>
<clus scale="   86.013">  5  6 -1 -1</clus>
<clus scale="   87.854">  1  9  2 -1</clus>
<clus scale="   87.854">  1  5  2 -1</clus>
<clus scale="   90.096">  7  8 -1 -1</clus>
<clus scale="   87.854">  1  5  2 -1</clus>
</clustering>
</event>
<event>
 9    1  0.2423659E-006  0.9843118E+02  0.7546771E-02  0.1283879E+00
         -1   -1    0    0    0  501 -0.00000000000E+00  0.00000000000E+00  0.39927135505E+02  0.39927135505E+02  0.00000000000E+00 0.  1.
          1   -1    0    0  502    0  0.00000000000E+00 -0.00000000000E+00 -0.40614731207E+03  0.40614731207E+03  0.00000000000E+00 0. -1.
         23    2    1    2    0    0 -0.24872074668E+01  0.37409635502E+02 -0.84926710668E+02  0.13042785621E+03  0.91614477357E+02 0.  0.
         23    2    1    2    0    0 -0.35403463062E+02 -0.24680897180E+02 -0.22128910416E+03  0.24354772092E+03  0.92109027037E+02 0.  0.
        -13    1    3    3    0    0  0.34513538450E+02  0.49144543198E+02 -0.54686600808E+02  0.81221886031E+02  0.00000000000E+00 0.  1.
         13    1    3    3    0    0 -0.37000745916E+02 -0.11734907696E+02 -0.30240109860E+02  0.49205970180E+02  0.00000000000E+00 0. -1.
        -13    1    4    4    0    0 -0.30581644035E+01 -0.53937574491E+02 -0.15547886434E+03  0.16459736197E+03  0.00000000000E+00 0. -1.
         13    1    4    4    0    0 -0.32345298658E+02  0.29256677311E+02 -0.65810239821E+02  0.78950358947E+02  0.00000000000E+00 0.  1.
         21    1    1    2  502  501  0.37890670529E+02 -0.12728738322E+02 -0.60004361738E+02  0.72098870448E+02  0.00000000000E+00 0. -1.
<scales pt_clust_5="13000.00000" pt_clust_6="13000.00000" pt_clust_7="13000.00000" pt_clust_8="13000.00000" pt_clust_9="39.97154"></scales>
<clustering>
<clus scale="   39.972">  2  9  1 -1</clus>
<clus scale="   91.614">  5  6 -1 -1</clus>
<clus scale="   92.109">  7  8 -1 -1</clus>
<clus scale="   97.969">  1  5  2 -1</clus>
<clus scale="   39.972">  2  5  1 -1</clus>
</clustering>
</event>
<event>
 9    1  0.2423659E-006  0.1005096E+03  0.7546771E-02  0.1280302E+00
         -2   -1    0    0    0  501 -0.00000000000E+00  0.00000000000E+00  0.36169659920E+03  0.36169659920E+03  0.00000000000E+00 0.  1.
          2   -1    0    0  502    0  0.00000000000E+00 -0.00000000000E+00 -0.54292760389E+02  0.54292760389E+02  0.00000000000E+00 0. -1.
         23    2    1    2    0    0 -0.10237723695E+02 -0.51462014155E+02  0.22198031343E+03  0.24632513282E+03  0.92992804133E+02 0.  0.
         23    2    1    2    0    0  0.23994518529E+02  0.37243803141E+01  0.71448323636E+02  0.11805572599E+03  0.90789226020E+02 0.  0.
        -13    1    4    4    0    0 -0.33234803014E+01 -0.30256441092E+02  0.67780793150E+02  0.74301639746E+02  0.00000000000E+00 0.  1.
         13    1    4    4    0    0  0.27317998830E+02  0.33980821406E+02  0.36675304867E+01  0.43754086248E+02  0.00000000000E+00 0. -1.
        -13    1    3    3    0    0 -0.46373026004E+02 -0.47786693927E+02  0.10982523988E+03  0.12843523260E+03  0.00000000000E+00 0.  1.
         13    1    3    3    0    0  0.36135302308E+02 -0.36753202279E+01  0.11215507355E+03  0.11788990022E+03  0.00000000000E+00 0. -1.
         21    1    1    2  502  501 -0.13756794834E+02  0.47737633841E+02  0.13975201749E+02  0.51608500780E+02  0.00000000000E+00 0. -1.
<scales pt_clust_5="13000.00000" pt_clust_6="13000.00000" pt_clust_7="13000.00000" pt_clust_8="13000.00000" pt_clust_9="49.68029"></scales>
<clustering>
<clus scale="   49.680">  2  9  1 -1</clus>
<clus scale="   90.789">  5  6 -1 -1</clus>
<clus scale="   92.993">  7  8 -1 -1</clus>
<clus scale="   98.474">  2  5  1 -1</clus>
<clus scale="   49.680">  2  5  1 -1</clus>
</clustering>
</event>
<event>
 9    1  0.2423659E-006  0.9555939E+02  0.7546771E-02  0.1293148E+00
          2   -1    0    0  502    0  0.00000000000E+00  0.00000000000E+00  0.10808569406E+03  0.10808569406E+03  0.00000000000E+00 0. -1.
         -2   -1    0    0    0  501 -0.00000000000E+00 -0.00000000000E+00 -0.28622814608E+03  0.28622814608E+03  0.00000000000E+00 0.  1.
         23    2    1    2    0    0  0.37885799491E+02 -0.48458542891E+02 -0.88570238304E+02  0.13456816044E+03  0.80500549743E+02 0.  0.
         23    2    1    2    0    0 -0.19073578027E+02 -0.39520998083E+02  0.34404815706E+02  0.10656407790E+03  0.90810245499E+02 0.  0.
        -11    1    4    4    0    0  0.22165529254E+02  0.13274084169E+01 -0.17828734809E+02  0.28476946555E+02  0.00000000000E+00 0.  1.
         11    1    4    4    0    0 -0.41239107281E+02 -0.40848406500E+02  0.52233550516E+02  0.78087131349E+02  0.00000000000E+00 0. -1.
        -13    1    3    3    0    0  0.14762225548E+02  0.15224618832E+02 -0.55018937849E+02  0.58964360793E+02  0.00000000000E+00 0.  1.
         13    1    3    3    0    0  0.23123573944E+02 -0.63683161723E+02 -0.33551300455E+02  0.75603799648E+02  0.00000000000E+00 0. -1.
         21    1    1    2  502  501 -0.18812221464E+02  0.87979540974E+02 -0.12397702941E+03  0.15318160180E+03  0.00000000000E+00 0.  1.
<scales pt_clust_5="13000.00000" pt_clust_6="13000.00000" pt_clust_7="13000.00000" pt_clust_8="13000.00000" pt_clust_9="89.96832"></scales>
<clustering>
<clus scale="   80.501">  7  8 -1 -1</clus>
<clus scale="   89.968">  2  9  1 -1</clus>
<clus scale="   89.968">  2  7  1 -1</clus>
<clus scale="   90.810">  5  6 -1 -1</clus>
<clus scale="   95.559">  1  5  2 -1</clus>
</clustering>
</event>
<event>
 9    1  0.2423659E-006  0.9909784E+02  0.7546771E-02  0.1288097E+00
          2   -1    0    0  502    0  0.00000000000E+00  0.00000000000E+00  0.37302482859E+03  0.37302482859E+03  0.00000000000E+00 0. -1.
         -2   -1    0    0    0  501 -0.00000000000E+00 -0.00000000000E+00 -0.57894670819E+02  0.57894670819E+02  0.00000000000E+00 0.  1.
         23    2    1    2    0    0 -0.25895650543E+02 -0.29550120833E+02  0.14583432838E+02  0.10157101590E+03  0.92521351049E+02 0.  0.
         23    2    1    2    0    0  0.37089303412E+02 -0.33956028299E+01  0.26473568568E+03  0.27941703946E+03  0.81251166895E+02 0.  0.
        -11    1    3    3    0    0 -0.39892795001E+02 -0.53368320387E+02 -0.63170196283E+01  0.66929197298E+02  0.00000000000E+00 0.  1.
         11    1    3    3    0    0  0.13997144458E+02  0.23818199554E+02  0.20900452466E+02  0.34641818605E+02  0.00000000000E+00 0. -1.
        -13    1    4    4    0    0  0.19106473373E+02 -0.37093191692E+02  0.74535552182E+02  0.85419615626E+02  0.00000000000E+00 0.  1.
         13    1    4    4    0    0  0.17982830040E+02  0.33697588862E+02  0.19020013350E+03  0.19399742384E+03  0.00000000000E+00 0. -1.
         21    1    1    2  502  501 -0.11193652870E+02  0.32945723663E+02  0.35811039253E+02  0.49931444047E+02  0.00000000000E+00 0. -1.
<scales pt_clust_5="13000.00000" pt_clust_6="13000.00000" pt_clust_7="13000.00000" pt_clust_8="13000.00000" pt_clust_9="34.79538"></scales>
<clustering>
<clus scale="   34.795">  2  9  1 -1</clus>
<clus scale="   81.251">  7  8 -1 -1</clus>
<clus scale="   88.668">  1  7  2 -1</clus>
<clus scale="   92.521">  5  6 -1 -1</clus>
<clus scale="   88.668">  1  5  2 -1</clus>
</clustering>
</event>
<event>
 9    1  0.2423659E-006  0.1233406E+03  0.7546771E-02  0.1246484E+00
         -2   -1    0    0    0  501 -0.00000000000E+00  0.00000000000E+00  0.19654636532E+03  0.19654636532E+03  0.00000000000E+00 0.  1.
          2   -1    0    0  502    0  0.00000000000E+00 -0.00000000000E+00 -0.18117272232E+03  0.18117272232E+03  0.00000000000E+00 0. -1.
         23    2    1    2    0    0 -0.60440787787E+02  0.42183269687E+02  0.89900553777E+02  0.14826686594E+03  0.92024110401E+02 0.  0.
         23    2    1    2    0    0  0.11800586534E+02  0.50508167214E+02 -0.69919296716E+02  0.12467244427E+03  0.89242263016E+02 0.  0.
        -13    1    3    3    0    0 -0.63014784983E+02  0.66124185553E+02  0.57627356952E+02  0.10800084866E+03  0.00000000000E+00 0.  1.
         13    1    3    3    0    0  0.25739971959E+01 -0.23940915866E+02  0.32273196825E+02  0.40266017277E+02  0.00000000000E+00 0. -1.
        -13    1    4    4    0    0 -0.18230882951E+02  0.62519558500E+02 -0.64900522655E+02  0.91940949141E+02  0.00000000000E+00 0.  1.
         13    1    4    4    0    0  0.30031469485E+02 -0.12011391285E+02 -0.50187740610E+01  0.32731495125E+02  0.00000000000E+00 0. -1.
         21    1    1    2  502  501  0.48640201253E+02 -0.92691436902E+02 -0.46076140693E+01  0.10477977744E+03  0.00000000000E+00 0. -1.
<scales pt_clust_5="13000.00000" pt_clust_6="13000.00000" pt_clust_7="13000.00000" pt_clust_8="13000.00000" pt_clust_9="82.12475"></scales>
<clustering>
<clus scale="   89.242">  7  8 -1 -1</clus>
<clus scale="   92.024">  5  6 -1 -1</clus>
<clus scale="  103.221">  2  7  1 -1</clus>
<clus scale="   82.125">  2  9  1 -1</clus>
<clus scale="  103.221">  2  5  1 -1</clus>
</clustering>
</event>
<event>
 9    1  0.2423659E-006  0.1001104E+03  0.7546771E-02  0.1280376E+00
         -1   -1    0    0    0  501 -0.00000000000E+00  0.00000000000E+00  0.32706417691E+03  0.32706417691E+03  0.00000000000E+00 0.  1.
          1   -1    0    0  502    0  0.00000000000E+00 -0.00000000000E+00 -0.70232497706E+02  0.70232497706E+02  0.00000000000E+00 0. -1.
         23    2    1    2    0    0  0.18780917905E+02  0.52006724903E+02  0.50838126492E+02  0.11775723944E+03  0.90690848612E+02 0.  0.
         23    2    1    2    0    0  0.53148112778E+01 -0.31685844224E+02  0.30910172148E+02  0.10164133933E+03  0.91341574193E+02 0.  0.
        -11    1    3    3    0    0 -0.17923482604E+02  0.62524934813E+02  0.45093628805E+02  0.79145777277E+02  0.00000000000E+00 0.  1.
         11    1    3    3    0    0  0.36704400509E+02 -0.10518209909E+02  0.57444976878E+01  0.38611462160E+02  0.00000000000E+00 0. -1.
        -13    1    4    4    0    0 -0.25977196019E+02 -0.33863855018E+02 -0.15685642559E+02  0.45471032231E+02  0.00000000000E+00 0.  1.
         13    1    4    4    0    0  0.31292007297E+02  0.21780107934E+01  0.46595814707E+02  0.56170307102E+02  0.00000000000E+00 0. -1.
         21    1    1    2  502  501 -0.24095729183E+02 -0.20320880679E+02  0.17508338056E+03  0.17789809584E+03  0.00000000000E+00 0.  1.
<scales pt_clust_5="13000.00000" pt_clust_6="13000.00000" pt_clust_7="13000.00000" pt_clust_8="13000.00000" pt_clust_9="31.52051"></scales>
<clustering>
<clus scale="   31.521">  1  9  2 -1</clus>
<clus scale="   90.691">  5  6 -1 -1</clus>
<clus scale="   91.342">  7  8 -1 -1</clus>
<clus scale="   99.517">  1  5  2 -1</clus>
<clus scale="  100.110">  2  5  1 -1</clus>
</clustering>
</event>
<event>
 9    1  0.2423659E-006  0.9269554E+02  0.7546771E-02  0.1299497E+00
         -1   -1    0    0    0  501 -0.00000000000E+00  0.00000000000E+00  0.99515146503E+02  0.99515146503E+02  0.00000000000E+00 0.  1.
          1   -1    0    0  502    0  0.00000000000E+00 -0.00000000000E+00 -0.38160388852E+03  0.38160388852E+03  0.00000000000E+00 0. -1.
         23    2    1    2    0    0 -0.41560234812E+02 -0.25883019631E+02  0.30327129062E+02  0.10872009959E+03  0.92212480038E+02 0.  0.
         23    2    1    2    0    0  0.55911120393E+01  0.24967413178E+01 -0.31741262194E+03  0.32920561042E+03  0.87109512180E+02 0.  0.
        -11    1    3    3    0    0 -0.49331469624E+02 -0.49225351497E+02  0.27406126181E-01  0.69690242333E+02  0.00000000000E+00 0. -1.
         11    1    3    3    0    0  0.77712348121E+01  0.23342331866E+02  0.30299722936E+02  0.39029857257E+02  0.00000000000E+00 0.  1.
        -11    1    4    4    0    0  0.31396802407E+02 -0.29279758400E+02 -0.11633671021E+03  0.12400521600E+03  0.00000000000E+00 0. -1.
         11    1    4    4    0    0 -0.25805690368E+02  0.31776499718E+02 -0.20107591174E+03  0.20520039442E+03  0.00000000000E+00 0.  1.
         21    1    1    2  502  501  0.35969122773E+02  0.23386278313E+02  0.49967508648E+01  0.43193325012E+02  0.00000000000E+00 0.  1.
<scales pt_clust_5="13000.00000" pt_clust_6="13000.00000" pt_clust_7="13000.00000" pt_clust_8="13000.00000" pt_clust_9="42.90333"></scales>
<clustering>
<clus scale="   42.903">  1  9  2 -1</clus>
<clus scale="   87.110">  7  8 -1 -1</clus>
<clus scale="   87.621">  2  7  1 -1</clus>
<clus scale="   92.212">  5  6 -1 -1</clus>
<clus scale="   87.621">  2  5  1 -1</clus>
</clustering>
</event>
<event>
 9    1  0.2423659E-006  0.9607605E+02  0.7546771E-02  0.1289252E+00
         -2   -1    0    0    0  501 -0.00000000000E+00  0.00000000000E+00  0.74772705700E+02  0.74772705700E+02  0.00000000000E+00 0.  1.
          2   -1    0    0  502    0  0.00000000000E+00 -0.00000000000E+00 -0.31094075829E+03  0.31094075829E+03  0.00000000000E+00 0. -1.
         23    2    1    2    0    0 -0.75482742501E+02 -0.58215042055E+01 -0.12970740459E+03  0.17556810884E+03  0.90931928999E+02 0.  0.
         23    2    1    2    0    0 -0.58102116388E+01  0.13258742501E+01 -0.89299851114E+02  0.12693929749E+03  0.90020027418E+02 0.  0.
        -11    1    4    4    0    0 -0.32419196957E+02 -0.32933866683E+02 -0.38590067191E+02  0.60206620831E+02  0.00000000000E+00 0.  1.
         11    1    4    4    0    0  0.26608985318E+02  0.34259740934E+02 -0.50709783922E+02  0.66732676658E+02  0.00000000000E+00 0. -1.
        -11    1    3    3    0    0 -0.77105401417E+02 -0.37986990648E+02 -0.98350640328E+02  0.13061815662E+03  0.00000000000E+00 0.  1.
         11    1    3    3    0    0  0.16226589159E+01  0.32165486442E+02 -0.31356764259E+02  0.44949952223E+02  0.00000000000E+00 0. -1.
         21    1    1    2  502  501  0.81292954140E+02  0.44956299554E+01 -0.17160796892E+02  0.83206057661E+02  0.00000000000E+00 0. -1.
<scales pt_clust_5="13000.00000" pt_clust_6="13000.00000" pt_clust_7="13000.00000" pt_clust_8="13000.00000" pt_clust_9="81.41717"></scales>
<clustering>
<clus scale="   81.417">  1  9  2 -1</clus>
<clus scale="   90.020">  5  6 -1 -1</clus>
<clus scale="   90.932">  7  8 -1 -1</clus>
<clus scale="   95.213">  2  5  1 -1</clus>
<clus scale="   95.213">  2  5  1 -1</clus>
</clustering>
</event>
<event>
 9    1  0.2423659E-006  0.2009939E+03  0.7546771E-02  0.1171974E+00
          1   -1    0    0  502    0  0.00000000000E+00  0.00000000000E+00  0.27900349284E+03  0.27900349284E+03  0.00000000000E+00 0. -1.
         -1   -1    0    0    0  501 -0.00000000000E+00 -0.00000000000E+00 -0.35666064982E+03  0.35666064982E+03  0.00000000000E+00 0.  1.
         23    2    1    2    0    0 -0.16736778428E+03 -0.65571736829E+02  0.79422148669E+02  0.21815237498E+03  0.94715115617E+02 0.  0.
         23    2    1    2    0    0 -0.11963567918E+02  0.73958251194E+02  0.63126513017E+02  0.13339793472E+03  0.90537851009E+02 0.  0.
        -11    1    3    3    0    0 -0.11441461263E+03 -0.81337308824E+02  0.82480792607E+02  0.16281751300E+03  0.00000000000E+00 0. -1.
         11    1    3    3    0    0 -0.52953171651E+02  0.15765571995E+02 -0.30586439378E+01  0.55334861985E+02  0.00000000000E+00 0.  1.
        -11    1    4    4    0    0 -0.19241278336E+02  0.38280039404E+02  0.81900683484E+02  0.92430028475E+02  0.00000000000E+00 0. -1.
         11    1    4    4    0    0  0.72777104174E+01  0.35678211790E+02 -0.18774170468E+02  0.40967906246E+02  0.00000000000E+00 0.  1.
         21    1    1    2  502  501  0.17933135220E+03 -0.83865143647E+01 -0.22020581866E+03  0.28411383296E+03  0.00000000000E+00 0.  1.
<scales pt_clust_5="13000.00000" pt_clust_6="13000.00000" pt_clust_7="13000.00000" pt_clust_8="13000.00000" pt_clust_9="177.27828"></scales>
<clustering>
<clus scale="   90.538">  7  8 -1 -1</clus>
<clus scale="   94.715">  5  6 -1 -1</clus>
<clus scale="  117.516">  1  7  2 -1</clus>
<clus scale="  177.278">  2  9  1 -1</clus>
<clus scale="  117.516">  1  5  2 -1</clus>
</clustering>
</event>
<event>
 9    1  0.2423659E-006  0.1121934E+03  0.7546771E-02  0.1257884E+00
          1   -1    0    0  502    0  0.00000000000E+00  0.00000000000E+00  0.77682606679E+03  0.77682606679E+03  0.00000000000E+00 0. -1.
         -1   -1    0    0    0  501 -0.00000000000E+00 -0.00000000000E+00 -0.64699447725E+02  0.64699447725E+02  0.00000000000E+00 0.  1.
         23    2    1    2    0    0  0.86986369164E+02 -0.48440150952E+02  0.36707401981E+03  0.39013367647E+03  0.86878494721E+02 0.  0.
         23    2    1    2    0    0 -0.35915449718E+02  0.30634660052E+02  0.37563817173E+03  0.38925689166E+03  0.90490274156E+02 0.  0.
        -11    1    4    4    0    0 -0.21588200802E+02 -0.31213470212E+02  0.16194995929E+03  0.16633736938E+03  0.00000000000E+00 0.  1.
         11    1    4    4    0    0 -0.14327248916E+02  0.61848130264E+02  0.21368821243E+03  0.22291952228E+03  0.00000000000E+00 0. -1.
        -11    1    3    3    0    0  0.73125970147E+02  0.83059728379E+01  0.19603022848E+03  0.20939017926E+03  0.00000000000E+00 0. -1.
         11    1    3    3    0    0  0.13860399016E+02 -0.56746123790E+02  0.17104379134E+03  0.18074349720E+03  0.00000000000E+00 0.  1.
         21    1    1    2  502  501 -0.51070919446E+02  0.17805490900E+02 -0.30585572480E+02  0.62134946392E+02  0.00000000000E+00 0. -1.
<scales pt_clust_5="13000.00000" pt_clust_6="13000.00000" pt_clust_7="13000.00000" pt_clust_8="13000.00000" pt_clust_9="54.08581"></scales>
<clustering>
<clus scale="   54.086">  2  9  1 -1</clus>
<clus scale="   86.878">  7  8 -1 -1</clus>
<clus scale="   90.490">  5  6 -1 -1</clus>
<clus scale="  109.301">  2  7  1 -1</clus>
<clus scale="  112.193">  1  5  2 -1</clus>
</clustering>
</event>
<event>
 9    1  0.2423659E-006  0.1286603E+03  0.7546771E-02  0.1244369E+00
         -1   -1    0    0    0  501 -0.00000000000E+00  0.00000000000E+00  0.12366702557E+03  0.12366702557E+03  0.00000000000E+00 0.  1.
          1   -1    0    0  502    0  0.00000000000E+00 -0.00000000000E+00 -0.21725585764E+03  0.21725585764E+03  0.00000000000E+00 0. -1.
         23    2    1    2    0    0 -0.19023174386E+02 -0.22212088773E+02 -0.16270530901E+02  0.96280145422E+02  0.90276675699E+02 0.  0.
         23    2    1    2    0    0 -0.75748112524E+02 -0.24723346925E+02 -0.66706133930E+02  0.13835468559E+03  0.91341613115E+02 0.  0.
        -13    1    3    3    0    0 -0.49926120887E+01  0.23305769998E+02  0.24060744437E+02  0.33867455079E+02  0.00000000000E+00 0.  1.
         13    1    3    3    0    0 -0.14030562297E+02 -0.45517858771E+02 -0.40331275338E+02  0.62412690343E+02  0.00000000000E+00 0. -1.
        -13    1    4    4    0    0 -0.66877937442E+02  0.21459939781E+02 -0.56718691437E+02  0.90278444217E+02  0.00000000000E+00 0. -1.
         13    1    4    4    0    0 -0.88701750818E+01 -0.46183286706E+02 -0.99874424929E+01  0.48076241372E+02  0.00000000000E+00 0.  1.
         21    1    1    2  502  501  0.94771286910E+02  0.46935435698E+02 -0.10612167233E+02  0.10628805220E+03  0.00000000000E+00 0.  1.
<scales pt_clust_5="13000.00000" pt_clust_6="13000.00000" pt_clust_7="13000.00000" pt_clust_8="13000.00000" pt_clust_9="90.61008"></scales>
<clustering>
<clus scale="   90.277">  5  6 -1 -1</clus>
<clus scale="   91.342">  7  8 -1 -1</clus>
<clus scale="   94.895">  1  5  2 -1</clus>
<clus scale="   90.610">  1  9  2 -1</clus>
<clus scale="  128.660">  2  5  1 -1</clus>
</clustering>
</event>
<event>
 9    1  0.2423659E-006  0.9493631E+02  0.7546771E-02  0.1292100E+00
         -3   -1    0    0    0  501 -0.00000000000E+00  0.00000000000E+00  0.18196478565E+03  0.18196478565E+03  0.00000000000E+00 0.  1.
          3   -1    0    0  502    0  0.00000000000E+00 -0.00000000000E+00 -0.78100331875E+02  0.78100331875E+02  0.00000000000E+00 0. -1.
         23    2    1    2    0    0  0.36233740490E+01 -0.22628129648E+02  0.98124132209E+02  0.13770549479E+03  0.93857854670E+02 0.  0.
         23    2    1    2    0    0 -0.39762173494E+00 -0.62290758087E+01 -0.41011987782E+00  0.92678455053E+02  0.92467120342E+02 0.  0.
        -11    1    3    3    0    0  0.22459424303E+02 -0.54783693068E+02  0.63796047358E+02  0.87038005634E+02  0.00000000000E+00 0.  1.
         11    1    3    3    0    0 -0.18836050254E+02  0.32155563421E+02  0.34328084852E+02  0.50667489159E+02  0.00000000000E+00 0. -1.
        -11    1    4    4    0    0  0.42129171784E+02 -0.18768971090E+02  0.98699055056E+01  0.47165203548E+02  0.00000000000E+00 0.  1.
         11    1    4    4    0    0 -0.42526793519E+02  0.12539895281E+02 -0.10280025383E+02  0.45513251505E+02  0.00000000000E+00 0. -1.
         21    1    1    2  502  501 -0.32257523141E+01  0.28857205456E+02  0.61504414399E+01  0.29681167677E+02  0.00000000000E+00 0. -1.
<scales pt_clust_5="13000.00000" pt_clust_6="13000.00000" pt_clust_7="13000.00000" pt_clust_8="13000.00000" pt_clust_9="29.03694"></scales>
<clustering>
<clus scale="   29.037">  2  9  1 -1</clus>
<clus scale="   92.467">  7  8 -1 -1</clus>
<clus scale="   93.562">  2  7  1 -1</clus>
<clus scale="   93.858">  5  6 -1 -1</clus>
<clus scale="   29.037">  2  5  1 -1</clus>
</clustering>
</event>
<event>
 9    1  0.2423659E-006  0.1258727E+03  0.7546771E-02  0.1241936E+00
         -2   -1    0    0    0  501 -0.00000000000E+00  0.00000000000E+00  0.17320524059E+03  0.17320524059E+03  0.00000000000E+00 0.  1.
          2   -1    0    0  502    0  0.00000000000E+00 -0.00000000000E+00 -0.19722321906E+03  0.19722321906E+03  0.00000000000E+00 0. -1.
         23    2    1    2    0    0 -0.60147094470E+02 -0.37696112848E+02 -0.56635794864E+02  0.12984232281E+03  0.92804879378E+02 0.  0.
         23    2    1    2    0    0  0.36716033356E+02  0.10912335967E+01 -0.62814174810E+02  0.13572338484E+03  0.11456857658E+03 0.  0.
        -11    1    3    3    0    0 -0.51530832609E+02  0.21122954464E+02 -0.16391191904E+02  0.58054087597E+02  0.00000000000E+00 0.  1.
         11    1    3    3    0    0 -0.86162618615E+01 -0.58819067312E+02 -0.40244602960E+02  0.71788235215E+02  0.00000000000E+00 0. -1.
        -13    1    4    4    0    0  0.51058927691E+02 -0.44721694935E+02 -0.18403879155E+02  0.70326004171E+02  0.00000000000E+00 0. -1.
         13    1    4    4    0    0 -0.14342894335E+02  0.45812928531E+02 -0.44410295655E+02  0.65397380671E+02  0.00000000000E+00 0.  1.
         21    1    1    2  502  501  0.23431061114E+02  0.36604879251E+02  0.95431991204E+02  0.10486275199E+03  0.00000000000E+00 0.  1.
<scales pt_clust_5="13000.00000" pt_clust_6="13000.00000" pt_clust_7="13000.00000" pt_clust_8="13000.00000" pt_clust_9="43.46184"></scales>
<clustering>
<clus scale="   43.462">  1  9  2 -1</clus>
<clus scale="   92.805">  5  6 -1 -1</clus>
<clus scale="  106.446">  1  5  2 -1</clus>
<clus scale="  114.569">  7  8 -1 -1</clus>
<clus scale="  125.873">  2  5  1 -1</clus>
</clustering>
</event>
<event>
 9    1  0.2423659E-006  0.1338493E+03  0.7546771E-02  0.1222269E+00
         -2   -1    0    0    0  501 -0.00000000000E+00  0.00000000000E+00  0.14751759039E+03  0.14751759039E+03  0.00000000000E+00 0. -1.
          2   -1    0    0  502    0  0.00000000000E+00 -0.00000000000E+00 -0.24198057807E+03  0.24198057807E+03  0.00000000000E+00 0.  1.
         23    2    1    2    0    0  0.62551516657E+02  0.23936834667E+02  0.59471578787E+02  0.12730333588E+03  0.90463287315E+02 0.  0.
         23    2    1    2    0    0 -0.71017580542E+02 -0.82193179467E+02 -0.14389145744E+03  0.20247599146E+03  0.92155087192E+02 0.  0.
        -11    1    3    3    0    0  0.52835483143E+02 -0.27241486184E+02  0.40194473363E+02  0.71758501499E+02  0.00000000000E+00 0.  1.
         11    1    3    3    0    0  0.97160335137E+01  0.51178320851E+02  0.19277105424E+02  0.55544834377E+02  0.00000000000E+00 0. -1.
        -13    1    4    4    0    0 -0.41461774900E+02 -0.14032976074E+01 -0.94676217163E+02  0.10336650385E+03  0.00000000000E+00 0. -1.
         13    1    4    4    0    0 -0.29555805642E+02 -0.80789881860E+02 -0.49215240277E+02  0.99109487606E+02  0.00000000000E+00 0.  1.
         21    1    1    2  502  501  0.84660638845E+01  0.58256344800E+02 -0.10043109021E+02  0.59718841130E+02  0.00000000000E+00 0. -1.
<scales pt_clust_5="13000.00000" pt_clust_6="13000.00000" pt_clust_7="13000.00000" pt_clust_8="13000.00000" pt_clust_9="58.86829"></scales>
<clustering>
<clus scale="   58.868">  1  9  2 -1</clus>
<clus scale="   90.463">  5  6 -1 -1</clus>
<clus scale="   92.155">  7  8 -1 -1</clus>
<clus scale="  132.690">  1  5  2 -1</clus>
<clus scale="  133.849">  2  5  1 -1</clus>
</clustering>
</event>
<event>
 9    1  0.2423659E-006  0.1075472E+03  0.7546771E-02  0.1267684E+00
          2   -1    0    0  502    0  0.00000000000E+00  0.00000000000E+00  0.51614376979E+02  0.51614376979E+02  0.00000000000E+00 0. -1.
         -2   -1    0    0    0  501 -0.00000000000E+00 -0.00000000000E+00 -0.43349258374E+03  0.43349258374E+03  0.00000000000E+00 0.  1.
         23    2    1    2    0    0  0.15117708848E+02 -0.34198702006E+02 -0.11175586176E+03  0.14676656025E+03  0.87481165002E+02 0.  0.
         23    2    1    2    0    0 -0.85861710339E+02  0.83384072470E+01 -0.18737495309E+03  0.22644491593E+03  0.93413942042E+02 0.  0.
        -13    1    4    4    0    0 -0.39018570056E+01 -0.34390854221E+02 -0.55359621986E+02  0.65288920106E+02  0.00000000000E+00 0. -1.
         13    1    4    4    0    0 -0.81959853333E+02  0.42729261468E+02 -0.13201533111E+03  0.16115599583E+03  0.00000000000E+00 0.  1.
        -13    1    3    3    0    0 -0.30496920158E+02 -0.13893416317E+02 -0.82141454556E+02  0.88714754763E+02  0.00000000000E+00 0.  1.
         13    1    3    3    0    0  0.45614629006E+02 -0.20305285689E+02 -0.29614407206E+02  0.58051805488E+02  0.00000000000E+00 0. -1.
         21    1    1    2  502  501  0.70744001491E+02  0.25860294759E+02 -0.82747391908E+02  0.11189548454E+03  0.00000000000E+00 0. -1.
<scales pt_clust_5="13000.00000" pt_clust_6="13000.00000" pt_clust_7="13000.00000" pt_clust_8="13000.00000" pt_clust_9="75.32243"></scales>
<clustering>
<clus scale="   75.322">  1  9  2 -1</clus>
<clus scale="   87.481">  7  8 -1 -1</clus>
<clus scale="   93.414">  5  6 -1 -1</clus>
<clus scale="  102.436">  2  7  1 -1</clus>
<clus scale="   75.322">  1  5  2 -1</clus>
</clustering>
</event>
<event>
 9    1  0.2423659E-006  0.1434415E+03  0.7546771E-02  0.1227562E+00
         -1   -1    0    0    0  501 -0.00000000000E+00  0.00000000000E+00  0.13546948406E+03  0.13546948406E+03  0.00000000000E+00 0.  1.
          1   -1    0    0  502    0  0.00000000000E+00 -0.00000000000E+00 -0.44311734928E+03  0.44311734928E+03  0.00000000000E+00 0. -1.
         23    2    1    2    0    0 -0.86873414680E+02  0.36170902728E+01 -0.16404782661E+03  0.21049414720E+03  0.99176726460E+02 0.  0.
         23    2    1    2    0    0 -0.15280937165E+02  0.26294147245E+02 -0.21786403611E+03  0.23830310622E+03  0.91644656061E+02 0.  0.
        -11    1    3    3    0    0 -0.37762603972E+01 -0.32365392020E+02 -0.14496029717E+02  0.35663898002E+02  0.00000000000E+00 0.  1.
         11    1    3    3    0    0 -0.83097154283E+02  0.35982482293E+02 -0.14955179689E+03  0.17483024920E+03  0.00000000000E+00 0. -1.
        -11    1    4    4    0    0  0.22920963426E+02 -0.23877339655E+02 -0.85579131172E+02  0.91756665183E+02  0.00000000000E+00 0. -1.
         11    1    4    4    0    0 -0.38201900591E+02  0.50171486900E+02 -0.13228490494E+03  0.14654644104E+03  0.00000000000E+00 0.  1.
         21    1    1    2  502  501  0.10215435185E+03 -0.29911237518E+02  0.74263997502E+02  0.12978957992E+03  0.00000000000E+00 0.  1.
<scales pt_clust_5="13000.00000" pt_clust_6="13000.00000" pt_clust_7="13000.00000" pt_clust_8="13000.00000" pt_clust_9="103.63128"></scales>
<clustering>
<clus scale="   91.645">  7  8 -1 -1</clus>
<clus scale="   96.559">  2  7  1 -1</clus>
<clus scale="   99.177">  5  6 -1 -1</clus>
<clus scale="  103.631">  1  9  2 -1</clus>
<clus scale="   96.559">  2  5  1 -1</clus>
</clustering>
</event>
<event>
 9    1  0.2423659E-006  0.1823749E+03  0.7546771E-02  0.1165639E+00
         -1   -1    0    0    0  501 -0.00000000000E+00  0.00000000000E+00  0.15649045948E+03  0.15649045948E+03  0.00000000000E+00 0.  1.
          1   -1    0    0  502    0  0.00000000000E+00 -0.00000000000E+00 -0.29901721902E+03  0.29901721902E+03  0.00000000000E+00 0. -1.
         23    2    1    2    0    0 -0.14396641861E+03  0.76910654869E+02 -0.52657122693E+01  0.18696534333E+03  0.91031496527E+02 0.  0.
         23    2    1    2    0    0  0.14892791251E+03 -0.33613600544E+02 -0.76982957350E+02  0.19416021729E+03  0.91991396276E+02 0.  0.
        -11    1    3    3    0    0 -0.11485785008E+03  0.14166978223E+02 -0.16477821904E+02  0.11689545591E+03  0.00000000000E+00 0.  1.
         11    1    3    3    0    0 -0.29108568535E+02  0.62743676646E+02  0.11212109635E+02  0.70069887424E+02  0.00000000000E+00 0. -1.
        -11    1    4    4    0    0  0.49766631504E+02 -0.22733142361E+02  0.16808014793E+02  0.57236550683E+02  0.00000000000E+00 0.  1.
         11    1    4    4    0    0  0.99161281006E+02 -0.10880458183E+02 -0.93790972142E+02  0.13692366660E+03  0.00000000000E+00 0. -1.
         21    1    1    2  502  501 -0.49614938951E+01 -0.43297054325E+02 -0.60278089922E+02  0.74382117874E+02  0.00000000000E+00 0.  1.
<scales pt_clust_5="13000.00000" pt_clust_6="13000.00000" pt_clust_7="13000.00000" pt_clust_8="13000.00000" pt_clust_9="43.58040"></scales>
<clustering>
<clus scale="   43.580">  2  9  1 -1</clus>
<clus scale="   91.031">  5  6 -1 -1</clus>
<clus scale="   91.991">  7  8 -1 -1</clus>
<clus scale="  181.893">  1  5  2 -1</clus>
<clus scale="   43.580">  2  5  1 -1</clus>
</clustering>
</event>
<event>
 9    1  0.2423659E-006  0.9315396E+02  0.7546771E-02  0.1296316E+00
          2   -1    0    0  502    0  0.00000000000E+00  0.00000000000E+00  0.10330904744E+04  0.10330904744E+04  0.00000000000E+00 0. -1.
         -2   -1    0    0    0  501 -0.00000000000E+00 -0.00000000000E+00 -0.16771151735E+02  0.16771151735E+02  0.00000000000E+00 0.  1.
         23    2    1    2    0    0 -0.15914292436E+01  0.62019347988E+02  0.51846254736E+03  0.52947990178E+03  0.87730389262E+02 0.  0.
         23    2    1    2    0    0 -0.76906329183E+01 -0.13565398936E+01  0.34530597983E+03  0.35594973792E+03  0.86040747214E+02 0.  0.
        -13    1    4    4    0    0 -0.32788457037E+02 -0.32654149874E+02  0.18388624631E+03  0.18961942939E+03  0.00000000000E+00 0.  1.
         13    1    4    4    0    0  0.25097824119E+02  0.31297609980E+02  0.16141973352E+03  0.16633030853E+03  0.00000000000E+00 0. -1.
        -13    1    3    3    0    0  0.32961161088E+02 -0.29295621611E+01  0.13259134363E+03  0.13665827776E+03  0.00000000000E+00 0.  1.
         13    1    3    3    0    0 -0.34552590331E+02  0.64948910149E+02  0.38587120374E+03  0.39282162403E+03  0.00000000000E+00 0. -1.
         21    1    1    2  502  501  0.92820621619E+01 -0.60662808094E+02  0.15255079544E+03  0.16443198640E+03  0.00000000000E+00 0.  1.
<scales pt_clust_5="13000.00000" pt_clust_6="13000.00000" pt_clust_7="13000.00000" pt_clust_8="13000.00000" pt_clust_9="61.36883"></scales>
<clustering>
<clus scale="   61.369">  2  9  1 -1</clus>
<clus scale="   86.041">  5  6 -1 -1</clus>
<clus scale="   87.730">  7  8 -1 -1</clus>
<clus scale="   91.564">  1  5  2 -1</clus>
<clus scale="   91.564">  1  5  2 -1</clus>
</clustering>
</event>
<event>
 9    1  0.2423659E-006  0.9804794E+02  0.7546771E-02  0.1285699E+00
         -2   -1    0    0    0  501 -0.00000000000E+00  0.00000000000E+00  0.25049239856E+03  0.25049239856E+03  0.00000000000E+00 0.  1.
          2   -1    0    0  502    0  0.00000000000E+00 -0.00000000000E+00 -0.14322158385E+03  0.14322158385E+03  0.00000000000E+00 0. -1.
         23    2    1    2    0    0  0.35616233955E+01 -0.46994968955E+02  0.18323285625E+03  0.21082158438E+03  0.93006712451E+02 0.  0.
         23    2    1    2    0    0  0.23286802390E+02  0.20594814947E+02 -0.99795887906E+02  0.13832942763E+03  0.90605682698E+02 0.  0.
        -11    1    4    4    0    0  0.31924594641E+02  0.52067598056E+02 -0.78073991706E+02  0.99124985201E+02  0.00000000000E+00 0. -1.
         11    1    4    4    0    0 -0.86377922502E+01 -0.31472783109E+02 -0.21721896200E+02  0.39204442428E+02  0.00000000000E+00 0.  1.
        -11    1    3    3    0    0  0.38068405954E+02 -0.46423496862E+02  0.68866846986E+02  0.91361847653E+02  0.00000000000E+00 0.  1.
         11    1    3    3    0    0 -0.34506782558E+02 -0.57147209315E+00  0.11436600927E+03  0.11945973673E+03  0.00000000000E+00 0. -1.
         21    1    1    2  502  501 -0.26848425786E+02  0.26400154009E+02  0.23833846363E+02  0.44562970405E+02  0.00000000000E+00 0.  1.
<scales pt_clust_5="13000.00000" pt_clust_6="13000.00000" pt_clust_7="13000.00000" pt_clust_8="13000.00000" pt_clust_9="37.65377"></scales>
<clustering>
<clus scale="   37.654">  1  9  2 -1</clus>
<clus scale="   90.606">  5  6 -1 -1</clus>
<clus scale="   93.007">  7  8 -1 -1</clus>
<clus scale="   95.773">  2  5  1 -1</clus>
<clus scale="   95.773">  2  5  1 -1</clus>
</clustering>
</event>
<event>
 9    1  0.2423659E-006  0.9398740E+02  0.7546771E-02  0.1294966E+00
         -1   -1    0    0    0  501 -0.00000000000E+00  0.00000000000E+00  0.46926337837E+02  0.46926337837E+02  0.00000000000E+00 0.  1.
          1   -1    0    0  502    0  0.00000000000E+00 -0.00000000000E+00 -0.55641447145E+03  0.55641447145E+03  0.00000000000E+00 0. -1.
         23    2    1    2    0    0  0.63466401554E+02 -0.54835659715E+01 -0.95932022466E+02  0.14677622910E+03  0.91006894640E+02 0.  0.
         23    2    1    2    0    0  0.46114537991E+01 -0.45880828054E+00 -0.35310461339E+03  0.36532703429E+03  0.93592189693E+02 0.  0.
        -11    1    4    4    0    0  0.19854963509E+02 -0.43511760787E+02 -0.19274305620E+03  0.19858846547E+03  0.00000000000E+00 0.  1.
         11    1    4    4    0    0 -0.15243509710E+02  0.43052952506E+02 -0.16036155719E+03  0.16673856882E+03  0.00000000000E+00 0. -1.
        -13    1    3    3    0    0  0.41833050857E+02 -0.35576096682E+02 -0.13729696153E+02  0.56605365078E+02  0.00000000000E+00 0.  1.
         13    1    3    3    0    0  0.21633350697E+02  0.30092530711E+02 -0.82202326313E+02  0.90170864021E+02  0.00000000000E+00 0. -1.
         21    1    1    2  502  501 -0.68077855353E+02  0.59423742521E+01 -0.60451497754E+02  0.91237545900E+02  0.00000000000E+00 0. -1.
<scales pt_clust_5="13000.00000" pt_clust_6="13000.00000" pt_clust_7="13000.00000" pt_clust_8="13000.00000" pt_clust_9="68.33671"></scales>
<clustering>
<clus scale="   68.337">  1  9  2 -1</clus>
<clus scale="   91.007">  7  8 -1 -1</clus>
<clus scale="   91.413">  1  7  2 -1</clus>
<clus scale="   93.592">  5  6 -1 -1</clus>
<clus scale="   93.987">  2  5  1 -1</clus>
</clustering>
</event>
<event>
 9    1  0.2423659E-006  0.1213349E+03  0.7546771E-02  0.1253553E+00
          2   -1    0    0  502    0  0.00000000000E+00  0.00000000000E+00  0.64631089987E+03  0.64631089987E+03  0.00000000000E+00 0. -1.
         -2   -1    0    0    0  501 -0.00000000000E+00 -0.00000000000E+00 -0.37068005912E+02  0.37068005912E+02  0.00000000000E+00 0.  1.
         23    2    1    2    0    0 -0.59390482429E+02  0.85420786946E+01  0.17804064680E+03  0.20923205570E+03  0.92083574579E+02 0.  0.
         23    2    1    2    0    0 -0.38503693542E+02  0.23581537436E+02  0.20433065564E+03  0.22497639549E+03  0.82611974746E+02 0.  0.
        -11    1    3    3    0    0  0.94891174746E+01  0.29367448159E+02  0.23605148767E+02  0.38854773325E+02  0.00000000000E+00 0.  1.
         11    1    3    3    0    0 -0.68879599903E+02 -0.20825369464E+02  0.15443549804E+03  0.17037728238E+03  0.00000000000E+00 0. -1.
        -13    1    4    4    0    0  0.18750597920E+02 -0.15655777410E+02  0.45510368554E+02  0.51651543390E+02  0.00000000000E+00 0.  1.
         13    1    4    4    0    0 -0.57254291462E+02  0.39237314846E+02  0.15882028708E+03  0.17332485210E+03  0.00000000000E+00 0. -1.
         21    1    1    2  502  501  0.97894175971E+02 -0.32123616131E+02  0.22687159151E+03  0.24917045459E+03  0.00000000000E+00 0.  1.
<scales pt_clust_5="13000.00000" pt_clust_6="13000.00000" pt_clust_7="13000.00000" pt_clust_8="13000.00000" pt_clust_9="79.01123"></scales>
<clustering>
<clus scale="   82.612">  7  8 -1 -1</clus>
<clus scale="   92.084">  5  6 -1 -1</clus>
<clus scale="   94.145">  1  7  2 -1</clus>
<clus scale="   79.011">  1  9  2 -1</clus>
<clus scale="   94.145">  1  5  2 -1</clus>
</clustering>
</event>
<event>
 9    1  0.2423659E-006  0.1925943E+03  0.7546771E-02  0.1172596E+00
         -1   -1    0    0    0  501 -0.00000000000E+00  0.00000000000E+00  0.53005769022E+03  0.53005769022E+03  0.00000000000E+00 0.  1.
          1   -1    0    0  502    0  0.00000000000E+00 -0.00000000000E+00 -0.23792528770E+03  0.23792528770E+03  0.00000000000E+00 0. -1.
         23    2    1    2    0    0  0.10294603096E+03 -0.10889796079E+02  0.63144216668E+01  0.14063270571E+03  0.94980066561E+02 0.  0.
         23    2    1    2    0    0  0.69953121027E+02 -0.64595922951E+02 -0.12104752062E+03  0.17887313028E+03  0.90978140693E+02 0.  0.
        -11    1    3    3    0    0  0.39507316464E+02 -0.51591577382E+02 -0.17052658496E+00  0.64981135649E+02  0.00000000000E+00 0. -1.
         11    1    3    3    0    0  0.63438714498E+02  0.40701781303E+02  0.64849482518E+01  0.75651570058E+02  0.00000000000E+00 0.  1.
        -13    1    4    4    0    0 -0.66636676119E+01 -0.29842045912E+02  0.10524843209E+01  0.30595095906E+02  0.00000000000E+00 0.  1.
         13    1    4    4    0    0  0.76616788639E+02 -0.34753877040E+02 -0.12210000494E+03  0.14827803437E+03  0.00000000000E+00 0. -1.
         21    1    1    2  502  501 -0.17289915199E+03  0.75485719030E+02  0.40686550148E+03  0.44847714193E+03  0.00000000000E+00 0.  1.
<scales pt_clust_5="13000.00000" pt_clust_6="13000.00000" pt_clust_7="13000.00000" pt_clust_8="13000.00000" pt_clust_9="167.54506"></scales>
<clustering>
<clus scale="   90.978">  7  8 -1 -1</clus>
<clus scale="   94.980">  5  6 -1 -1</clus>
<clus scale="  131.693">  2  7  1 -1</clus>
<clus scale="  167.545">  1  9  2 -1</clus>
<clus scale="  131.693">  2  5  1 -1</clus>
</clustering>
</event>
<event>
 9    1  0.2423659E-006  0.1105044E+03  0.7546771E-02  0.1260384E+00
         -2   -1    0    0    0  501 -0.00000000000E+00  0.00000000000E+00  0.20687663586E+03  0.20687663586E+03  0.00000000000E+00 0.  1.
          2   -1    0    0  502    0  0.00000000000E+00 -0.00000000000E+00 -0.25591982323E+03  0.25591982323E+03  0.00000000000E+00 0. -1.
         23    2    1    2    0    0 -0.45329118633E+02  0.44486166807E+02  0.14810590960E+03  0.18493364602E+03  0.90726759777E+02 0.  0.
         23    2    1    2    0    0 -0.63995933415E+01 -0.86080011594E+02 -0.15824437368E+03  0.20092462319E+03  0.88762037005E+02 0.  0.
        -11    1    3    3    0    0  0.15416717833E+02  0.13139260455E+02 -0.16409172642E+01  0.20322597361E+02  0.00000000000E+00 0. -1.
         11    1    3    3    0    0 -0.60745836466E+02  0.31346906352E+02  0.14974682686E+03  0.16461104866E+03  0.00000000000E+00 0.  1.
        -11    1    4    4    0    0 -0.46597656895E+02 -0.59353622574E+02 -0.10001205841E+03  0.12528609647E+03  0.00000000000E+00 0.  1.
         11    1    4    4    0    0  0.40198063554E+02 -0.26726389021E+02 -0.58232315268E+02  0.75638526724E+02  0.00000000000E+00 0. -1.
         21    1    1    2  502  501  0.51728711974E+02  0.41593844788E+02 -0.38904723286E+02  0.76938189872E+02  0.00000000000E+00 0. -1.
<scales pt_clust_5="13000.00000" pt_clust_6="13000.00000" pt_clust_7="13000.00000" pt_clust_8="13000.00000" pt_clust_9="66.37701"></scales>
<clustering>
<clus scale="   66.377">  2  9  1 -1</clus>
<clus scale="   88.762">  7  8 -1 -1</clus>
<clus scale="   90.727">  5  6 -1 -1</clus>
<clus scale="  108.897">  2  7  1 -1</clus>
<clus scale="   66.377">  2  5  1 -1</clus>
</clustering>
</event>
<event>
 9    1  0.2423659E-006  0.9908092E+02  0.7546771E-02  0.1282993E+00
          1   -1    0    0  502    0  0.00000000000E+00  0.00000000000E+00  0.45816803500E+03  0.45816803500E+03  0.00000000000E+00 0. -1.
         -1   -1    0    0    0  501 -0.00000000000E+00 -0.00000000000E+00 -0.54235158919E+02  0.54235158919E+02  0.00000000000E+00 0.  1.
         23    2    1    2    0    0  0.25885406787E+02  0.26900378707E+02  0.16119092449E+02  0.99802476523E+02  0.91142879698E+02 0.  0.
         23    2    1    2    0    0 -0.35793787428E+02 -0.37566417805E+01  0.36611016783E+03  0.37936135060E+03  0.92644869093E+02 0.  0.
        -13    1    4    4    0    0 -0.55176807976E+01  0.39292469057E+02  0.91180038177E+02  0.99439138612E+02  0.00000000000E+00 0. -1.
         13    1    4    4    0    0 -0.30276106630E+02 -0.43049110837E+02  0.27493012965E+03  0.27992221199E+03  0.00000000000E+00 0.  1.
        -13    1    3    3    0    0  0.48474388446E+02  0.29953195625E+01 -0.18573988040E+02  0.51997416342E+02  0.00000000000E+00 0. -1.
         13    1    3    3    0    0 -0.22588981660E+02  0.23905059145E+02  0.34693080489E+02  0.47805060181E+02  0.00000000000E+00 0.  1.
         21    1    1    2  502  501  0.99083806409E+01 -0.23143736927E+02  0.21703615808E+02  0.33239366796E+02  0.00000000000E+00 0.  1.
<scales pt_clust_5="13000.00000" pt_clust_6="13000.00000" pt_clust_7="13000.00000" pt_clust_8="13000.00000" pt_clust_9="25.17555"></scales>
<clustering>
<clus scale="   25.176">  2  9  1 -1</clus>
<clus scale="   91.143">  7  8 -1 -1</clus>
<clus scale="   92.645">  5  6 -1 -1</clus>
<clus scale="   97.678">  2  7  1 -1</clus>
<clus scale="   99.081">  1  5  2 -1</clus>
</clustering>
</event>
<event>
 9    1  0.2423659E-006  0.1652710E+03  0.7546771E-02  0.1183264E+00
         -1   -1    0    0    0  501 -0.00000000000E+00  0.00000000000E+00  0.39192506156E+03  0.39192506156E+03  0.00000000000E+00 0.  1.
          1   -1    0    0  502    0  0.00000000000E+00 -0.00000000000E+00 -0.17391716786E+03  0.17391716786E+03  0.00000000000E+00 0. -1.
         23    2    1    2    0    0  0.17075981523E+01  0.12549856700E+03  0.21225477251E+03  0.26242222914E+03  0.89780463835E+02 0.  0.
         23    2    1    2    0    0 -0.57073266626E+02 -0.18780147257E+03 -0.15219741856E+02  0.21747309649E+03  0.92391321516E+02 0.  0.
        -11    1    4    4    0    0 -0.56419540078E+01 -0.15677005105E+03 -0.10772069863E+02  0.15724095536E+03  0.00000000000E+00 0. -1.
         11    1    4    4    0    0 -0.51431312619E+02 -0.31031421512E+02 -0.44476719930E+01  0.60232141128E+02  0.00000000000E+00 0.  1.
        -11    1    3    3    0    0  0.10096634846E+02  0.89694139504E+02  0.20628376860E+03  0.22516654699E+03  0.00000000000E+00 0.  1.
         11    1    3    3    0    0 -0.83890366934E+01  0.35804427496E+02  0.59710039076E+01  0.37255682153E+02  0.00000000000E+00 0. -1.
         21    1    1    2  502  501  0.55365668474E+02  0.62302905565E+02  0.20972863050E+02  0.85946903795E+02  0.00000000000E+00 0.  1.
<scales pt_clust_5="13000.00000" pt_clust_6="13000.00000" pt_clust_7="13000.00000" pt_clust_8="13000.00000" pt_clust_9="83.34872"></scales>
<clustering>
<clus scale="   83.349">  2  9  1 -1</clus>
<clus scale="   89.780">  7  8 -1 -1</clus>
<clus scale="   92.391">  5  6 -1 -1</clus>
<clus scale="  163.826">  1  7  2 -1</clus>
<clus scale="   83.349">  2  5  1 -1</clus>
</clustering>
</event>
<event>
 9    1  0.2423659E-006  0.1293182E+03  0.7546771E-02  0.1229249E+00
          1   -1    0    0  502    0  0.00000000000E+00  0.00000000000E+00  0.36345903872E+03  0.36345903872E+03  0.00000000000E+00 0. -1.
         -1   -1    0    0    0  501 -0.00000000000E+00 -0.00000000000E+00 -0.13875669980E+03  0.13875669980E+03  0.00000000000E+00 0.  1.
         23    2    1    2    0    0  0.32681744254E+02  0.14580602712E+03  0.53338410747E+02  0.18231015740E+03  0.89802636254E+02 0.  0.
         23    2    1    2    0    0  0.53396723043E+02 -0.63705364168E+02  0.15655442141E+03  0.20003338719E+03  0.92706448922E+02 0.  0.
        -11    1    4    4    0    0  0.44138359478E+02  0.53200065562E+01  0.24554601001E+02  0.50788046601E+02  0.00000000000E+00 0.  1.
         11    1    4    4    0    0  0.92583635652E+01 -0.69025370724E+02  0.13199982041E+03  0.14924534059E+03  0.00000000000E+00 0. -1.
        -13    1    3    3    0    0 -0.20080851925E+02  0.80222227640E+02  0.69417529987E-01  0.82697347239E+02  0.00000000000E+00 0.  1.
         13    1    3    3    0    0  0.52762596179E+02  0.65583799480E+02  0.53268993217E+02  0.99612810161E+02  0.00000000000E+00 0. -1.
         21    1    1    2  502  501 -0.86078467297E+02 -0.82100662952E+02  0.14809506768E+02  0.11987219394E+03  0.00000000000E+00 0.  1.
<scales pt_clust_5="13000.00000" pt_clust_6="13000.00000" pt_clust_7="13000.00000" pt_clust_8="13000.00000" pt_clust_9="118.95386"></scales>
<clustering>
<clus scale="   89.803">  7  8 -1 -1</clus>
<clus scale="   92.706">  5  6 -1 -1</clus>
<clus scale="  118.954">  2  9  1 -1</clus>
<clus scale="  127.253">  2  7  1 -1</clus>
<clus scale="  129.318">  1  5  2 -1</clus>
</clustering>
</event>
<event>
 9    1  0.2423659E-006  0.1315764E+03  0.7546771E-02  0.1225173E+00
          1   -1    0    0  502    0  0.00000000000E+00  0.00000000000E+00  0.47057891684E+03  0.47057891684E+03  0.00000000000E+00 0. -1.
         -1   -1    0    0    0  501 -0.00000000000E+00 -0.00000000000E+00 -0.85668205565E+02  0.85668205565E+02  0.00000000000E+00 0.  1.
         23    2    1    2    0    0  0.28036445928E+02 -0.74246416665E+02  0.84946257905E+02  0.14495329339E+03  0.86585321189E+02 0.  0.
         23    2    1    2    0    0  0.43927503328E+02  0.14862028231E+03  0.19869301845E+03  0.26649677996E+03  0.86741018461E+02 0.  0.
        -11    1    4    4    0    0  0.64211613834E+02  0.96034637784E+02  0.99764666490E+02  0.15263935169E+03  0.00000000000E+00 0.  1.
         11    1    4    4    0    0 -0.20284110506E+02  0.52585644529E+02  0.98928351960E+02  0.11385742826E+03  0.00000000000E+00 0. -1.
        -13    1    3    3    0    0  0.58664878551E+02 -0.37539686791E+02  0.50511973779E+02  0.86036361817E+02  0.00000000000E+00 0.  1.
         13    1    3    3    0    0 -0.30628432623E+02 -0.36706729874E+02  0.34434284126E+02  0.58916931575E+02  0.00000000000E+00 0. -1.
         21    1    1    2  502  501 -0.71963949256E+02 -0.74373865647E+02  0.10127143492E+03  0.14479704905E+03  0.00000000000E+00 0.  1.
<scales pt_clust_5="13000.00000" pt_clust_6="13000.00000" pt_clust_7="13000.00000" pt_clust_8="13000.00000" pt_clust_9="103.49049"></scales>
<clustering>
<clus scale="   86.585">  7  8 -1 -1</clus>
<clus scale="   86.741">  5  6 -1 -1</clus>
<clus scale="  103.490">  1  9  2 -1</clus>
<clus scale="  131.474">  2  7  1 -1</clus>
<clus scale="  103.490">  1  5  2 -1</clus>
</clustering>
</event>
<event>
 9    1  0.2423659E-006  0.1151702E+03  0.7546771E-02  0.1251425E+00
         -2   -1    0    0    0  501 -0.00000000000E+00  0.00000000000E+00  0.29005944717E+02  0.29005944717E+02  0.00000000000E+00 0.  1.
          2   -1    0    0  502    0  0.00000000000E+00 -0.00000000000E+00 -0.64914476650E+03  0.64914476650E+03  0.00000000000E+00 0. -1.
         23    2    1    2    0    0  0.53224346150E+02  0.40346142632E+02 -0.17279408016E+03  0.20644971268E+03  0.91121059471E+02 0.  0.
         23    2    1    2    0    0 -0.44302149120E+02 -0.66422375878E+02 -0.33860379270E+03  0.35952181369E+03  0.90712698419E+02 0.  0.
        -11    1    3    3    0    0  0.50738098732E+02  0.60204148921E+02 -0.82800393773E+02  0.11425760114E+03  0.00000000000E+00 0.  1.
         11    1    3    3    0    0  0.24862474182E+01 -0.19858006289E+02 -0.89993686385E+02  0.92192111535E+02  0.00000000000E+00 0. -1.
        -13    1    4    4    0    0 -0.21750456799E+02 -0.62824043573E+02 -0.32740504145E+03  0.33408682103E+03  0.00000000000E+00 0. -1.
         13    1    4    4    0    0 -0.22551692321E+02 -0.35983323052E+01 -0.11198751252E+02  0.25434992658E+02  0.00000000000E+00 0.  1.
         21    1    1    2  502  501 -0.89221970307E+01  0.26076233247E+02 -0.10874094892E+03  0.11217918485E+03  0.00000000000E+00 0.  1.
<scales pt_clust_5="13000.00000" pt_clust_6="13000.00000" pt_clust_7="13000.00000" pt_clust_8="13000.00000" pt_clust_9="27.56040"></scales>
<clustering>
<clus scale="   27.560">  2  9  1 -1</clus>
<clus scale="   90.713">  7  8 -1 -1</clus>
<clus scale="   91.121">  5  6 -1 -1</clus>
<clus scale="  114.847">  2  7  1 -1</clus>
<clus scale="   27.560">  2  5  1 -1</clus>
</clustering>
</event>
<event>
 9    1  0.2423659E-006  0.1602425E+03  0.7546771E-02  0.1189785E+00
         -2   -1    0    0    0  501 -0.00000000000E+00  0.00000000000E+00  0.63819573593E+02  0.63819573593E+02  0.00000000000E+00 0.  1.
          2   -1    0    0  502    0  0.00000000000E+00 -0.00000000000E+00 -0.81443366687E+03  0.81443366687E+03  0.00000000000E+00 0. -1.
         23    2    1    2    0    0 -0.75573023657E+02 -0.12371105351E+03 -0.11885124725E+03  0.21071825633E+03  0.96233351360E+02 0.  0.
         23    2    1    2    0    0  0.96521729510E+02  0.80578493564E+02 -0.56401172494E+03  0.58453209013E+03  0.88086324826E+02 0.  0.
        -13    1    4    4    0    0  0.67988182306E+02  0.96669589695E+02 -0.48061304981E+03  0.49493060741E+03  0.00000000000E+00 0.  1.
         13    1    4    4    0    0  0.28533547204E+02 -0.16091096130E+02 -0.83398675135E+02  0.89601482717E+02  0.00000000000E+00 0. -1.
        -13    1    3    3    0    0  0.21715680527E+02 -0.39846562469E+02 -0.26922215211E+02  0.52764808284E+02  0.00000000000E+00 0.  1.
         13    1    3    3    0    0 -0.97288704183E+02 -0.83864491042E+02 -0.91929032034E+02  0.15795344805E+03  0.00000000000E+00 0. -1.
         21    1    1    2  502  501 -0.20948705853E+02  0.43132559946E+02 -0.67751121088E+02  0.83002894004E+02  0.00000000000E+00 0. -1.
<scales pt_clust_5="13000.00000" pt_clust_6="13000.00000" pt_clust_7="13000.00000" pt_clust_8="13000.00000" pt_clust_9="47.95066"></scales>
<clustering>
<clus scale="   47.951">  1  9  2 -1</clus>
<clus scale="   88.086">  5  6 -1 -1</clus>
<clus scale="   96.233">  7  8 -1 -1</clus>
<clus scale="  155.486">  2  5  1 -1</clus>
<clus scale="  155.486">  2  5  1 -1</clus>
</clustering>
</event>
<event>
 9    1  0.2423659E-006  0.1438616E+03  0.7546771E-02  0.1229565E+00
         -2   -1    0    0    0  501 -0.00000000000E+00  0.00000000000E+00  0.64525514628E+02  0.64525514628E+02  0.00000000000E+00 0.  1.
          2   -1    0    0  502    0  0.00000000000E+00 -0.00000000000E+00 -0.13369790194E+04  0.13369790194E+04  0.00000000000E+00 0. -1.
         23    2    1    2    0    0 -0.17792311993E+02  0.81069644924E+01  0.84149706271E+01  0.92213465289E+02  0.89723030548E+02 0.  0.
         23    2    1    2    0    0  0.20196209800E+02  0.10311924256E+03 -0.46324148966E+03  0.48412991135E+03  0.93528756228E+02 0.  0.
        -13    1    4    4    0    0  0.20673271361E+01  0.89100665820E+02 -0.44759325818E+03  0.45638024416E+03  0.00000000000E+00 0.  1.
         13    1    4    4    0    0  0.18128882664E+02  0.14018576742E+02 -0.15648231479E+02  0.27749667187E+02  0.00000000000E+00 0. -1.
        -13    1    3    3    0    0 -0.21194495657E+01  0.41124595922E+02  0.28906687475E+02  0.50312235460E+02  0.00000000000E+00 0.  1.
         13    1    3    3    0    0 -0.15672862428E+02 -0.33017631430E+02 -0.20491716847E+02  0.41901229830E+02  0.00000000000E+00 0. -1.
         21    1    1    2  502  501 -0.24038978071E+01 -0.11122620705E+03 -0.81762698578E+03  0.82516115744E+03  0.00000000000E+00 0. -1.
<scales pt_clust_5="13000.00000" pt_clust_6="13000.00000" pt_clust_7="13000.00000" pt_clust_8="13000.00000" pt_clust_9="109.30938"></scales>
<clustering>
<clus scale="   89.723">  7  8 -1 -1</clus>
<clus scale="   91.829">  1  7  2 -1</clus>
<clus scale="   93.529">  5  6 -1 -1</clus>
<clus scale="  109.309">  2  9  1 -1</clus>
<clus scale="  109.309">  2  5  1 -1</clus>
</clustering>
</event>
<event>
 9    1  0.2423659E-006  0.1860360E+03  0.7546771E-02  0.1162702E+00
          1   -1    0    0  502    0  0.00000000000E+00  0.00000000000E+00  0.36250157916E+03  0.36250157916E+03  0.00000000000E+00 0. -1.
         -1   -1    0    0    0  501 -0.00000000000E+00 -0.00000000000E+00 -0.22464072019E+03  0.22464072019E+03  0.00000000000E+00 0.  1.
         23    2    1    2    0    0 -0.12923230133E+03  0.10213092944E+03 -0.14552150845E+03  0.23931125543E+03  0.94666008166E+02 0.  0.
         23    2    1    2    0    0  0.11067757422E+03 -0.73281432987E+02  0.26321533208E+03  0.30804058453E+03  0.89369999555E+02 0.  0.
        -11    1    4    4    0    0  0.10301430036E+03 -0.93046323783E+02  0.22732148769E+03  0.26635431894E+03  0.00000000000E+00 0. -1.
         11    1    4    4    0    0  0.76632738556E+01  0.19764890796E+02  0.35893844382E+02  0.41686265590E+02  0.00000000000E+00 0.  1.
        -11    1    3    3    0    0 -0.12978134399E+03  0.58416373899E+02 -0.13046836968E+03  0.19307424860E+03  0.00000000000E+00 0.  1.
         11    1    3    3    0    0  0.54904266459E+00  0.43714555538E+02 -0.15053138772E+02  0.46237006830E+02  0.00000000000E+00 0. -1.
         21    1    1    2  502  501  0.18554727110E+02 -0.28849496450E+02  0.20167035352E+02  0.39790459390E+02  0.00000000000E+00 0. -1.
<scales pt_clust_5="13000.00000" pt_clust_6="13000.00000" pt_clust_7="13000.00000" pt_clust_8="13000.00000" pt_clust_9="34.30119"></scales>
<clustering>
<clus scale="   34.301">  1  9  2 -1</clus>
<clus scale="   89.370">  5  6 -1 -1</clus>
<clus scale="   94.666">  7  8 -1 -1</clus>
<clus scale="  183.398">  1  5  2 -1</clus>
<clus scale="   34.301">  1  5  2 -1</clus>
</clustering>
</event>
<event>
 9    1  0.2423659E-006  0.1075375E+03  0.7546771E-02  0.1266387E+00
         -2   -1    0    0    0  501 -0.00000000000E+00  0.00000000000E+00  0.12161695925E+03  0.12161695925E+03  0.00000000000E+00 0.  1.
          2   -1    0    0  502    0  0.00000000000E+00 -0.00000000000E+00 -0.21877255843E+03  0.21877255843E+03  0.00000000000E+00 0. -1.
         23    2    1    2    0    0  0.88186328123E+02  0.23897244088E+02  0.16697732127E+02  0.12958303969E+03  0.90360628458E+02 0.  0.
         23    2    1    2    0    0 -0.13881310516E+01 -0.23795541133E+02 -0.59025097662E+02  0.10814162245E+03  0.87421357043E+02 0.  0.
        -11    1    3    3    0    0  0.41758112732E+01  0.21975247394E+02  0.36905338049E+02  0.43154986669E+02  0.00000000000E+00 0. -1.
         11    1    3    3    0    0  0.84010516850E+02  0.19219966936E+01 -0.20207605923E+02  0.86428053026E+02  0.00000000000E+00 0.  1.
        -13    1    4    4    0    0  0.42831008362E+02 -0.14781293963E+02 -0.32922673043E+02  0.56007895237E+02  0.00000000000E+00 0.  1.
         13    1    4    4    0    0 -0.44219139414E+02 -0.90142471697E+01 -0.26102424619E+02  0.52133727217E+02  0.00000000000E+00 0. -1.
         21    1    1    2  502  501 -0.86798197071E+02 -0.10170295489E+00 -0.54828233644E+02  0.10266485554E+03  0.00000000000E+00 0. -1.
<scales pt_clust_5="13000.00000" pt_clust_6="13000.00000" pt_clust_7="13000.00000" pt_clust_8="13000.00000" pt_clust_9="86.79826"></scales>
<clustering>
<clus scale="   86.798">  2  9  1 -1</clus>
<clus scale="   87.421">  7  8 -1 -1</clus>
<clus scale="   90.361">  5  6 -1 -1</clus>
<clus scale="  105.080">  2  7  1 -1</clus>
<clus scale="   86.798">  2  5  1 -1</clus>
</clustering>
</event>
<event>
 9    1  0.2423659E-006  0.9905094E+02  0.7546771E-02  0.1282377E+00
         -2   -1    0    0    0  501 -0.00000000000E+00  0.00000000000E+00  0.30054753687E+02  0.30054753687E+02  0.00000000000E+00 0.  1.
          2   -1    0    0  502    0  0.00000000000E+00 -0.00000000000E+00 -0.45910959914E+03  0.45910959914E+03  0.00000000000E+00 0. -1.
         23    2    1    2    0    0 -0.62847357063E+01 -0.48656282321E+02 -0.13461165429E+03  0.16987176857E+03  0.91264388317E+02 0.  0.
         23    2    1    2    0    0 -0.57094455280E+01  0.22717335163E+02 -0.21253245587E+03  0.23253972886E+03  0.91411189764E+02 0.  0.
        -11    1    3    3    0    0  0.10087005151E+02  0.25625793016E+02 -0.36872744193E+02  0.46022040426E+02  0.00000000000E+00 0. -1.
         11    1    3    3    0    0 -0.16371740857E+02 -0.74282075337E+02 -0.97738910094E+02  0.12384972814E+03  0.00000000000E+00 0.  1.
        -11    1    4    4    0    0 -0.92714632069E+01 -0.24648206856E+02 -0.17056275416E+02  0.31375319318E+02  0.00000000000E+00 0.  1.
         11    1    4    4    0    0  0.35620176789E+01  0.47365542019E+02 -0.19547618046E+03  0.20116440954E+03  0.00000000000E+00 0. -1.
         21    1    1    2  502  501  0.11994181234E+02  0.25938947159E+02 -0.81910735291E+02  0.86752855394E+02  0.00000000000E+00 0. -1.
<scales pt_clust_5="13000.00000" pt_clust_6="13000.00000" pt_clust_7="13000.00000" pt_clust_8="13000.00000" pt_clust_9="28.57778"></scales>
<clustering>
<clus scale="   28.578">  2  9  1 -1</clus>
<clus scale="   91.264">  5  6 -1 -1</clus>
<clus scale="   91.411">  7  8 -1 -1</clus>
<clus scale="   98.915">  1  5  2 -1</clus>
<clus scale="   28.578">  2  5  1 -1</clus>
</clustering>
</event>
<event>
 9    1  0.2423659E-006  0.1957698E+03  0.7546771E-02  0.1155401E+00
          1   -1    0    0  502    0  0.00000000000E+00  0.00000000000E+00  0.10128346571E+04  0.10128346571E+04  0.00000000000E+00 0. -1.
         -1   -1    0    0    0  501 -0.00000000000E+00 -0.00000000000E+00 -0.53760112412E+02  0.53760112412E+02  0.00000000000E+00 0.  1.
         23    2    1    2    0    0 -0.70771032354E+02  0.17594936085E+03  0.30531901790E+03  0.37528800024E+03  0.10795676832E+03 0.  0.
         23    2    1    2    0    0  0.59085776588E+02 -0.11747172489E+03  0.39961440712E+03  0.43026292657E+03  0.90242874832E+02 0.  0.
        -13    1    3    3    0    0 -0.43984534024E+02  0.10550380791E+03  0.85030034932E+02  0.14246332706E+03  0.00000000000E+00 0.  1.
         13    1    3    3    0    0 -0.26786498330E+02  0.70445552937E+02  0.22028898297E+03  0.23282467318E+03  0.00000000000E+00 0. -1.
        -13    1    4    4    0    0  0.11994473743E+02 -0.10766537515E+03  0.31258916461E+03  0.33082878690E+03  0.00000000000E+00 0. -1.
         13    1    4    4    0    0  0.47091302846E+02 -0.98063497423E+01  0.87025242511E+02  0.99434139675E+02  0.00000000000E+00 0.  1.
         21    1    1    2  502  501  0.11685255766E+02 -0.58477635958E+02  0.25414111963E+03  0.26104384267E+03  0.00000000000E+00 0.  1.
<scales pt_clust_5="13000.00000" pt_clust_6="13000.00000" pt_clust_7="13000.00000" pt_clust_8="13000.00000" pt_clust_9="59.63371"></scales>
<clustering>
<clus scale="   59.634">  1  9  2 -1</clus>
<clus scale="   90.243">  7  8 -1 -1</clus>
<clus scale="  107.957">  5  6 -1 -1</clus>
<clus scale="  186.588">  1  7  2 -1</clus>
<clus scale="   59.634">  1  5  2 -1</clus>
</clustering>
</event>
<event>
 9    1  0.2423659E-006  0.3595839E+03  0.7546771E-02  0.1080554E+00
          1   -1    0    0  502    0  0.00000000000E+00  0.00000000000E+00  0.12972827813E+04  0.12972827813E+04  0.00000000000E+00 0. -1.
         -1   -1    0    0    0  501 -0.00000000000E+00 -0.00000000000E+00 -0.20233614582E+03  0.20233614582E+03  0.00000000000E+00 0.  1.
         23    2    1    2    0    0 -0.17083093832E+03  0.52210805345E+01  0.19923734038E+02  0.19852076638E+03  0.99010455687E+02 0.  0.
         23    2    1    2    0    0  0.42246092494E+03  0.37933040638E+02  0.87579309681E+03  0.97725800977E+03  0.90041771198E+02 0.  0.
        -13    1    3    3    0    0 -0.53280295956E+02  0.32494191500E+02  0.42833081409E+02  0.75692372676E+02  0.00000000000E+00 0.  1.
         13    1    3    3    0    0 -0.11755064237E+03 -0.27273110966E+02 -0.22909347371E+02  0.12282839370E+03  0.00000000000E+00 0. -1.
        -13    1    4    4    0    0  0.10706540341E+03 -0.27270185458E+02  0.19489295981E+03  0.22403109027E+03  0.00000000000E+00 0.  1.
         13    1    4    4    0    0  0.31539552152E+03  0.65203226095E+02  0.68090013700E+03  0.75322691950E+03  0.00000000000E+00 0. -1.
         21    1    1    2  502  501 -0.25162998661E+03 -0.43154121172E+02  0.19922980464E+03  0.32384015099E+03  0.00000000000E+00 0.  1.
<scales pt_clust_5="13000.00000" pt_clust_6="13000.00000" pt_clust_7="13000.00000" pt_clust_8="13000.00000" pt_clust_9="348.12795"></scales>
<clustering>
<clus scale="   90.042">  7  8 -1 -1</clus>
<clus scale="   99.010">  5  6 -1 -1</clus>
<clus scale="  197.518">  2  5  1 -1</clus>
<clus scale="  348.128">  2  9  1 -1</clus>
<clus scale="  359.584">  1  5  2 -1</clus>
</clustering>
</event>
<event>
 9    1  0.2423659E-006  0.1283711E+03  0.7546771E-02  0.1231990E+00
         -2   -1    0    0    0  501 -0.00000000000E+00  0.00000000000E+00  0.47077516721E+02  0.47077516721E+02  0.00000000000E+00 0.  1.
          2   -1    0    0  502    0  0.00000000000E+00 -0.00000000000E+00 -0.58395205472E+03  0.58395205472E+03  0.00000000000E+00 0. -1.
         23    2    1    2    0    0 -0.77280228332E+02  0.53686791625E+02 -0.89233949032E+02  0.15648503668E+03  0.87580612920E+02 0.  0.
         23    2    1    2    0    0  0.41396996360E+02 -0.56080781381E+02 -0.29397178042E+03  0.31672362283E+03  0.95056195081E+02 0.  0.
        -11    1    3    3    0    0 -0.21018789461E+02  0.46420645982E+02 -0.25201260577E+00  0.50958114115E+02  0.00000000000E+00 0.  1.
         11    1    3    3    0    0 -0.56261438871E+02  0.72661456431E+01 -0.88981936426E+02  0.10552692257E+03  0.00000000000E+00 0. -1.
        -13    1    4    4    0    0  0.57387847004E+02 -0.16531860152E+01 -0.18735944736E+03  0.19595831322E+03  0.00000000000E+00 0.  1.
         13    1    4    4    0    0 -0.15990850643E+02 -0.54427595366E+02 -0.10661233307E+03  0.12076530960E+03  0.00000000000E+00 0. -1.
         21    1    1    2  502  501  0.35883231972E+02  0.23939897564E+01 -0.15366880854E+03  0.15782091193E+03  0.00000000000E+00 0.  1.
<scales pt_clust_5="13000.00000" pt_clust_6="13000.00000" pt_clust_7="13000.00000" pt_clust_8="13000.00000" pt_clust_9="35.96300"></scales>
<clustering>
<clus scale="   35.963">  2  9  1 -1</clus>
<clus scale="   87.581">  5  6 -1 -1</clus>
<clus scale="   95.056">  7  8 -1 -1</clus>
<clus scale="  122.938">  1  5  2 -1</clus>
<clus scale="   35.963">  2  5  1 -1</clus>
</clustering>
</event>
<event>
 9    1  0.2423659E-006  0.1605499E+03  0.7546771E-02  0.1188426E+00
         -2   -1    0    0    0  501 -0.00000000000E+00  0.00000000000E+00  0.74593107555E+02  0.74593107555E+02  0.00000000000E+00 0.  1.
          2   -1    0    0  502    0  0.00000000000E+00 -0.00000000000E+00 -0.69747083407E+03  0.69747083407E+03  0.00000000000E+00 0. -1.
         23    2    1    2    0    0  0.11283610382E+03 -0.27871171224E+02 -0.14982818782E+03  0.21073140064E+03  0.91926322885E+02 0.  0.
         23    2    1    2    0    0 -0.15094817624E+03 -0.17491416273E+02 -0.14625427174E+03  0.22920991165E+03  0.89752827498E+02 0.  0.
        -11    1    4    4    0    0 -0.60219594273E+02 -0.44644071644E+02 -0.33916525604E+02  0.82278936408E+02  0.00000000000E+00 0.  1.
         11    1    4    4    0    0 -0.90728581970E+02  0.27152655371E+02 -0.11233774613E+03  0.14693097524E+03  0.00000000000E+00 0. -1.
        -11    1    3    3    0    0  0.12477310501E+03 -0.94709587569E+01 -0.11740565597E+03  0.17158704744E+03  0.00000000000E+00 0. -1.
         11    1    3    3    0    0 -0.11937001189E+02 -0.18400212467E+02 -0.32422531851E+02  0.39144353205E+02  0.00000000000E+00 0.  1.
         21    1    1    2  502  501  0.38112072423E+02  0.45362587497E+02 -0.32679526696E+03  0.33212262933E+03  0.00000000000E+00 0. -1.
<scales pt_clust_5="13000.00000" pt_clust_6="13000.00000" pt_clust_7="13000.00000" pt_clust_8="13000.00000" pt_clust_9="59.24774"></scales>
<clustering>
<clus scale="   59.248">  2  9  1 -1</clus>
<clus scale="   89.753">  5  6 -1 -1</clus>
<clus scale="   91.926">  7  8 -1 -1</clus>
<clus scale="  159.315">  2  5  1 -1</clus>
<clus scale="   59.248">  2  5  1 -1</clus>
</clustering>
</event>
<event>
 9    1  0.2423659E-006  0.1661626E+03  0.7546771E-02  0.1182658E+00
          1   -1    0    0  502    0  0.00000000000E+00  0.00000000000E+00  0.33451490042E+03  0.33451490042E+03  0.00000000000E+00 0. -1.
         -1   -1    0    0    0  501 -0.00000000000E+00 -0.00000000000E+00 -0.51631846450E+03  0.51631846450E+03  0.00000000000E+00 0.  1.
         23    2    1    2    0    0  0.98180095830E+02  0.10778941478E+03 -0.33757791773E+03  0.37755908350E+03  0.85639487637E+02 0.  0.
         23    2    1    2    0    0  0.69419897074E+01 -0.15428366078E+03 -0.91075146111E+02  0.20097473439E+03  0.90799352539E+02 0.  0.
        -13    1    3    3    0    0  0.33892361966E+02 -0.81496772005E+01 -0.50654535473E+02  0.61489766645E+02  0.00000000000E+00 0. -1.
         13    1    3    3    0    0  0.64287733864E+02  0.11593909198E+03 -0.28692338225E+03  0.31606931686E+03  0.00000000000E+00 0.  1.
        -13    1    4    4    0    0  0.36460746729E+02 -0.11819663687E+03 -0.36018482650E+02  0.12882997365E+03  0.00000000000E+00 0. -1.
         13    1    4    4    0    0 -0.29518757021E+02 -0.36087023906E+02 -0.55056663462E+02  0.72144760739E+02  0.00000000000E+00 0.  1.
         21    1    1    2  502  501 -0.10512208554E+03  0.46494245996E+02  0.24684949976E+03  0.27229954702E+03  0.00000000000E+00 0. -1.
<scales pt_clust_5="13000.00000" pt_clust_6="13000.00000" pt_clust_7="13000.00000" pt_clust_8="13000.00000" pt_clust_9="114.94506"></scales>
<clustering>
<clus scale="   85.639">  5  6 -1 -1</clus>
<clus scale="   90.799">  7  8 -1 -1</clus>
<clus scale="  114.945">  1  9  2 -1</clus>
<clus scale="  163.400">  2  5  1 -1</clus>
<clus scale="  114.945">  1  5  2 -1</clus>
</clustering>
</event>
<event>
 9    1  0.2423659E-006  0.9214736E+02  0.7546771E-02  0.1297915E+00
          2   -1    0    0  502    0  0.00000000000E+00  0.00000000000E+00  0.47314452695E+03  0.47314452695E+03  0.00000000000E+00 0. -1.
         -2   -1    0    0    0  501 -0.00000000000E+00 -0.00000000000E+00 -0.28951774486E+02  0.28951774486E+02  0.00000000000E+00 0.  1.
         23    2    1    2    0    0 -0.10205914688E+02 -0.11544631171E+02  0.13524572458E+03  0.16342060433E+03  0.90429246917E+02 0.  0.
         23    2    1    2    0    0  0.28057651961E+02 -0.25250447156E+02  0.21027995404E+03  0.23186861039E+03  0.90114241368E+02 0.  0.
        -11    1    4    4    0    0 -0.25978997540E+02  0.15148058160E+02  0.58849521717E+02  0.66088109260E+02  0.00000000000E+00 0.  1.
         11    1    4    4    0    0  0.54036649501E+02 -0.40398505316E+02  0.15143043232E+03  0.16578050113E+03  0.00000000000E+00 0. -1.
        -13    1    3    3    0    0  0.34363701032E+01 -0.49477687684E+02  0.90462408805E+02  0.10316635898E+03  0.00000000000E+00 0.  1.
         13    1    3    3    0    0 -0.13642284791E+02  0.37933056514E+02  0.44783315779E+02  0.60254245352E+02  0.00000000000E+00 0. -1.
         21    1    1    2  502  501 -0.17851737273E+02  0.36795078327E+02  0.98667073841E+02  0.10680708672E+03  0.00000000000E+00 0.  1.
<scales pt_clust_5="13000.00000" pt_clust_6="13000.00000" pt_clust_7="13000.00000" pt_clust_8="13000.00000" pt_clust_9="40.89697"></scales>
<clustering>
<clus scale="   40.897">  1  9  2 -1</clus>
<clus scale="   90.114">  5  6 -1 -1</clus>
<clus scale="   90.429">  7  8 -1 -1</clus>
<clus scale="   91.838">  1  5  2 -1</clus>
<clus scale="   40.897">  1  5  2 -1</clus>
</clustering>
</event>
<event>
 9    1  0.2423659E-006  0.1181613E+03  0.7546771E-02  0.1247413E+00
          1   -1    0    0  502    0  0.00000000000E+00  0.00000000000E+00  0.49841378040E+03  0.49841378040E+03  0.00000000000E+00 0. -1.
         -1   -1    0    0    0  501 -0.00000000000E+00 -0.00000000000E+00 -0.57242455632E+02  0.57242455632E+02  0.00000000000E+00 0.  1.
         23    2    1    2    0    0 -0.30288668328E+01 -0.48680642019E+02  0.11738208723E+03  0.15476058613E+03  0.88279701382E+02 0.  0.
         23    2    1    2    0    0  0.83777825811E+02  0.72040216795E+02  0.25288824403E+03  0.29092740453E+03  0.92074827201E+02 0.  0.
        -11    1    3    3    0    0 -0.44610332342E+02 -0.33737476436E+02  0.74778338138E+02  0.93381469911E+02  0.00000000000E+00 0.  1.
         11    1    3    3    0    0  0.41581465510E+02 -0.14943165583E+02  0.42603749090E+02  0.61379116221E+02  0.00000000000E+00 0. -1.
        -13    1    4    4    0    0  0.65913297724E+02  0.84879968776E+02  0.24503877521E+03  0.26756900656E+03  0.00000000000E+00 0. -1.
         13    1    4    4    0    0  0.17864528088E+02 -0.12839751982E+02  0.78494688165E+01  0.23358397964E+02  0.00000000000E+00 0.  1.
         21    1    1    2  502  501 -0.80748958978E+02 -0.23359574775E+02  0.70900993515E+02  0.10996824538E+03  0.00000000000E+00 0.  1.
<scales pt_clust_5="13000.00000" pt_clust_6="13000.00000" pt_clust_7="13000.00000" pt_clust_8="13000.00000" pt_clust_9="84.05988"></scales>
<clustering>
<clus scale="   84.060">  2  9  1 -1</clus>
<clus scale="   88.280">  5  6 -1 -1</clus>
<clus scale="   92.075">  7  8 -1 -1</clus>
<clus scale="  115.229">  2  5  1 -1</clus>
<clus scale="  118.161">  1  5  2 -1</clus>
</clustering>
</event>
<event>
 9    1  0.2423659E-006  0.1003685E+03  0.7546771E-02  0.1284144E+00
          1   -1    0    0  502    0  0.00000000000E+00  0.00000000000E+00  0.26590745478E+03  0.26590745478E+03  0.00000000000E+00 0. -1.
         -1   -1    0    0    0  501 -0.00000000000E+00 -0.00000000000E+00 -0.61648405444E+02  0.61648405444E+02  0.00000000000E+00 0.  1.
         23    2    1    2    0    0  0.25137477258E+02 -0.47167298139E+02  0.26419445984E+02  0.10224162741E+03  0.83058512340E+02 0.  0.
         23    2    1    2    0    0 -0.25615208272E+00  0.16016427922E+02  0.95210259125E+02  0.13356966576E+03  0.92299894856E+02 0.  0.
        -11    1    3    3    0    0  0.66800675742E+01 -0.26294058687E+02 -0.29307787777E+02  0.39936790676E+02  0.00000000000E+00 0.  1.
         11    1    3    3    0    0  0.18457409684E+02 -0.20873239451E+02  0.55727233761E+02  0.62304836731E+02  0.00000000000E+00 0. -1.
        -13    1    4    4    0    0 -0.31205819483E+02 -0.14054073493E+02  0.81333761554E+02  0.88241152077E+02  0.00000000000E+00 0.  1.
         13    1    4    4    0    0  0.30949667400E+02  0.30070501416E+02  0.13876497571E+02  0.45328513680E+02  0.00000000000E+00 0. -1.
         21    1    1    2  502  501 -0.24881325176E+02  0.31150870216E+02  0.82629344222E+02  0.91744567056E+02  0.00000000000E+00 0. -1.
<scales pt_clust_5="13000.00000" pt_clust_6="13000.00000" pt_clust_7="13000.00000" pt_clust_8="13000.00000" pt_clust_9="39.86800"></scales>
<clustering>
<clus scale="   39.868">  1  9  2 -1</clus>
<clus scale="   83.059">  5  6 -1 -1</clus>
<clus scale="   91.942">  2  5  1 -1</clus>
<clus scale="   92.300">  7  8 -1 -1</clus>
<clus scale="   39.868">  1  5  2 -1</clus>
</clustering>
</event>
<event>
 9    1  0.2423659E-006  0.9168353E+02  0.7546771E-02  0.1299443E+00
         -1   -1    0    0    0  501 -0.00000000000E+00  0.00000000000E+00  0.67805961175E+03  0.67805961175E+03  0.00000000000E+00 0.  1.
          1   -1    0    0  502    0  0.00000000000E+00 -0.00000000000E+00 -0.32407172352E+02  0.32407172352E+02  0.00000000000E+00 0. -1.
         23    2    1    2    0    0 -0.81725523403E+01  0.42377869949E+02  0.30982526661E+03  0.32586320469E+03  0.91282297684E+02 0.  0.
         23    2    1    2    0    0 -0.14427141674E+02  0.40690978935E+02  0.20316137348E+03  0.22645366910E+03  0.90237588570E+02 0.  0.
        -13    1    4    4    0    0  0.35330874694E+02  0.32140331789E+02  0.12014120950E+03  0.12928720684E+03  0.00000000000E+00 0. -1.
         13    1    4    4    0    0 -0.49758016368E+02  0.85506471460E+01  0.83020163978E+02  0.97166462251E+02  0.00000000000E+00 0.  1.
        -13    1    3    3    0    0  0.21495914255E+02  0.54196746354E+02  0.12050984551E+03  0.13387301636E+03  0.00000000000E+00 0. -1.
         13    1    3    3    0    0 -0.29668466595E+02 -0.11818876405E+02  0.18931542110E+03  0.19199018833E+03  0.00000000000E+00 0.  1.
         21    1    1    2  502  501  0.22599694014E+02 -0.83068848884E+02  0.13266579931E+03  0.15814991031E+03  0.00000000000E+00 0.  1.
<scales pt_clust_5="13000.00000" pt_clust_6="13000.00000" pt_clust_7="13000.00000" pt_clust_8="13000.00000" pt_clust_9="86.08821"></scales>
<clustering>
<clus scale="   86.088">  2  9  1 -1</clus>
<clus scale="   90.238">  5  6 -1 -1</clus>
<clus scale="   90.643">  2  5  1 -1</clus>
<clus scale="   91.282">  7  8 -1 -1</clus>
<clus scale="   86.088">  2  5  1 -1</clus>
</clustering>
</event>
<event>
 9    1  0.2423659E-006  0.2103848E+03  0.7546771E-02  0.1141488E+00
          1   -1    0    0  502    0  0.00000000000E+00  0.00000000000E+00  0.10353100850E+03  0.10353100850E+03  0.00000000000E+00 0. -1.
         -1   -1    0    0    0  501 -0.00000000000E+00 -0.00000000000E+00 -0.91573017461E+03  0.91573017461E+03  0.00000000000E+00 0.  1.
         23    2    1    2    0    0  0.82406421621E+02 -0.18999368211E+03 -0.54870861366E+03  0.59329547935E+03  0.89610075003E+02 0.  0.
         23    2    1    2    0    0 -0.11058281202E+02  0.17400795995E+03 -0.28899837119E+03  0.34852702305E+03  0.86890572169E+02 0.  0.
        -11    1    3    3    0    0  0.10989893570E+02 -0.68858946021E+02 -0.92069836571E+02  0.11549539824E+03  0.00000000000E+00 0.  1.
         11    1    3    3    0    0  0.71416528051E+02 -0.12113473609E+03 -0.45663877709E+03  0.47780008111E+03  0.00000000000E+00 0. -1.
        -13    1    4    4    0    0 -0.36981692621E+02  0.40064785177E+02 -0.53639433973E+02  0.76485433106E+02  0.00000000000E+00 0. -1.
         13    1    4    4    0    0  0.25923411420E+02  0.13394317478E+03 -0.23535893722E+03  0.27204158994E+03  0.00000000000E+00 0.  1.
         21    1    1    2  502  501 -0.71348140419E+02  0.15985722157E+02  0.25507818735E+02  0.77438680714E+02  0.00000000000E+00 0. -1.
<scales pt_clust_5="13000.00000" pt_clust_6="13000.00000" pt_clust_7="13000.00000" pt_clust_8="13000.00000" pt_clust_9="73.11703"></scales>
<clustering>
<clus scale="   73.117">  1  9  2 -1</clus>
<clus scale="   86.891">  7  8 -1 -1</clus>
<clus scale="   89.610">  5  6 -1 -1</clus>
<clus scale="  209.241">  1  7  2 -1</clus>
<clus scale="   73.117">  1  5  2 -1</clus>
</clustering>
</event>
<event>
 9    1  0.2423659E-006  0.1472518E+03  0.7546771E-02  0.1220912E+00
         -1   -1    0    0    0  501 -0.00000000000E+00  0.00000000000E+00  0.49704214962E+02  0.49704214962E+02  0.00000000000E+00 0.  1.
          1   -1    0    0  502    0  0.00000000000E+00 -0.00000000000E+00 -0.98547948979E+03  0.98547948979E+03  0.00000000000E+00 0. -1.
         23    2    1    2    0    0  0.42548510259E+01  0.56550884231E+02 -0.10267760680E+03  0.14510314274E+03  0.85417356733E+02 0.  0.
         23    2    1    2    0    0 -0.62569605435E+02  0.54477302127E+02 -0.14242460731E+03  0.18811393492E+03  0.90660640697E+02 0.  0.
        -11    1    3    3    0    0  0.34995723380E+02  0.11939439474E+02 -0.10937542517E+02  0.38560092144E+02  0.00000000000E+00 0. -1.
         11    1    3    3    0    0 -0.30740872354E+02  0.44611444757E+02 -0.91740064285E+02  0.10654305060E+03  0.00000000000E+00 0.  1.
        -13    1    4    4    0    0 -0.73476029172E+02  0.12729811337E+02 -0.62553987113E+02  0.97333325553E+02  0.00000000000E+00 0.  1.
         13    1    4    4    0    0  0.10906423736E+02  0.41747490791E+02 -0.79870620195E+02  0.90780609363E+02  0.00000000000E+00 0. -1.
         21    1    1    2  502  501  0.58314754409E+02 -0.11102818636E+03 -0.69067306072E+03  0.70196662709E+03  0.00000000000E+00 0. -1.
<scales pt_clust_5="13000.00000" pt_clust_6="13000.00000" pt_clust_7="13000.00000" pt_clust_8="13000.00000" pt_clust_9="116.03341"></scales>
<clustering>
<clus scale="   85.417">  5  6 -1 -1</clus>
<clus scale="   90.661">  7  8 -1 -1</clus>
<clus scale="  102.529">  1  5  2 -1</clus>
<clus scale="  116.033">  2  9  1 -1</clus>
<clus scale="  116.033">  2  5  1 -1</clus>
</clustering>
</event>
<event>
 9    1  0.2423659E-006  0.1065680E+03  0.7546771E-02  0.1267118E+00
          1   -1    0    0  502    0  0.00000000000E+00  0.00000000000E+00  0.38076246308E+03  0.38076246308E+03  0.00000000000E+00 0. -1.
         -1   -1    0    0    0  501 -0.00000000000E+00 -0.00000000000E+00 -0.14710355451E+03  0.14710355451E+03  0.00000000000E+00 0.  1.
         23    2    1    2    0    0 -0.44001668454E+02  0.54828118593E+02 -0.96906428239E+02  0.15000164608E+03  0.90373494884E+02 0.  0.
         23    2    1    2    0    0  0.19994132085E+01 -0.56374648528E+02  0.31591008864E+03  0.33335192944E+03  0.90234284520E+02 0.  0.
        -11    1    3    3    0    0 -0.37455636987E+02  0.73940732565E+01  0.39233915285E+01  0.38379552661E+02  0.00000000000E+00 0. -1.
         11    1    3    3    0    0 -0.65460314677E+01  0.47434045337E+02 -0.10082981977E+03  0.11162209342E+03  0.00000000000E+00 0.  1.
        -13    1    4    4    0    0  0.38351853518E+02 -0.47933972179E+02  0.13042772162E+03  0.14415242254E+03  0.00000000000E+00 0. -1.
         13    1    4    4    0    0 -0.36352440309E+02 -0.84406763495E+01  0.18548236702E+03  0.18919950690E+03  0.00000000000E+00 0.  1.
         21    1    1    2  502  501  0.42002255246E+02  0.15465299351E+01  0.14655248169E+02  0.44512442075E+02  0.00000000000E+00 0. -1.
<scales pt_clust_5="13000.00000" pt_clust_6="13000.00000" pt_clust_7="13000.00000" pt_clust_8="13000.00000" pt_clust_9="42.03072"></scales>
<clustering>
<clus scale="   42.031">  2  9  1 -1</clus>
<clus scale="   90.234">  7  8 -1 -1</clus>
<clus scale="   90.373">  5  6 -1 -1</clus>
<clus scale="  106.450">  1  7  2 -1</clus>
<clus scale="  106.450">  1  5  2 -1</clus>
</clustering>
</event>
<event>
 9    1  0.2423659E-006  0.9565641E+02  0.7546771E-02  0.1301815E+00
          1   -1    0    0  502    0  0.00000000000E+00  0.00000000000E+00  0.10225278652E+03  0.10225278652E+03  0.00000000000E+00 0. -1.
         -1   -1    0    0    0  501 -0.00000000000E+00 -0.00000000000E+00 -0.13616427589E+03  0.13616427589E+03  0.00000000000E+00 0.  1.
         23    2    1    2    0    0 -0.28417905777E+02 -0.35136914367E+02 -0.44419006875E+02  0.11110038076E+03  0.91258239697E+02 0.  0.
         23    2    1    2    0    0  0.28559511099E+02 -0.85148949104E+01  0.25823912482E+02  0.81055548290E+02  0.70816511798E+02 0.  0.
        -13    1    3    3    0    0 -0.65887645907E+01 -0.57424372490E+02 -0.53341223716E+02  0.78652759151E+02  0.00000000000E+00 0.  1.
         13    1    3    3    0    0 -0.21829141186E+02  0.22287458122E+02  0.89222168411E+01  0.32447621605E+02  0.00000000000E+00 0. -1.
        -13    1    4    4    0    0  0.22409985606E+02 -0.38682195361E+02  0.22619566967E+02  0.50101541918E+02  0.00000000000E+00 0. -1.
         13    1    4    4    0    0  0.61495254925E+01  0.30167300451E+02  0.32043455155E+01  0.30954006372E+02  0.00000000000E+00 0.  1.
         21    1    1    2  502  501 -0.14160532195E+00  0.43651809278E+02 -0.15316394974E+02  0.46261133366E+02  0.00000000000E+00 0. -1.
<scales pt_clust_5="13000.00000" pt_clust_6="13000.00000" pt_clust_7="13000.00000" pt_clust_8="13000.00000" pt_clust_9="43.65204"></scales>
<clustering>
<clus scale="   43.652">  2  9  1 -1</clus>
<clus scale="   70.817">  7  8 -1 -1</clus>
<clus scale="   76.401">  1  7  2 -1</clus>
<clus scale="   91.258">  5  6 -1 -1</clus>
<clus scale="   76.401">  1  5  2 -1</clus>
</clustering>
</event>
<event>
 9    1  0.2423659E-006  0.1053193E+03  0.7546771E-02  0.1269864E+00
         -2   -1    0    0    0  501 -0.00000000000E+00  0.00000000000E+00  0.12241746980E+03  0.12241746980E+03  0.00000000000E+00 0.  1.
          2   -1    0    0  502    0  0.00000000000E+00 -0.00000000000E+00 -0.19938738573E+03  0.19938738573E+03  0.00000000000E+00 0. -1.
         23    2    1    2    0    0  0.48811546971E+02  0.32907856523E+02 -0.62797543159E+01  0.10850224932E+03  0.90927491191E+02 0.  0.
         23    2    1    2    0    0  0.23974775901E+02 -0.69014106709E+02 -0.24534634473E+02  0.11985827633E+03  0.91794996119E+02 0.  0.
        -11    1    3    3    0    0  0.62534650220E+02  0.50049803368E+02 -0.20069085471E+02  0.82573200780E+02  0.00000000000E+00 0.  1.
         11    1    3    3    0    0 -0.13723103249E+02 -0.17141946845E+02  0.13789331155E+02  0.25929048539E+02  0.00000000000E+00 0. -1.
        -11    1    4    4    0    0  0.57473624884E+02 -0.27167535416E+02 -0.16285456063E+02  0.65623994217E+02  0.00000000000E+00 0.  1.
         11    1    4    4    0    0 -0.33498848983E+02 -0.41846571293E+02 -0.82491784098E+01  0.54234282116E+02  0.00000000000E+00 0. -1.
         21    1    1    2  502  501 -0.72786322872E+02  0.36106250186E+02 -0.46155527144E+02  0.93444329875E+02  0.00000000000E+00 0. -1.
<scales pt_clust_5="13000.00000" pt_clust_6="13000.00000" pt_clust_7="13000.00000" pt_clust_8="13000.00000" pt_clust_9="81.24968"></scales>
<clustering>
<clus scale="   81.250">  2  9  1 -1</clus>
<clus scale="   90.927">  5  6 -1 -1</clus>
<clus scale="   91.795">  7  8 -1 -1</clus>
<clus scale="  104.564">  1  5  2 -1</clus>
<clus scale="   81.250">  2  5  1 -1</clus>
</clustering>
</event>
<event>
 9    1  0.2423659E-006  0.1291611E+03  0.7546771E-02  0.1240672E+00
         -1   -1    0    0    0  501 -0.00000000000E+00  0.00000000000E+00  0.51998811005E+02  0.51998811005E+02  0.00000000000E+00 0.  1.
          1   -1    0    0  502    0  0.00000000000E+00 -0.00000000000E+00 -0.45255337988E+03  0.45255337988E+03  0.00000000000E+00 0. -1.
         23    2    1    2    0    0 -0.26537495878E+02  0.48086773837E+01 -0.15956499407E+03  0.20293869868E+03  0.12245720078E+03 0.  0.
         23    2    1    2    0    0  0.37318757522E+02 -0.32346053454E+02 -0.24970852657E+03  0.27078229367E+03  0.92356621226E+02 0.  0.
        -11    1    3    3    0    0 -0.55951791275E+02  0.43431796059E+02 -0.12383130188E+03  0.14265733483E+03  0.00000000000E+00 0.  1.
         11    1    3    3    0    0  0.29414295397E+02 -0.38623118675E+02 -0.35733692189E+02  0.60281363848E+02  0.00000000000E+00 0. -1.
        -13    1    4    4    0    0 -0.23658817602E+02 -0.33492187455E+02 -0.71466669558E+02  0.82395091653E+02  0.00000000000E+00 0.  1.
         13    1    4    4    0    0  0.60977575124E+02  0.11461340013E+01 -0.17824185701E+03  0.18838720202E+03  0.00000000000E+00 0. -1.
         21    1    1    2  502  501 -0.10781261644E+02  0.27537376070E+02  0.87189517646E+01  0.30831198539E+02  0.00000000000E+00 0.  1.
<scales pt_clust_5="13000.00000" pt_clust_6="13000.00000" pt_clust_7="13000.00000" pt_clust_8="13000.00000" pt_clust_9="29.57267"></scales>
<clustering>
<clus scale="   29.573">  1  9  2 -1</clus>
<clus scale="   92.357">  7  8 -1 -1</clus>
<clus scale="  101.077">  2  7  1 -1</clus>
<clus scale="  122.457">  5  6 -1 -1</clus>
<clus scale="  101.077">  2  5  1 -1</clus>
</clustering>
</event>
<event>
 9    1  0.2423659E-006  0.1109218E+03  0.7546771E-02  0.1263725E+00
          3   -1    0    0  502    0  0.00000000000E+00  0.00000000000E+00  0.32497359109E+03  0.32497359109E+03  0.00000000000E+00 0. -1.
         -3   -1    0    0    0  501 -0.00000000000E+00 -0.00000000000E+00 -0.73744270038E+02  0.73744270038E+02  0.00000000000E+00 0.  1.
         23    2    1    2    0    0 -0.10341399248E+02  0.25229704908E+02  0.67742609425E+02  0.11688105394E+03  0.91261366907E+02 0.  0.
         23    2    1    2    0    0  0.66235685348E+02 -0.63636696153E+02  0.17606209932E+03  0.21361369481E+03  0.78715644460E+02 0.  0.
        -13    1    4    4    0    0  0.42376974868E+02 -0.37043131596E+02  0.31083249951E+02  0.64297511810E+02  0.00000000000E+00 0.  1.
         13    1    4    4    0    0  0.23858710479E+02 -0.26593564557E+02  0.14497884937E+03  0.14931618300E+03  0.00000000000E+00 0. -1.
        -13    1    3    3    0    0  0.35013882731E+02  0.25165224575E+02  0.11494600772E+02  0.44624952199E+02  0.00000000000E+00 0.  1.
         13    1    3    3    0    0 -0.45355281980E+02  0.64480333750E-01  0.56248008653E+02  0.72256101739E+02  0.00000000000E+00 0. -1.
         21    1    1    2  502  501 -0.55894286100E+02  0.38406991245E+02  0.74246123079E+01  0.68223112381E+02  0.00000000000E+00 0.  1.
<scales pt_clust_5="13000.00000" pt_clust_6="13000.00000" pt_clust_7="13000.00000" pt_clust_8="13000.00000" pt_clust_9="67.81790"></scales>
<clustering>
<clus scale="   67.818">  2  9  1 -1</clus>
<clus scale="   78.716">  5  6 -1 -1</clus>
<clus scale="   91.261">  7  8 -1 -1</clus>
<clus scale="  100.852">  1  5  2 -1</clus>
<clus scale="  100.852">  1  5  2 -1</clus>
</clustering>
</event>
<event>
 9    1  0.2423659E-006  0.1697353E+03  0.7546771E-02  0.1201776E+00
         -1   -1    0    0    0  501 -0.00000000000E+00  0.00000000000E+00  0.10235932554E+04  0.10235932554E+04  0.00000000000E+00 0.  1.
          1   -1    0    0  502    0  0.00000000000E+00 -0.00000000000E+00 -0.63574107460E+02  0.63574107460E+02  0.00000000000E+00 0. -1.
         23    2    1    2    0    0 -0.12497556617E+03  0.48694214233E+02  0.65574692560E+03  0.67541802377E+03  0.90528767592E+02 0.  0.
         23    2    1    2    0    0 -0.34975157603E+02  0.26556046310E+02  0.11028907665E+03  0.14930639946E+03  0.90555150309E+02 0.  0.
        -11    1    4    4    0    0 -0.49930804099E+02  0.50637391164E+02  0.88620099220E+02  0.11362549260E+03  0.00000000000E+00 0. -1.
         11    1    4    4    0    0  0.14955646496E+02 -0.24081344854E+02  0.21668977431E+02  0.35680906869E+02  0.00000000000E+00 0.  1.
        -13    1    3    3    0    0 -0.20223284105E+02  0.40309791540E+02  0.98289532480E+02  0.10814200252E+03  0.00000000000E+00 0. -1.
         13    1    3    3    0    0 -0.10475228206E+03  0.83844226923E+01  0.55745739312E+03  0.56727602125E+03  0.00000000000E+00 0.  1.
         21    1    1    2  502  501  0.15995072377E+03 -0.75250260542E+02  0.19398314567E+03  0.26244293961E+03  0.00000000000E+00 0. -1.
<scales pt_clust_5="13000.00000" pt_clust_6="13000.00000" pt_clust_7="13000.00000" pt_clust_8="13000.00000" pt_clust_9="143.57791"></scales>
<clustering>
<clus scale="   90.529">  7  8 -1 -1</clus>
<clus scale="   90.555">  5  6 -1 -1</clus>
<clus scale="  100.642">  2  5  1 -1</clus>
<clus scale="  143.578">  2  9  1 -1</clus>
<clus scale="  100.642">  2  5  1 -1</clus>
</clustering>
</event>
<event>
 9    1  0.2423659E-006  0.1015011E+03  0.7546771E-02  0.1280933E+00
          2   -1    0    0  502    0  0.00000000000E+00  0.00000000000E+00  0.78388844294E+02  0.78388844294E+02  0.00000000000E+00 0. -1.
         -2   -1    0    0    0  501 -0.00000000000E+00 -0.00000000000E+00 -0.70346869641E+03  0.70346869641E+03  0.00000000000E+00 0.  1.
         23    2    1    2    0    0 -0.68725344601E+02  0.29335955943E+01 -0.43264459365E+03  0.44840043542E+03  0.95654728598E+02 0.  0.
         23    2    1    2    0    0  0.86968333519E+01  0.34026286285E+02  0.30465704932E+02  0.99674525696E+02  0.88167050688E+02 0.  0.
        -11    1    3    3    0    0 -0.64067399270E+02 -0.28592958595E+02 -0.38324070985E+03  0.38960958743E+03  0.00000000000E+00 0.  1.
         11    1    3    3    0    0 -0.46579453311E+01  0.31526554189E+02 -0.49403883796E+02  0.58790847994E+02  0.00000000000E+00 0. -1.
        -13    1    4    4    0    0  0.15077572813E+02 -0.25174358985E+02  0.27247949083E+02  0.40044129176E+02  0.00000000000E+00 0. -1.
         13    1    4    4    0    0 -0.63807394611E+01  0.59200645270E+02  0.32177558486E+01  0.59630396520E+02  0.00000000000E+00 0.  1.
         21    1    1    2  502  501  0.60028511250E+02 -0.36959881880E+02 -0.22290096340E+03  0.23378257958E+03  0.00000000000E+00 0. -1.
<scales pt_clust_5="13000.00000" pt_clust_6="13000.00000" pt_clust_7="13000.00000" pt_clust_8="13000.00000" pt_clust_9="70.49436"></scales>
<clustering>
<clus scale="   70.494">  2  9  1 -1</clus>
<clus scale="   88.167">  7  8 -1 -1</clus>
<clus scale="   94.478">  1  7  2 -1</clus>
<clus scale="   95.655">  5  6 -1 -1</clus>
<clus scale="   94.478">  1  5  2 -1</clus>
</clustering>
</event>
<event>
 9    1  0.2423659E-006  0.2574419E+03  0.7546771E-02  0.1111691E+00
         -2   -1    0    0    0  501 -0.00000000000E+00  0.00000000000E+00  0.77346699974E+03  0.77346699974E+03  0.00000000000E+00 0.  1.
          2   -1    0    0  502    0  0.00000000000E+00 -0.00000000000E+00 -0.46396653540E+03  0.46396653540E+03  0.00000000000E+00 0. -1.
         23    2    1    2    0    0 -0.75821126436E+02 -0.21112472336E+03 -0.45998032783E+01  0.24244771326E+03  0.91854468843E+02 0.  0.
         23    2    1    2    0    0  0.21586143385E+03 -0.92195684126E+01 -0.26695068460E+03  0.35797475157E+03  0.10100542406E+03 0.  0.
        -13    1    3    3    0    0 -0.81142063353E+02 -0.12152574831E+03  0.24345071527E+02  0.14813920634E+03  0.00000000000E+00 0.  1.
         13    1    3    3    0    0  0.53209369169E+01 -0.89598975052E+02 -0.28944874806E+02  0.94308506921E+02  0.00000000000E+00 0. -1.
        -13    1    4    4    0    0  0.17425603665E+03  0.33052026943E+02 -0.17982019949E+03  0.25257257756E+03  0.00000000000E+00 0. -1.
         13    1    4    4    0    0  0.41605397203E+02 -0.42271595355E+02 -0.87130485113E+02  0.10540217401E+03  0.00000000000E+00 0.  1.
         21    1    1    2  502  501 -0.14004030741E+03  0.22034429178E+03  0.58105095222E+03  0.63701107031E+03  0.00000000000E+00 0.  1.
<scales pt_clust_5="13000.00000" pt_clust_6="13000.00000" pt_clust_7="13000.00000" pt_clust_8="13000.00000" pt_clust_9="240.49759"></scales>
<clustering>
<clus scale="   91.854">  5  6 -1 -1</clus>
<clus scale="  101.005">  7  8 -1 -1</clus>
<clus scale="  238.502">  2  7  1 -1</clus>
<clus scale="  240.498">  1  9  2 -1</clus>
<clus scale="  238.502">  2  5  1 -1</clus>
</clustering>
</event>
<event>
 9    1  0.2423659E-006  0.1048107E+03  0.7546771E-02  0.1272202E+00
          2   -1    0    0  502    0  0.00000000000E+00  0.00000000000E+00  0.48469502456E+03  0.48469502456E+03  0.00000000000E+00 0. -1.
         -2   -1    0    0    0  501 -0.00000000000E+00 -0.00000000000E+00 -0.16037639696E+03  0.16037639696E+03  0.00000000000E+00 0.  1.
         23    2    1    2    0    0 -0.44103805087E+02  0.19539678665E+02 -0.10862094487E+03  0.15146840259E+03  0.93900067384E+02 0.  0.
         23    2    1    2    0    0 -0.20049147081E+02 -0.79585131433E+02  0.35780822734E+03  0.37799256659E+03  0.90088242297E+02 0.  0.
        -11    1    4    4    0    0 -0.19186064100E+02 -0.23673866988E+02  0.22058624889E+02  0.37618346134E+02  0.00000000000E+00 0.  1.
         11    1    4    4    0    0 -0.86308298048E+00 -0.55911264445E+02  0.33574960245E+03  0.34037422045E+03  0.00000000000E+00 0. -1.
        -11    1    3    3    0    0 -0.72644516283E+02  0.20584223545E+02 -0.89519041377E+02  0.11710932830E+03  0.00000000000E+00 0.  1.
         11    1    3    3    0    0  0.28540711196E+02 -0.10445448806E+01 -0.19101903493E+02  0.34359074298E+02  0.00000000000E+00 0. -1.
         21    1    1    2  502  501  0.64152952168E+02  0.60045452768E+02  0.75131345132E+02  0.11561045234E+03  0.00000000000E+00 0.  1.
<scales pt_clust_5="13000.00000" pt_clust_6="13000.00000" pt_clust_7="13000.00000" pt_clust_8="13000.00000" pt_clust_9="87.86955"></scales>
<clustering>
<clus scale="   87.870">  1  9  2 -1</clus>
<clus scale="   90.088">  5  6 -1 -1</clus>
<clus scale="   93.900">  7  8 -1 -1</clus>
<clus scale="  101.410">  1  5  2 -1</clus>
<clus scale="   87.870">  1  5  2 -1</clus>
</clustering>
</event>
<event>
 9    1  0.2423659E-006  0.1537841E+03  0.7546771E-02  0.1197568E+00
          2   -1    0    0  502    0  0.00000000000E+00  0.00000000000E+00  0.64072918074E+02  0.64072918074E+02  0.00000000000E+00 0. -1.
         -2   -1    0    0    0  501 -0.00000000000E+00 -0.00000000000E+00 -0.63006757334E+03  0.63006757334E+03  0.00000000000E+00 0.  1.
         23    2    1    2    0    0 -0.90935526395E+02 -0.69299019524E+02 -0.37965283441E+03  0.40716524977E+03  0.92604761644E+02 0.  0.
         23    2    1    2    0    0  0.78423222785E+02  0.98818392871E+02 -0.70404394076E+02  0.16668626429E+03  0.83139974474E+02 0.  0.
        -11    1    3    3    0    0 -0.75106009483E+02 -0.26463087463E+02 -0.12331738564E+03  0.14679368263E+03  0.00000000000E+00 0.  1.
         11    1    3    3    0    0 -0.15829516912E+02 -0.42835932061E+02 -0.25633544877E+03  0.26037156714E+03  0.00000000000E+00 0. -1.
        -11    1    4    4    0    0 -0.33833055415E+01  0.60529130282E+02 -0.24765587352E+02  0.65487072663E+02  0.00000000000E+00 0. -1.
         11    1    4    4    0    0  0.81806528326E+02  0.38289262589E+02 -0.45638806724E+02  0.10119919163E+03  0.00000000000E+00 0.  1.
         21    1    1    2  502  501  0.12512303610E+02 -0.29519373347E+02 -0.11593742678E+03  0.12028897735E+03  0.00000000000E+00 0.  1.
<scales pt_clust_5="13000.00000" pt_clust_6="13000.00000" pt_clust_7="13000.00000" pt_clust_8="13000.00000" pt_clust_9="32.06168"></scales>
<clustering>
<clus scale="   32.062">  2  9  1 -1</clus>
<clus scale="   83.140">  7  8 -1 -1</clus>
<clus scale="   92.605">  5  6 -1 -1</clus>
<clus scale="  148.277">  1  7  2 -1</clus>
<clus scale="  148.277">  1  5  2 -1</clus>
</clustering>
</event>
<event>
 9    1  0.2423659E-006  0.9893363E+02  0.7546771E-02  0.1283958E+00
          1   -1    0    0  502    0  0.00000000000E+00  0.00000000000E+00  0.23457771887E+03  0.23457771887E+03  0.00000000000E+00 0. -1.
         -1   -1    0    0    0  501 -0.00000000000E+00 -0.00000000000E+00 -0.15089701291E+03  0.15089701291E+03  0.00000000000E+00 0.  1.
         23    2    1    2    0    0  0.32538235216E+02 -0.19994898220E+02 -0.11140310164E+03  0.14977103083E+03  0.92532037237E+02 0.  0.
         23    2    1    2    0    0 -0.12833212688E+02 -0.10581410557E+02  0.16471756421E+03  0.18831902717E+03  0.89752562301E+02 0.  0.
        -13    1    3    3    0    0  0.29603780635E+02  0.59058199215E+01 -0.11888051142E+03  0.12265332663E+03  0.00000000000E+00 0.  1.
         13    1    3    3    0    0  0.29344545814E+01 -0.25900718142E+02  0.74774097861E+01  0.27117704200E+02  0.00000000000E+00 0. -1.
        -13    1    4    4    0    0  0.31593827163E+02 -0.77684517021E+01  0.23184979545E+02  0.39950745088E+02  0.00000000000E+00 0.  1.
         13    1    4    4    0    0 -0.44427039850E+02 -0.28129588545E+01  0.14153258466E+03  0.14836828208E+03  0.00000000000E+00 0. -1.
         21    1    1    2  502  501 -0.19705022529E+02  0.30576308777E+02  0.30366243399E+02  0.47384673782E+02  0.00000000000E+00 0. -1.
<scales pt_clust_5="13000.00000" pt_clust_6="13000.00000" pt_clust_7="13000.00000" pt_clust_8="13000.00000" pt_clust_9="36.37580"></scales>
<clustering>
<clus scale="   36.376">  1  9  2 -1</clus>
<clus scale="   89.753">  7  8 -1 -1</clus>
<clus scale="   92.532">  5  6 -1 -1</clus>
<clus scale="   96.339">  1  7  2 -1</clus>
<clus scale="   36.376">  1  5  2 -1</clus>
</clustering>
</event>
<event>
 9    1  0.2423659E-006  0.9343058E+02  0.7546771E-02  0.1295328E+00
          2   -1    0    0  502    0  0.00000000000E+00  0.00000000000E+00  0.28557110573E+02  0.28557110573E+02  0.00000000000E+00 0. -1.
         -2   -1    0    0    0  501 -0.00000000000E+00 -0.00000000000E+00 -0.53497165547E+03  0.53497165547E+03  0.00000000000E+00 0.  1.
         23    2    1    2    0    0  0.24247406708E+01  0.16259733920E+01 -0.33598964308E+03  0.34830089652E+03  0.91738493043E+02 0.  0.
         23    2    1    2    0    0 -0.13063604605E+02 -0.29424711810E+02 -0.14946663587E+03  0.17882451535E+03  0.92744059765E+02 0.  0.
        -11    1    3    3    0    0 -0.89033256940E+01  0.45284611213E+02 -0.15123042839E+03  0.15811580469E+03  0.00000000000E+00 0.  1.
         11    1    3    3    0    0  0.11328066365E+02 -0.43658637821E+02 -0.18475921469E+03  0.19018509184E+03  0.00000000000E+00 0. -1.
        -13    1    4    4    0    0  0.24462872178E+02  0.69886239664E+00 -0.11984218411E+03  0.12231545125E+03  0.00000000000E+00 0.  1.
         13    1    4    4    0    0 -0.37526476783E+02 -0.30123574207E+02 -0.29624451760E+02  0.56509064094E+02  0.00000000000E+00 0. -1.
         21    1    1    2  502  501  0.10638863935E+02  0.27798738418E+02 -0.20958265957E+02  0.36403354177E+02  0.00000000000E+00 0.  1.
<scales pt_clust_5="13000.00000" pt_clust_6="13000.00000" pt_clust_7="13000.00000" pt_clust_8="13000.00000" pt_clust_9="29.76500"></scales>
<clustering>
<clus scale="   29.765">  1  9  2 -1</clus>
<clus scale="   91.738">  5  6 -1 -1</clus>
<clus scale="   92.432">  2  5  1 -1</clus>
<clus scale="   92.744">  7  8 -1 -1</clus>
<clus scale="   29.765">  1  5  2 -1</clus>
</clustering>
</event>
<event>
 9    1  0.2423659E-006  0.1930448E+03  0.7546771E-02  0.1156281E+00
          3   -1    0    0  502    0  0.00000000000E+00  0.00000000000E+00  0.10056971687E+03  0.10056971687E+03  0.00000000000E+00 0. -1.
         -3   -1    0    0    0  501 -0.00000000000E+00 -0.00000000000E+00 -0.82644838032E+03  0.82644838032E+03  0.00000000000E+00 0.  1.
         23    2    1    2    0    0  0.14538868528E+03 -0.19946935138E+03 -0.26699400406E+03  0.37565025552E+03  0.94347359884E+02 0.  0.
         23    2    1    2    0    0 -0.11070059820E+03  0.58306102328E+02 -0.17866201524E+03  0.23568595026E+03  0.89294610438E+02 0.  0.
        -11    1    3    3    0    0 -0.11617420879E+02 -0.34905236581E+02 -0.35865343722E+02  0.51377649702E+02  0.00000000000E+00 0. -1.
         11    1    3    3    0    0  0.15700610616E+03 -0.16456411480E+03 -0.23112866034E+03  0.32427260582E+03  0.00000000000E+00 0.  1.
        -13    1    4    4    0    0 -0.12233555485E+03  0.36871416263E+02 -0.13643943657E+03  0.18692567820E+03  0.00000000000E+00 0. -1.
         13    1    4    4    0    0  0.11634956649E+02  0.21434686065E+02 -0.42222578667E+02  0.48760272069E+02  0.00000000000E+00 0.  1.
         21    1    1    2  502  501 -0.34688087085E+02  0.14116324905E+03 -0.28022264414E+03  0.31568189140E+03  0.00000000000E+00 0. -1.
<scales pt_clust_5="13000.00000" pt_clust_6="13000.00000" pt_clust_7="13000.00000" pt_clust_8="13000.00000" pt_clust_9="145.36274"></scales>
<clustering>
<clus scale="   89.295">  7  8 -1 -1</clus>
<clus scale="   94.347">  5  6 -1 -1</clus>
<clus scale="  145.363">  2  9  1 -1</clus>
<clus scale="  190.626">  1  7  2 -1</clus>
<clus scale="  190.626">  1  5  2 -1</clus>
</clustering>
</event>
<event>
 9    1  0.2423659E-006  0.9184525E+02  0.7546771E-02  0.1301884E+00
          2   -1    0    0  502    0  0.00000000000E+00  0.00000000000E+00  0.51306730565E+03  0.51306730565E+03  0.00000000000E+00 0. -1.
         -2   -1    0    0    0  501 -0.00000000000E+00 -0.00000000000E+00 -0.39842001092E+02  0.39842001092E+02  0.00000000000E+00 0.  1.
         23    2    1    2    0    0 -0.28592300029E+02 -0.39788185271E+02  0.20746612134E+03  0.23201496460E+03  0.91586751159E+02 0.  0.
         23    2    1    2    0    0 -0.14035028452E+02 -0.30162837155E+02  0.18050864904E+03  0.20266622260E+03  0.85926984330E+02 0.  0.
        -13    1    3    3    0    0 -0.54231673991E+02 -0.51611006215E+02  0.13735980657E+03  0.15643684632E+03  0.00000000000E+00 0.  1.
         13    1    3    3    0    0  0.25639373962E+02  0.11822820943E+02  0.70106314769E+02  0.75578118280E+02  0.00000000000E+00 0. -1.
        -13    1    4    4    0    0 -0.49896656122E+02 -0.96294500053E+01  0.10003030298E+03  0.11219832492E+03  0.00000000000E+00 0. -1.
         13    1    4    4    0    0  0.35861627670E+02 -0.20533387150E+02  0.80478346058E+02  0.90467897683E+02  0.00000000000E+00 0.  1.
         21    1    1    2  502  501  0.42627328481E+02  0.69951022427E+02  0.85250534181E+02  0.11822811954E+03  0.00000000000E+00 0. -1.
<scales pt_clust_5="13000.00000" pt_clust_6="13000.00000" pt_clust_7="13000.00000" pt_clust_8="13000.00000" pt_clust_9="81.91602"></scales>
<clustering>
<clus scale="   81.916">  2  9  1 -1</clus>
<clus scale="   85.927">  7  8 -1 -1</clus>
<clus scale="   86.202">  1  7  2 -1</clus>
<clus scale="   91.587">  5  6 -1 -1</clus>
<clus scale="   86.202">  1  5  2 -1</clus>
</clustering>
</event>
<event>
 9    1  0.2423659E-006  0.2412341E+03  0.7546771E-02  0.1119085E+00
          1   -1    0    0  502    0  0.00000000000E+00  0.00000000000E+00  0.52249010741E+03  0.52249010741E+03  0.00000000000E+00 0. -1.
         -1   -1    0    0    0  501 -0.00000000000E+00 -0.00000000000E+00 -0.36539420455E+03  0.36539420455E+03  0.00000000000E+00 0.  1.
         23    2    1    2    0    0 -0.65696552239E+02  0.23949657605E+03 -0.20658450643E+03  0.33566790567E+03  0.91220270135E+02 0.  0.
         23    2    1    2    0    0  0.43869209827E+02 -0.21609365518E+03  0.42270559966E+03  0.48507400032E+03  0.89419161370E+02 0.  0.
        -11    1    4    4    0    0  0.58888014060E+02 -0.76515808864E+02  0.19448592319E+03  0.21713415559E+03  0.00000000000E+00 0. -1.
         11    1    4    4    0    0 -0.15018804232E+02 -0.13957784632E+03  0.22821967647E+03  0.26793984473E+03  0.00000000000E+00 0.  1.
        -13    1    3    3    0    0 -0.37505730219E+02  0.18925000058E+03 -0.19965064718E+03  0.27763757569E+03  0.00000000000E+00 0.  1.
         13    1    3    3    0    0 -0.28190822021E+02  0.50246575474E+02 -0.69338592508E+01  0.58030329977E+02  0.00000000000E+00 0. -1.
         21    1    1    2  502  501  0.21827342412E+02 -0.23402920867E+02 -0.59025190372E+02  0.67142405977E+02  0.00000000000E+00 0.  1.
<scales pt_clust_5="13000.00000" pt_clust_6="13000.00000" pt_clust_7="13000.00000" pt_clust_8="13000.00000" pt_clust_9="32.00202"></scales>
<clustering>
<clus scale="   32.002">  2  9  1 -1</clus>
<clus scale="   89.419">  5  6 -1 -1</clus>
<clus scale="   91.220">  7  8 -1 -1</clus>
<clus scale="  240.559">  1  5  2 -1</clus>
<clus scale="  240.559">  1  5  2 -1</clus>
</clustering>
</event>
<event>
 9    1  0.2423659E-006  0.1071621E+03  0.7546771E-02  0.1273354E+00
         -2   -1    0    0    0  501 -0.00000000000E+00  0.00000000000E+00  0.50935979565E+02  0.50935979565E+02  0.00000000000E+00 0.  1.
          2   -1    0    0  502    0  0.00000000000E+00 -0.00000000000E+00 -0.40333832661E+03  0.40333832661E+03  0.00000000000E+00 0. -1.
         23    2    1    2    0    0 -0.57611561069E+02 -0.15095088858E+02 -0.38089366511E+02  0.11733707872E+03  0.93649540978E+02 0.  0.
         23    2    1    2    0    0  0.33250623752E+02 -0.12430268126E+02 -0.22184412411E+03  0.23743049425E+03  0.76800446952E+02 0.  0.
        -11    1    4    4    0    0 -0.50630440175E+01 -0.36125445022E+02 -0.68518181651E+02  0.77623600853E+02  0.00000000000E+00 0.  1.
         11    1    4    4    0    0  0.38313667770E+02  0.23695176895E+02 -0.15332594246E+03  0.15980689340E+03  0.00000000000E+00 0. -1.
        -13    1    3    3    0    0 -0.68678577374E+02 -0.41814024862E+02 -0.36693686837E+02  0.88383178937E+02  0.00000000000E+00 0.  1.
         13    1    3    3    0    0  0.11067016305E+02  0.26718936004E+02 -0.13956796738E+01  0.28953899786E+02  0.00000000000E+00 0. -1.
         21    1    1    2  502  501  0.24360937317E+02  0.27525356984E+02 -0.92468856424E+02  0.99506733202E+02  0.00000000000E+00 0. -1.
<scales pt_clust_5="13000.00000" pt_clust_6="13000.00000" pt_clust_7="13000.00000" pt_clust_8="13000.00000" pt_clust_9="36.75732"></scales>
<clustering>
<clus scale="   36.757">  2  9  1 -1</clus>
<clus scale="   76.800">  5  6 -1 -1</clus>
<clus scale="   92.800">  2  5  1 -1</clus>
<clus scale="   93.650">  7  8 -1 -1</clus>
<clus scale="   36.757">  2  5  1 -1</clus>
</clustering>
</event>
<event>
 9    1  0.2423659E-006  0.1237902E+03  0.7546771E-02  0.1242424E+00
         -4   -1    0    0    0  501 -0.00000000000E+00  0.00000000000E+00  0.47412080409E+03  0.47412080409E+03  0.00000000000E+00 0.  1.
          4   -1    0    0  502    0  0.00000000000E+00 -0.00000000000E+00 -0.10793341488E+03  0.10793341488E+03  0.00000000000E+00 0. -1.
         23    2    1    2    0    0  0.52137628978E+02  0.35495275242E+02  0.38285060229E+03  0.39933423873E+03  0.94419296926E+02 0.  0.
         23    2    1    2    0    0 -0.21141250392E+02  0.15409129651E+02 -0.39077485222E+02  0.11904554644E+03  0.10936360698E+03 0.  0.
        -11    1    3    3    0    0 -0.26774310557E+02  0.14562691397E+02  0.78068877212E+02  0.83807429717E+02  0.00000000000E+00 0.  1.
         11    1    3    3    0    0  0.78911939536E+02  0.20932583845E+02  0.30478172507E+03  0.31552680901E+03  0.00000000000E+00 0. -1.
        -13    1    4    4    0    0  0.32370144846E+02 -0.28572681490E+02 -0.15591070033E+02  0.45905401312E+02  0.00000000000E+00 0. -1.
         13    1    4    4    0    0 -0.53511395238E+02  0.43981811140E+02 -0.23486415188E+02  0.73140145132E+02  0.00000000000E+00 0.  1.
         21    1    1    2  502  501 -0.30996378587E+02 -0.50904404892E+02  0.22414272153E+02  0.63674433795E+02  0.00000000000E+00 0.  1.
<scales pt_clust_5="13000.00000" pt_clust_6="13000.00000" pt_clust_7="13000.00000" pt_clust_8="13000.00000" pt_clust_9="59.59894"></scales>
<clustering>
<clus scale="   59.599">  2  9  1 -1</clus>
<clus scale="   94.419">  5  6 -1 -1</clus>
<clus scale="  109.364">  7  8 -1 -1</clus>
<clus scale="  110.809">  1  5  2 -1</clus>
<clus scale="   59.599">  2  5  1 -1</clus>
</clustering>
</event>
<event>
 9    1  0.2423659E-006  0.1352572E+03  0.7546771E-02  0.1221105E+00
         -2   -1    0    0    0  501 -0.00000000000E+00  0.00000000000E+00  0.14207619840E+03  0.14207619840E+03  0.00000000000E+00 0.  1.
          2   -1    0    0  502    0  0.00000000000E+00 -0.00000000000E+00 -0.26548282152E+03  0.26548282152E+03  0.00000000000E+00 0. -1.
         23    2    1    2    0    0  0.97890239090E+02  0.67272749269E+02  0.25148126587E+02  0.15202317445E+03  0.91490412581E+02 0.  0.
         23    2    1    2    0    0 -0.79457814518E+01 -0.63626381416E+02 -0.10126880082E+03  0.15385368175E+03  0.96457936499E+02 0.  0.
        -11    1    3    3    0    0  0.38575786987E+02  0.25933120428E+02 -0.34830130183E+02  0.58084042949E+02  0.00000000000E+00 0. -1.
         11    1    3    3    0    0  0.59314452104E+02  0.41339628841E+02  0.59978256770E+02  0.93939131496E+02  0.00000000000E+00 0.  1.
        -11    1    4    4    0    0 -0.12627871571E+02 -0.85192060614E+02 -0.53906460970E+02  0.10160244518E+03  0.00000000000E+00 0.  1.
         11    1    4    4    0    0  0.46820901196E+01  0.21565679198E+02 -0.47362339848E+02  0.52251236569E+02  0.00000000000E+00 0. -1.
         21    1    1    2  502  501 -0.89944457638E+02 -0.36463678528E+01 -0.47285948880E+02  0.10168216373E+03  0.00000000000E+00 0. -1.
<scales pt_clust_5="13000.00000" pt_clust_6="13000.00000" pt_clust_7="13000.00000" pt_clust_8="13000.00000" pt_clust_9="90.01834"></scales>
<clustering>
<clus scale="   90.018">  2  9  1 -1</clus>
<clus scale="   91.490">  5  6 -1 -1</clus>
<clus scale="   96.458">  7  8 -1 -1</clus>
<clus scale="  131.761">  1  5  2 -1</clus>
<clus scale="   90.018">  2  5  1 -1</clus>
</clustering>
</event>
<event>
 9    1  0.2423659E-006  0.9488406E+02  0.7546771E-02  0.1291654E+00
          1   -1    0    0  502    0  0.00000000000E+00  0.00000000000E+00  0.43132306943E+02  0.43132306943E+02  0.00000000000E+00 0. -1.
         -1   -1    0    0    0  501 -0.00000000000E+00 -0.00000000000E+00 -0.50390965137E+03  0.50390965137E+03  0.00000000000E+00 0.  1.
         23    2    1    2    0    0  0.13792134868E+02 -0.11308390032E+02 -0.29320192498E+03  0.30715952710E+03  0.89785876432E+02 0.  0.
         23    2    1    2    0    0 -0.63850923710E+02  0.34923764918E+02 -0.10556721820E+03  0.15676453126E+03  0.90189084077E+02 0.  0.
        -11    1    3    3    0    0 -0.11964133187E+01 -0.50011900601E+02 -0.15803917179E+03  0.16576791434E+03  0.00000000000E+00 0.  1.
         11    1    3    3    0    0  0.14988548187E+02  0.38703510569E+02 -0.13516275320E+03  0.14139161276E+03  0.00000000000E+00 0. -1.
        -11    1    4    4    0    0 -0.69435413066E+02  0.55614410151E+02 -0.62695268309E+02  0.10883444249E+03  0.00000000000E+00 0. -1.
         11    1    4    4    0    0  0.55844893556E+01 -0.20690645232E+02 -0.42871949893E+02  0.47930088766E+02  0.00000000000E+00 0.  1.
         21    1    1    2  502  501  0.50058788842E+02 -0.23615374887E+02 -0.62008201238E+02  0.83117899950E+02  0.00000000000E+00 0.  1.
<scales pt_clust_5="13000.00000" pt_clust_6="13000.00000" pt_clust_7="13000.00000" pt_clust_8="13000.00000" pt_clust_9="55.34951"></scales>
<clustering>
<clus scale="   55.350">  1  9  2 -1</clus>
<clus scale="   89.786">  5  6 -1 -1</clus>
<clus scale="   90.189">  7  8 -1 -1</clus>
<clus scale="   94.501">  2  5  1 -1</clus>
<clus scale="   55.350">  1  5  2 -1</clus>
</clustering>
</event>
<event>
 9    1  0.2423659E-006  0.1065755E+03  0.7546771E-02  0.1267145E+00
          1   -1    0    0  502    0  0.00000000000E+00  0.00000000000E+00  0.35692976011E+03  0.35692976011E+03  0.00000000000E+00 0. -1.
         -1   -1    0    0    0  501 -0.00000000000E+00 -0.00000000000E+00 -0.45560883526E+02  0.45560883526E+02  0.00000000000E+00 0.  1.
         23    2    1    2    0    0  0.54370029464E+02 -0.21234486409E+02  0.99011638864E+02  0.14682764218E+03  0.91367654893E+02 0.  0.
         23    2    1    2    0    0 -0.54550266672E+02 -0.11920234652E+02  0.14053141147E+03  0.17655410606E+03  0.91128761481E+02 0.  0.
        -11    1    4    4    0    0  0.11231844195E+02 -0.25901797461E+02  0.10427016352E+02  0.30096180916E+02  0.00000000000E+00 0. -1.
         11    1    4    4    0    0 -0.65782110867E+02  0.13981562809E+02  0.13010439512E+03  0.14645792514E+03  0.00000000000E+00 0.  1.
        -11    1    3    3    0    0 -0.23941188390E+02 -0.13511143678E+02  0.13526694806E+02  0.30638260025E+02  0.00000000000E+00 0.  1.
         11    1    3    3    0    0  0.78311217854E+02 -0.77233427305E+01  0.85484944058E+02  0.11618938215E+03  0.00000000000E+00 0. -1.
         21    1    1    2  502  501  0.18023720829E+00  0.33154721061E+02  0.71825826247E+02  0.79108895392E+02  0.00000000000E+00 0. -1.
<scales pt_clust_5="13000.00000" pt_clust_6="13000.00000" pt_clust_7="13000.00000" pt_clust_8="13000.00000" pt_clust_9="33.15521"></scales>
<clustering>
<clus scale="   33.155">  1  9  2 -1</clus>
<clus scale="   91.129">  5  6 -1 -1</clus>
<clus scale="   91.368">  7  8 -1 -1</clus>
<clus scale="  106.371">  1  5  2 -1</clus>
<clus scale="   33.155">  1  5  2 -1</clus>
</clustering>
</event>
<event>
 9    1  0.2423659E-006  0.1062542E+03  0.7546771E-02  0.1268198E+00
          1   -1    0    0  502    0  0.00000000000E+00  0.00000000000E+00  0.31852245119E+03  0.31852245119E+03  0.00000000000E+00 0. -1.
         -1   -1    0    0    0  501 -0.00000000000E+00 -0.00000000000E+00 -0.87915025188E+02  0.87915025188E+02  0.00000000000E+00 0.  1.
         23    2    1    2    0    0  0.54869445684E+01  0.50424709024E+02 -0.21332320448E+02  0.10463059049E+03  0.88992891456E+02 0.  0.
         23    2    1    2    0    0  0.19268875406E+01 -0.75081394223E+02  0.12197937486E+03  0.16932060276E+03  0.90274968710E+02 0.  0.
        -11    1    3    3    0    0 -0.20869937875E+02  0.67293715734E+02 -0.91386329258E+01  0.71045852067E+02  0.00000000000E+00 0.  1.
         11    1    3    3    0    0  0.26356882443E+02 -0.16869006710E+02 -0.12193687522E+02  0.33584738423E+02  0.00000000000E+00 0. -1.
        -11    1    4    4    0    0 -0.29257068130E+02 -0.10429945630E+02  0.41320517354E+01  0.31334224946E+02  0.00000000000E+00 0.  1.
         11    1    4    4    0    0  0.31183955670E+02 -0.64651448592E+02  0.11784732312E+03  0.13798637782E+03  0.00000000000E+00 0. -1.
         21    1    1    2  502  501 -0.74138321090E+01  0.24656685199E+02  0.12996037160E+03  0.13248628313E+03  0.00000000000E+00 0. -1.
<scales pt_clust_5="13000.00000" pt_clust_6="13000.00000" pt_clust_7="13000.00000" pt_clust_8="13000.00000" pt_clust_9="25.74718"></scales>
<clustering>
<clus scale="   25.747">  1  9  2 -1</clus>
<clus scale="   88.993">  5  6 -1 -1</clus>
<clus scale="   90.275">  7  8 -1 -1</clus>
<clus scale="  105.167">  2  5  1 -1</clus>
<clus scale="   25.747">  1  5  2 -1</clus>
</clustering>
</event>
<event>
 9    1  0.2423659E-006  0.2406355E+03  0.7546771E-02  0.1155721E+00
          1   -1    0    0  502    0  0.00000000000E+00  0.00000000000E+00  0.61920397907E+03  0.61920397907E+03  0.00000000000E+00 0. -1.
         -1   -1    0    0    0  501 -0.00000000000E+00 -0.00000000000E+00 -0.14325108669E+03  0.14325108669E+03  0.00000000000E+00 0.  1.
         23    2    1    2    0    0  0.30635552696E+02  0.28304346887E+02  0.11229444841E+02  0.10034928211E+03  0.90577065788E+02 0.  0.
         23    2    1    2    0    0 -0.35111937933E+02  0.20498948898E+03  0.15784874277E+03  0.27659555511E+03  0.91298065326E+02 0.  0.
        -11    1    3    3    0    0 -0.32265509246E+02  0.55435581770E+01  0.56766948973E+01  0.33226781203E+02  0.00000000000E+00 0.  1.
         11    1    3    3    0    0  0.62901061941E+02  0.22760788710E+02  0.55527499438E+01  0.67122500907E+02  0.00000000000E+00 0. -1.
        -13    1    4    4    0    0 -0.55658701354E+02  0.19623735874E+03  0.13476253585E+03  0.24447481071E+03  0.00000000000E+00 0.  1.
         13    1    4    4    0    0  0.20546763421E+02  0.87521302455E+01  0.23086206925E+02  0.32120744405E+02  0.00000000000E+00 0. -1.
         21    1    1    2  502  501  0.44763852372E+01 -0.23329383587E+03  0.30687470476E+03  0.38551022853E+03  0.00000000000E+00 0. -1.
<scales pt_clust_5="13000.00000" pt_clust_6="13000.00000" pt_clust_7="13000.00000" pt_clust_8="13000.00000" pt_clust_9="222.64341"></scales>
<clustering>
<clus scale="   90.577">  5  6 -1 -1</clus>
<clus scale="   91.298">  7  8 -1 -1</clus>
<clus scale="   99.719">  2  5  1 -1</clus>
<clus scale="  222.643">  1  9  2 -1</clus>
<clus scale="  222.643">  1  5  2 -1</clus>
</clustering>
</event>
<event>
 9    1  0.2423659E-006  0.9980702E+02  0.7546771E-02  0.1281734E+00
          2   -1    0    0  502    0  0.00000000000E+00  0.00000000000E+00  0.40520726174E+03  0.40520726174E+03  0.00000000000E+00 0. -1.
         -2   -1    0    0    0  501 -0.00000000000E+00 -0.00000000000E+00 -0.66939504119E+02  0.66939504119E+02  0.00000000000E+00 0.  1.
         23    2    1    2    0    0  0.39944473914E+02  0.64135984539E+01 -0.73918496322E+01  0.98481029310E+02  0.89482838866E+02 0.  0.
         23    2    1    2    0    0 -0.68793437768E+02  0.40275668902E+01  0.27354050449E+03  0.29529198053E+03  0.87316595176E+02 0.  0.
        -13    1    4    4    0    0 -0.68779444876E+02  0.34451231692E+02  0.15681358021E+03  0.17466538965E+03  0.00000000000E+00 0. -1.
         13    1    4    4    0    0 -0.13992891690E-01 -0.30423664802E+02  0.11672692428E+03  0.12062659088E+03  0.00000000000E+00 0.  1.
        -13    1    3    3    0    0  0.18934839429E+02  0.44162176061E+02  0.14308980255E+02  0.50135544822E+02  0.00000000000E+00 0. -1.
         13    1    3    3    0    0  0.21009634485E+02 -0.37748577607E+02 -0.21700829887E+02  0.48345484488E+02  0.00000000000E+00 0.  1.
         21    1    1    2  502  501  0.28848963854E+02 -0.10441165344E+02  0.72119102763E+02  0.78373756019E+02  0.00000000000E+00 0.  1.
<scales pt_clust_5="13000.00000" pt_clust_6="13000.00000" pt_clust_7="13000.00000" pt_clust_8="13000.00000" pt_clust_9="30.68030"></scales>
<clustering>
<clus scale="   30.680">  1  9  2 -1</clus>
<clus scale="   87.317">  5  6 -1 -1</clus>
<clus scale="   89.483">  7  8 -1 -1</clus>
<clus scale="   97.870">  1  5  2 -1</clus>
<clus scale="   30.680">  1  5  2 -1</clus>
</clustering>
</event>
<event>
 9    1  0.2423659E-006  0.9682841E+02  0.7546771E-02  0.1288046E+00
          3   -1    0    0  502    0  0.00000000000E+00  0.00000000000E+00  0.46322341397E+03  0.46322341397E+03  0.00000000000E+00 0. -1.
         -3   -1    0    0    0  501 -0.00000000000E+00 -0.00000000000E+00 -0.27014218318E+02  0.27014218318E+02  0.00000000000E+00 0.  1.
         23    2    1    2    0    0 -0.59882950920E+01  0.26229412793E+02  0.15435758667E+03  0.18040490689E+03  0.89419372030E+02 0.  0.
         23    2    1    2    0    0 -0.20556225595E+02 -0.35230976740E+02  0.23281279858E+03  0.25334870414E+03  0.91213960409E+02 0.  0.
        -13    1    4    4    0    0 -0.23154977389E+02  0.23000868449E+02  0.38453152598E+02  0.50436473628E+02  0.00000000000E+00 0.  1.
         13    1    4    4    0    0  0.25987517942E+01 -0.58231845188E+02  0.19435964598E+03  0.20291223051E+03  0.00000000000E+00 0. -1.
        -13    1    3    3    0    0  0.30432007861E+02  0.43485674151E+02  0.88173285361E+02  0.10291568982E+03  0.00000000000E+00 0.  1.
         13    1    3    3    0    0 -0.36420302953E+02 -0.17256261359E+02  0.66184301309E+02  0.77489217075E+02  0.00000000000E+00 0. -1.
         21    1    1    2  502  501  0.26544520687E+02  0.90015639470E+01  0.49038810408E+02  0.56484021264E+02  0.00000000000E+00 0. -1.
<scales pt_clust_5="13000.00000" pt_clust_6="13000.00000" pt_clust_7="13000.00000" pt_clust_8="13000.00000" pt_clust_9="28.02927"></scales>
<clustering>
<clus scale="   28.029">  2  9  1 -1</clus>
<clus scale="   89.419">  7  8 -1 -1</clus>
<clus scale="   91.214">  5  6 -1 -1</clus>
<clus scale="   95.140">  2  7  1 -1</clus>
<clus scale="   96.828">  1  5  2 -1</clus>
</clustering>
</event>
<event>
 9    1  0.2423659E-006  0.1639600E+03  0.7546771E-02  0.1192547E+00
          1   -1    0    0  502    0  0.00000000000E+00  0.00000000000E+00  0.43306107877E+03  0.43306107877E+03  0.00000000000E+00 0. -1.
         -1   -1    0    0    0  501 -0.00000000000E+00 -0.00000000000E+00 -0.12835026643E+03  0.12835026643E+03  0.00000000000E+00 0.  1.
         23    2    1    2    0    0 -0.70659809615E+02 -0.63840431350E+02  0.95952923472E+02  0.15987430349E+03  0.85348813835E+02 0.  0.
         23    2    1    2    0    0  0.12111866201E+00  0.13783776451E+03  0.23147750685E+03  0.29681124126E+03  0.12456248539E+03 0.  0.
        -11    1    4    4    0    0 -0.51367598512E+02  0.28657952686E+02  0.11446749137E+03  0.12869621210E+03  0.00000000000E+00 0. -1.
         11    1    4    4    0    0  0.51488717174E+02  0.10917981182E+03  0.11701001548E+03  0.16811502916E+03  0.00000000000E+00 0.  1.
        -13    1    3    3    0    0 -0.48800025944E+02  0.21967970533E+01  0.70567769603E+02  0.85825861814E+02  0.00000000000E+00 0.  1.
         13    1    3    3    0    0 -0.21859783672E+02 -0.66037228403E+02  0.25385153869E+02  0.74048441674E+02  0.00000000000E+00 0. -1.
         21    1    1    2  502  501  0.70538690953E+02 -0.73997333161E+02 -0.22719617989E+02  0.10472580044E+03  0.00000000000E+00 0. -1.
<scales pt_clust_5="13000.00000" pt_clust_6="13000.00000" pt_clust_7="13000.00000" pt_clust_8="13000.00000" pt_clust_9="102.23166"></scales>
<clustering>
<clus scale="   85.349">  7  8 -1 -1</clus>
<clus scale="  102.232">  2  9  1 -1</clus>
<clus scale="  124.562">  5  6 -1 -1</clus>
<clus scale="  136.570">  2  7  1 -1</clus>
<clus scale="  163.960">  1  5  2 -1</clus>
</clustering>
</event>
<event>
 9    1  0.2423659E-006  0.9200123E+02  0.7546771E-02  0.1298202E+00
         -2   -1    0    0    0  501 -0.00000000000E+00  0.00000000000E+00  0.81079069952E+02  0.81079069952E+02  0.00000000000E+00 0.  1.
          2   -1    0    0  502    0  0.00000000000E+00 -0.00000000000E+00 -0.32758389143E+03  0.32758389143E+03  0.00000000000E+00 0. -1.
         23    2    1    2    0    0  0.61714638036E+02 -0.26384670791E+02 -0.72800132734E+01  0.11276650474E+03  0.90324075406E+02 0.  0.
         23    2    1    2    0    0  0.45998115309E+01  0.14446216876E+02 -0.19486535279E+03  0.21522493633E+03  0.90107802411E+02 0.  0.
        -11    1    3    3    0    0  0.75001082722E+02 -0.67214038548E+01  0.18690314099E+02  0.77586516357E+02  0.00000000000E+00 0.  1.
         11    1    3    3    0    0 -0.13286444686E+02 -0.19663266936E+02 -0.25970327372E+02  0.35179988386E+02  0.00000000000E+00 0. -1.
        -11    1    4    4    0    0 -0.27379317976E+02  0.39775281996E+02 -0.81352486306E+02  0.94604054558E+02  0.00000000000E+00 0. -1.
         11    1    4    4    0    0  0.31979129507E+02 -0.25329065119E+02 -0.11351286648E+03  0.12062088178E+03  0.00000000000E+00 0.  1.
         21    1    1    2  502  501 -0.66314449567E+02  0.11938453915E+02 -0.44359455415E+02  0.80671520303E+02  0.00000000000E+00 0. -1.
<scales pt_clust_5="13000.00000" pt_clust_6="13000.00000" pt_clust_7="13000.00000" pt_clust_8="13000.00000" pt_clust_9="67.38051"></scales>
<clustering>
<clus scale="   67.381">  1  9  2 -1</clus>
<clus scale="   90.108">  7  8 -1 -1</clus>
<clus scale="   90.324">  5  6 -1 -1</clus>
<clus scale="   91.789">  2  7  1 -1</clus>
<clus scale="   91.789">  2  5  1 -1</clus>
</clustering>
</event>
<event>
 9    1  0.2423659E-006  0.3831006E+03  0.7546771E-02  0.1070557E+00
          2   -1    0    0  502    0  0.00000000000E+00  0.00000000000E+00  0.71842270259E+03  0.71842270259E+03  0.00000000000E+00 0. -1.
         -2   -1    0    0    0  501 -0.00000000000E+00 -0.00000000000E+00 -0.38044476603E+03  0.38044476603E+03  0.00000000000E+00 0.  1.
         23    2    1    2    0    0  0.50184745585E+02  0.18737498322E+03  0.25847897315E+02  0.21585394147E+03  0.91087415302E+02 0.  0.
         23    2    1    2    0    0 -0.27439218035E+03 -0.41069283679E+03  0.13373997101E+03  0.51974660880E+03  0.91052087740E+02 0.  0.
        -11    1    4    4    0    0 -0.10169288569E+02 -0.65145557337E+02  0.30634200173E+02  0.72703592009E+02  0.00000000000E+00 0. -1.
         11    1    4    4    0    0 -0.26422289178E+03 -0.34554727945E+03  0.10310577084E+03  0.44704301679E+03  0.00000000000E+00 0.  1.
        -13    1    3    3    0    0  0.28931988488E+02  0.69849367750E+01 -0.85951969368E+01  0.30979456258E+02  0.00000000000E+00 0. -1.
         13    1    3    3    0    0  0.21252757097E+02  0.18039004645E+03  0.34443094252E+02  0.18487448522E+03  0.00000000000E+00 0.  1.
         21    1    1    2  502  501  0.22420743477E+03  0.22331785357E+03  0.17839006823E+03  0.36326691835E+03  0.00000000000E+00 0. -1.
<scales pt_clust_5="13000.00000" pt_clust_6="13000.00000" pt_clust_7="13000.00000" pt_clust_8="13000.00000" pt_clust_9="372.12311"></scales>
<clustering>
<clus scale="   91.052">  5  6 -1 -1</clus>
<clus scale="   91.087">  7  8 -1 -1</clus>
<clus scale="  214.301">  2  7  1 -1</clus>
<clus scale="  372.123">  1  9  2 -1</clus>
<clus scale="  372.123">  1  5  2 -1</clus>
</clustering>
</event>
<event>
 9    1  0.2423659E-006  0.1209162E+03  0.7546771E-02  0.1242000E+00
         -2   -1    0    0    0  501 -0.00000000000E+00  0.00000000000E+00  0.17058633652E+03  0.17058633652E+03  0.00000000000E+00 0.  1.
          2   -1    0    0  502    0  0.00000000000E+00 -0.00000000000E+00 -0.55062548888E+03  0.55062548888E+03  0.00000000000E+00 0. -1.
         23    2    1    2    0    0  0.11092727979E+03  0.28301052793E+02 -0.76761748126E+02  0.16560096659E+03  0.91790539647E+02 0.  0.
         23    2    1    2    0    0 -0.15565124971E+02 -0.78976604694E+02 -0.39512418181E+03  0.41384421011E+03  0.93082404312E+02 0.  0.
        -11    1    3    3    0    0  0.81666618363E+02  0.59866053711E+02 -0.39565779889E+02  0.10871445111E+03  0.00000000000E+00 0.  1.
         11    1    3    3    0    0  0.29260661425E+02 -0.31565000919E+02 -0.37195968237E+02  0.56886515477E+02  0.00000000000E+00 0. -1.
        -13    1    4    4    0    0 -0.41008352919E+02 -0.24881906057E+02 -0.81450807698E+02  0.94525278803E+02  0.00000000000E+00 0. -1.
         13    1    4    4    0    0  0.25443227948E+02 -0.54094698636E+02 -0.31367337411E+03  0.31931893131E+03  0.00000000000E+00 0.  1.
         21    1    1    2  502  501 -0.95362154818E+02  0.50675551901E+02  0.91846777577E+02  0.14176664870E+03  0.00000000000E+00 0.  1.
<scales pt_clust_5="13000.00000" pt_clust_6="13000.00000" pt_clust_7="13000.00000" pt_clust_8="13000.00000" pt_clust_9="107.99052"></scales>
<clustering>
<clus scale="   91.791">  5  6 -1 -1</clus>
<clus scale="   93.082">  7  8 -1 -1</clus>
<clus scale="  107.991">  1  9  2 -1</clus>
<clus scale="  119.925">  1  5  2 -1</clus>
<clus scale="  120.916">  2  5  1 -1</clus>
</clustering>
</event>
<event>
 9    1  0.2423659E-006  0.9228247E+02  0.7546771E-02  0.1298639E+00
          1   -1    0    0  502    0  0.00000000000E+00  0.00000000000E+00  0.41778948509E+02  0.41778948509E+02  0.00000000000E+00 0. -1.
         -1   -1    0    0    0  501 -0.00000000000E+00 -0.00000000000E+00 -0.46410295826E+03  0.46410295826E+03  0.00000000000E+00 0.  1.
         23    2    1    2    0    0  0.10942594532E+01 -0.71454177151E+01 -0.36018738749E+03  0.37182061518E+03  0.91996529105E+02 0.  0.
         23    2    1    2    0    0  0.23549361228E+02  0.41118041562E+01 -0.41990880686E+02  0.10208689941E+03  0.89927869000E+02 0.  0.
        -13    1    4    4    0    0 -0.22867600361E+02 -0.18786526181E+02  0.74410603291E+01  0.30516062836E+02  0.00000000000E+00 0. -1.
         13    1    4    4    0    0  0.46416961589E+02  0.22898330337E+02 -0.49431941015E+02  0.71570836574E+02  0.00000000000E+00 0.  1.
        -13    1    3    3    0    0  0.88523646644E+01  0.41093178957E+02 -0.19898833328E+03  0.20337986749E+03  0.00000000000E+00 0.  1.
         13    1    3    3    0    0 -0.77581052112E+01 -0.48238596672E+02 -0.16119905421E+03  0.16844074769E+03  0.00000000000E+00 0. -1.
         21    1    1    2  502  501 -0.24643620682E+02  0.30336135589E+01 -0.20145741571E+02  0.31974392175E+02  0.00000000000E+00 0. -1.
<scales pt_clust_5="13000.00000" pt_clust_6="13000.00000" pt_clust_7="13000.00000" pt_clust_8="13000.00000" pt_clust_9="24.82964"></scales>
<clustering>
<clus scale="   24.830">  1  9  2 -1</clus>
<clus scale="   89.928">  5  6 -1 -1</clus>
<clus scale="   90.220">  1  5  2 -1</clus>
<clus scale="   91.997">  7  8 -1 -1</clus>
<clus scale="   24.830">  1  5  2 -1</clus>
</clustering>
</event>
<event>
 9    1  0.2423659E-006  0.9265325E+02  0.7546771E-02  0.1298233E+00
          2   -1    0    0  502    0  0.00000000000E+00  0.00000000000E+00  0.47526660145E+03  0.47526660145E+03  0.00000000000E+00 0. -1.
         -2   -1    0    0    0  501 -0.00000000000E+00 -0.00000000000E+00 -0.32848156673E+02  0.32848156673E+02  0.00000000000E+00 0.  1.
         23    2    1    2    0    0  0.51051596953E+01 -0.20576524680E+02  0.89509232298E+02  0.12959236445E+03  0.91284293468E+02 0.  0.
         23    2    1    2    0    0 -0.28217297041E+02 -0.13068511305E+02  0.21130318530E+03  0.23115066547E+03  0.88400182072E+02 0.  0.
        -13    1    4    4    0    0 -0.88652617704E+01 -0.50349288728E+02  0.12867031323E+03  0.13845466135E+03  0.00000000000E+00 0. -1.
         13    1    4    4    0    0 -0.19352035270E+02  0.37280777424E+02  0.82632872065E+02  0.92696004122E+02  0.00000000000E+00 0.  1.
        -13    1    3    3    0    0  0.31715608538E+02  0.22279117760E+02  0.19738253653E+02  0.43495259171E+02  0.00000000000E+00 0.  1.
         13    1    3    3    0    0 -0.26610448842E+02 -0.42855642440E+02  0.69770978645E+02  0.86097105280E+02  0.00000000000E+00 0. -1.
         21    1    1    2  502  501  0.23112137345E+02  0.33645035985E+02  0.14160602718E+03  0.14737172820E+03  0.00000000000E+00 0. -1.
<scales pt_clust_5="13000.00000" pt_clust_6="13000.00000" pt_clust_7="13000.00000" pt_clust_8="13000.00000" pt_clust_9="40.81862"></scales>
<clustering>
<clus scale="   40.819">  1  9  2 -1</clus>
<clus scale="   88.400">  5  6 -1 -1</clus>
<clus scale="   89.813">  1  5  2 -1</clus>
<clus scale="   91.284">  7  8 -1 -1</clus>
<clus scale="   40.819">  1  5  2 -1</clus>
</clustering>
</event>
<event>
 9    1  0.2423659E-006  0.9562034E+02  0.7546771E-02  0.1294752E+00
         -2   -1    0    0    0  501 -0.00000000000E+00  0.00000000000E+00  0.19416445864E+03  0.19416445864E+03  0.00000000000E+00 0.  1.
          2   -1    0    0  502    0  0.00000000000E+00 -0.00000000000E+00 -0.13180203956E+03  0.13180203956E+03  0.00000000000E+00 0. -1.
         23    2    1    2    0    0  0.41753136559E+02  0.26418616851E+02  0.51754230793E+02  0.11585353360E+03  0.91116810264E+02 0.  0.
         23    2    1    2    0    0  0.46539871607E+02  0.20864827873E+02  0.29491043756E+02  0.10819171232E+03  0.90743728499E+02 0.  0.
        -11    1    3    3    0    0 -0.23338744941E+02 -0.88201469677E+01 -0.98329050681E+00  0.24969158340E+02  0.00000000000E+00 0.  1.
         11    1    3    3    0    0  0.65091881500E+02  0.35238763818E+02  0.52737521300E+02  0.90884375255E+02  0.00000000000E+00 0. -1.
        -11    1    4    4    0    0  0.10831274942E+02 -0.23054032387E+02  0.43018624758E+02  0.49994069671E+02  0.00000000000E+00 0.  1.
         11    1    4    4    0    0  0.35708596665E+02  0.43918860260E+02 -0.13527581002E+02  0.58197642651E+02  0.00000000000E+00 0. -1.
         21    1    1    2  502  501 -0.88293008166E+02 -0.47283444724E+02 -0.18882855475E+02  0.10192125228E+03  0.00000000000E+00 0.  1.
<scales pt_clust_5="13000.00000" pt_clust_6="13000.00000" pt_clust_7="13000.00000" pt_clust_8="13000.00000" pt_clust_9="100.15677"></scales>
<clustering>
<clus scale="   90.744">  7  8 -1 -1</clus>
<clus scale="   91.117">  5  6 -1 -1</clus>
<clus scale="  100.157">  2  9  1 -1</clus>
<clus scale="  100.157">  2  7  1 -1</clus>
<clus scale="   95.620">  2  5  1 -1</clus>
</clustering>
</event>
<event>
 9    1  0.2423659E-006  0.1068059E+03  0.7546771E-02  0.1266864E+00
          1   -1    0    0  502    0  0.00000000000E+00  0.00000000000E+00  0.34346896493E+03  0.34346896493E+03  0.00000000000E+00 0. -1.
         -1   -1    0    0    0  501 -0.00000000000E+00 -0.00000000000E+00 -0.48632042503E+02  0.48632042503E+02  0.00000000000E+00 0.  1.
         23    2    1    2    0    0  0.47997947892E+02 -0.35258877561E+02  0.97660712647E+02  0.14606794956E+03  0.90836334385E+02 0.  0.
         23    2    1    2    0    0 -0.15768415104E+02  0.55010526451E+02  0.16026244163E+03  0.19319844141E+03  0.91470140661E+02 0.  0.
        -11    1    3    3    0    0  0.18229032039E+02  0.28666052387E+02  0.14237143761E+02  0.36833903282E+02  0.00000000000E+00 0.  1.
         11    1    3    3    0    0  0.29768915853E+02 -0.63924929948E+02  0.83423568887E+02  0.10923404628E+03  0.00000000000E+00 0. -1.
        -13    1    4    4    0    0  0.37017662384E+02  0.35451032937E+02  0.68660662618E+02  0.85681793024E+02  0.00000000000E+00 0.  1.
         13    1    4    4    0    0 -0.52786077488E+02  0.19559493514E+02  0.91601779009E+02  0.10751664839E+03  0.00000000000E+00 0. -1.
         21    1    1    2  502  501 -0.32229532788E+02 -0.19751648891E+02  0.36913768152E+02  0.52834616463E+02  0.00000000000E+00 0.  1.
<scales pt_clust_5="13000.00000" pt_clust_6="13000.00000" pt_clust_7="13000.00000" pt_clust_8="13000.00000" pt_clust_9="37.80040"></scales>
<clustering>
<clus scale="   37.800">  2  9  1 -1</clus>
<clus scale="   90.836">  5  6 -1 -1</clus>
<clus scale="   91.470">  7  8 -1 -1</clus>
<clus scale="  106.264">  2  5  1 -1</clus>
<clus scale="  106.806">  1  5  2 -1</clus>
</clustering>
</event>
<event>
 9    1  0.2423659E-006  0.1533126E+03  0.7546771E-02  0.1198499E+00
         -2   -1    0    0    0  501 -0.00000000000E+00  0.00000000000E+00  0.24719268878E+03  0.24719268878E+03  0.00000000000E+00 0.  1.
          2   -1    0    0  502    0  0.00000000000E+00 -0.00000000000E+00 -0.24464794394E+03  0.24464794394E+03  0.00000000000E+00 0. -1.
         23    2    1    2    0    0 -0.13870727809E+02 -0.61928345034E+02  0.14348102360E+03  0.18121048869E+03  0.90680317980E+02 0.  0.
         23    2    1    2    0    0 -0.46680671265E+01  0.12565991924E+03 -0.17330070658E+03  0.23678668355E+03  0.10110683683E+03 0.  0.
        -11    1    3    3    0    0 -0.36038813810E+02 -0.13961697063E+02  0.13566440636E+02  0.40960632286E+02  0.00000000000E+00 0. -1.
         11    1    3    3    0    0  0.22168086001E+02 -0.47966647971E+02  0.12991458296E+03  0.14024985640E+03  0.00000000000E+00 0.  1.
        -11    1    4    4    0    0 -0.34891711947E+02  0.36915999543E+02 -0.11670063905E+03  0.12727632042E+03  0.00000000000E+00 0. -1.
         11    1    4    4    0    0  0.30223644820E+02  0.88743919696E+02 -0.56600067526E+02  0.10951036313E+03  0.00000000000E+00 0.  1.
         21    1    1    2  502  501  0.18538794936E+02 -0.63731574205E+02  0.32364427824E+02  0.73843460487E+02  0.00000000000E+00 0.  1.
<scales pt_clust_5="13000.00000" pt_clust_6="13000.00000" pt_clust_7="13000.00000" pt_clust_8="13000.00000" pt_clust_9="66.37319"></scales>
<clustering>
<clus scale="   66.373">  1  9  2 -1</clus>
<clus scale="   90.680">  5  6 -1 -1</clus>
<clus scale="  101.107">  7  8 -1 -1</clus>
<clus scale="  146.646">  1  5  2 -1</clus>
<clus scale="  153.313">  2  5  1 -1</clus>
</clustering>
</event>
<event>
 9    1  0.2423659E-006  0.9427859E+02  0.7546771E-02  0.1296658E+00
          1   -1    0    0  502    0  0.00000000000E+00  0.00000000000E+00  0.74115032841E+02  0.74115032841E+02  0.00000000000E+00 0. -1.
         -1   -1    0    0    0  501 -0.00000000000E+00 -0.00000000000E+00 -0.15637195862E+03  0.15637195862E+03  0.00000000000E+00 0.  1.
         23    2    1    2    0    0  0.10882260655E+02  0.36767825705E+02 -0.63588333984E+02  0.11743054520E+03  0.90973403388E+02 0.  0.
         23    2    1    2    0    0 -0.18405408579E+01 -0.18228368063E+02 -0.14550643134E+01  0.86190674075E+02  0.84208396805E+02 0.  0.
        -13    1    3    3    0    0  0.45705900871E+02 -0.24977012515E+01 -0.35335003977E+02  0.57825862657E+02  0.00000000000E+00 0.  1.
         13    1    3    3    0    0 -0.34823640216E+02  0.39265526957E+02 -0.28253330007E+02  0.59604682547E+02  0.00000000000E+00 0. -1.
        -13    1    4    4    0    0 -0.31261136008E+02  0.20537039713E+02 -0.27840303274E+01  0.37507058663E+02  0.00000000000E+00 0. -1.
         13    1    4    4    0    0  0.29420595150E+02 -0.38765407776E+02  0.13289660140E+01  0.48683615413E+02  0.00000000000E+00 0.  1.
         21    1    1    2  502  501 -0.90417197972E+01 -0.18539457642E+02 -0.17213527479E+02  0.26865772180E+02  0.00000000000E+00 0.  1.
<scales pt_clust_5="13000.00000" pt_clust_6="13000.00000" pt_clust_7="13000.00000" pt_clust_8="13000.00000" pt_clust_9="20.62678"></scales>
<clustering>
<clus scale="   20.627">  2  9  1 -1</clus>
<clus scale="   84.208">  7  8 -1 -1</clus>
<clus scale="   87.769">  1  7  2 -1</clus>
<clus scale="   90.973">  5  6 -1 -1</clus>
<clus scale="   87.769">  1  5  2 -1</clus>
</clustering>
</event>
<event>
 9    1  0.2423659E-006  0.1073433E+03  0.7546771E-02  0.1267803E+00
          2   -1    0    0  502    0  0.00000000000E+00  0.00000000000E+00  0.11271446444E+03  0.11271446444E+03  0.00000000000E+00 0. -1.
         -2   -1    0    0    0  501 -0.00000000000E+00 -0.00000000000E+00 -0.19493423825E+03  0.19493423825E+03  0.00000000000E+00 0.  1.
         23    2    1    2    0    0  0.84126989719E+01  0.42795436691E+02 -0.37796151638E+02  0.10352298256E+03  0.85943213430E+02 0.  0.
         23    2    1    2    0    0 -0.75466302322E+02 -0.27383488022E+02  0.11184585099E+01  0.12161635704E+03  0.91346971203E+02 0.  0.
        -11    1    4    4    0    0 -0.51968363457E+02 -0.61228445990E+02  0.30646252972E+01  0.80368061610E+02  0.00000000000E+00 0.  1.
         11    1    4    4    0    0 -0.23497938865E+02  0.33844957968E+02 -0.19461667873E+01  0.41248295431E+02  0.00000000000E+00 0. -1.
        -13    1    3    3    0    0 -0.31931434314E+02  0.12948541081E+02 -0.40611554260E+02  0.53259548936E+02  0.00000000000E+00 0.  1.
         13    1    3    3    0    0  0.40344133286E+02  0.29846895610E+02  0.28154026217E+01  0.50263433628E+02  0.00000000000E+00 0. -1.
         21    1    1    2  502  501  0.67053603350E+02 -0.15411948668E+02 -0.45542080676E+02  0.82509363083E+02  0.00000000000E+00 0. -1.
<scales pt_clust_5="13000.00000" pt_clust_6="13000.00000" pt_clust_7="13000.00000" pt_clust_8="13000.00000" pt_clust_9="68.80199"></scales>
<clustering>
<clus scale="   68.802">  2  9  1 -1</clus>
<clus scale="   85.943">  7  8 -1 -1</clus>
<clus scale="   91.347">  5  6 -1 -1</clus>
<clus scale="  102.784">  2  7  1 -1</clus>
<clus scale="  107.343">  1  5  2 -1</clus>
</clustering>
</event>
<event>
 9    1  0.2423659E-006  0.1560986E+03  0.7546771E-02  0.1206682E+00
         -2   -1    0    0    0  501 -0.00000000000E+00  0.00000000000E+00  0.14711425615E+03  0.14711425615E+03  0.00000000000E+00 0.  1.
          2   -1    0    0  502    0  0.00000000000E+00 -0.00000000000E+00 -0.37503394314E+03  0.37503394314E+03  0.00000000000E+00 0. -1.
         23    2    1    2    0    0 -0.49155999154E+02  0.10909945925E+03 -0.54473715660E+02  0.15971576338E+03  0.90679298144E+02 0.  0.
         23    2    1    2    0    0  0.64450532791E+02  0.27733877799E+02 -0.19095759769E+03  0.22363783247E+03  0.92876460109E+02 0.  0.
        -13    1    3    3    0    0 -0.17217936907E+02  0.22127473117E+02  0.25064420949E+02  0.37607281414E+02  0.00000000000E+00 0.  1.
         13    1    3    3    0    0 -0.31938062247E+02  0.86971986137E+02 -0.79538136609E+02  0.12210848197E+03  0.00000000000E+00 0. -1.
        -13    1    4    4    0    0  0.85202066611E+02  0.14644657207E+02 -0.17244659040E+03  0.19290330397E+03  0.00000000000E+00 0. -1.
         13    1    4    4    0    0 -0.20751533820E+02  0.13089220592E+02 -0.18511007283E+02  0.30734528502E+02  0.00000000000E+00 0.  1.
         21    1    1    2  502  501 -0.15294533637E+02 -0.13683333705E+03  0.17511626355E+02  0.13879460345E+03  0.00000000000E+00 0.  1.
<scales pt_clust_5="13000.00000" pt_clust_6="13000.00000" pt_clust_7="13000.00000" pt_clust_8="13000.00000" pt_clust_9="127.05923"></scales>
<clustering>
<clus scale="   90.679">  5  6 -1 -1</clus>
<clus scale="   92.876">  7  8 -1 -1</clus>
<clus scale="  116.400">  2  7  1 -1</clus>
<clus scale="  127.059">  1  9  2 -1</clus>
<clus scale="  116.400">  2  5  1 -1</clus>
</clustering>
</event>
<event>
 9    1  0.2423659E-006  0.1361714E+03  0.7546771E-02  0.1234631E+00
         -1   -1    0    0    0  501 -0.00000000000E+00  0.00000000000E+00  0.57826682205E+03  0.57826682205E+03  0.00000000000E+00 0.  1.
          1   -1    0    0  502    0  0.00000000000E+00 -0.00000000000E+00 -0.54174971263E+02  0.54174971263E+02  0.00000000000E+00 0. -1.
         23    2    1    2    0    0  0.26730774331E+02 -0.74520075607E+02  0.10388308462E+03  0.15940111498E+03  0.91374198884E+02 0.  0.
         23    2    1    2    0    0  0.82148069821E+01 -0.28265210026E+02  0.12543153650E+03  0.15890754775E+03  0.93016843814E+02 0.  0.
        -13    1    3    3    0    0  0.59731542955E+02 -0.46863216935E+02  0.52213403906E+02  0.92142595323E+02  0.00000000000E+00 0. -1.
         13    1    3    3    0    0 -0.33000768624E+02 -0.27656858672E+02  0.51669680710E+02  0.67258519654E+02  0.00000000000E+00 0.  1.
        -13    1    4    4    0    0 -0.35052465579E+02 -0.23435760926E+02  0.99908222364E+02  0.10844151940E+03  0.00000000000E+00 0.  1.
         13    1    4    4    0    0  0.43267272561E+02 -0.48294491003E+01  0.25523314131E+02  0.50466028353E+02  0.00000000000E+00 0. -1.
         21    1    1    2  502  501 -0.34945581313E+02  0.10278528563E+03  0.29477722968E+03  0.31413313059E+03  0.00000000000E+00 0.  1.
<scales pt_clust_5="13000.00000" pt_clust_6="13000.00000" pt_clust_7="13000.00000" pt_clust_8="13000.00000" pt_clust_9="100.96235"></scales>
<clustering>
<clus scale="   91.374">  5  6 -1 -1</clus>
<clus scale="   93.017">  7  8 -1 -1</clus>
<clus scale="   97.563">  2  7  1 -1</clus>
<clus scale="  100.962">  1  9  2 -1</clus>
<clus scale="   97.563">  2  5  1 -1</clus>
</clustering>
</event>
<event>
 9    1  0.2423659E-006  0.1537333E+03  0.7546771E-02  0.1218239E+00
         -3   -1    0    0    0  501 -0.00000000000E+00  0.00000000000E+00  0.27057890035E+03  0.27057890035E+03  0.00000000000E+00 0.  1.
          3   -1    0    0  502    0  0.00000000000E+00 -0.00000000000E+00 -0.41016437967E+03  0.41016437967E+03  0.00000000000E+00 0. -1.
         23    2    1    2    0    0 -0.13577591725E+02 -0.16751636201E+02  0.21029843372E+03  0.23088644898E+03  0.92834006622E+02 0.  0.
         23    2    1    2    0    0  0.60975647387E+02 -0.10029352627E+03 -0.13914814167E+03  0.20418283757E+03  0.92474887619E+02 0.  0.
        -11    1    4    4    0    0  0.16084565226E+02 -0.41439213894E+02  0.23285186135E+01  0.44512286906E+02  0.00000000000E+00 0.  1.
         11    1    4    4    0    0  0.44891082160E+02 -0.58854312376E+02 -0.14147666029E+03  0.15967055066E+03  0.00000000000E+00 0. -1.
        -13    1    3    3    0    0 -0.29598342517E+02  0.12136905325E+02  0.19967815583E+02  0.37710476128E+02  0.00000000000E+00 0. -1.
         13    1    3    3    0    0  0.16020750792E+02 -0.28888541526E+02  0.19033061814E+03  0.19317597285E+03  0.00000000000E+00 0.  1.
         21    1    1    2  502  501 -0.47398055661E+02  0.11704516247E+03 -0.21073577136E+03  0.24567399347E+03  0.00000000000E+00 0. -1.
<scales pt_clust_5="13000.00000" pt_clust_6="13000.00000" pt_clust_7="13000.00000" pt_clust_8="13000.00000" pt_clust_9="122.81006"></scales>
<clustering>
<clus scale="   92.475">  5  6 -1 -1</clus>
<clus scale="   92.834">  7  8 -1 -1</clus>
<clus scale="   95.305">  1  7  2 -1</clus>
<clus scale="  122.810">  2  9  1 -1</clus>
<clus scale="  122.810">  2  5  1 -1</clus>
</clustering>
</event>
<event>
 9    1  0.2423659E-006  0.2941279E+03  0.7546771E-02  0.1129865E+00
         -2   -1    0    0    0  501 -0.00000000000E+00  0.00000000000E+00  0.24825392556E+03  0.24825392556E+03  0.00000000000E+00 0.  1.
          2   -1    0    0  502    0  0.00000000000E+00 -0.00000000000E+00 -0.91419816369E+03  0.91419816369E+03  0.00000000000E+00 0. -1.
         23    2    1    2    0    0 -0.16638681389E+03 -0.22395419470E+03  0.83914336248E+02  0.30533389262E+03  0.91362557963E+02 0.  0.
         23    2    1    2    0    0 -0.38164886805E+02  0.25748880772E+02 -0.36154680705E+03  0.37554496921E+03  0.90544832895E+02 0.  0.
        -11    1    4    4    0    0 -0.10685336020E+02  0.58131108585E+02 -0.20927143529E+03  0.21745789436E+03  0.00000000000E+00 0.  1.
         11    1    4    4    0    0 -0.27479550785E+02 -0.32382227813E+02 -0.15227537176E+03  0.15808707485E+03  0.00000000000E+00 0. -1.
        -11    1    3    3    0    0 -0.11349117288E+03 -0.13684755477E+03  0.97103030697E+02  0.20257467299E+03  0.00000000000E+00 0.  1.
         11    1    3    3    0    0 -0.52895641003E+02 -0.87106639933E+02 -0.13188694449E+02  0.10275921963E+03  0.00000000000E+00 0. -1.
         21    1    1    2  502  501  0.20455170069E+03  0.19820531393E+03 -0.38831176732E+03  0.48157322742E+03  0.00000000000E+00 0. -1.
<scales pt_clust_5="13000.00000" pt_clust_6="13000.00000" pt_clust_7="13000.00000" pt_clust_8="13000.00000" pt_clust_9="279.57845"></scales>
<clustering>
<clus scale="   90.545">  5  6 -1 -1</clus>
<clus scale="   91.363">  7  8 -1 -1</clus>
<clus scale="  101.577">  2  5  1 -1</clus>
<clus scale="  279.578">  2  9  1 -1</clus>
<clus scale="  101.577">  2  5  1 -1</clus>
</clustering>
</event>
<event>
 9    1  0.2423659E-006  0.1155149E+03  0.7546771E-02  0.1252524E+00
         -2   -1    0    0    0  501 -0.00000000000E+00  0.00000000000E+00  0.85937458856E+02  0.85937458856E+02  0.00000000000E+00 0.  1.
          2   -1    0    0  502    0  0.00000000000E+00 -0.00000000000E+00 -0.38476733871E+03  0.38476733871E+03  0.00000000000E+00 0. -1.
         23    2    1    2    0    0  0.60561238722E+02  0.14365508347E+02 -0.16881533769E+01  0.11062485929E+03  0.91438384531E+02 0.  0.
         23    2    1    2    0    0 -0.57204627941E+02  0.35139352021E+02 -0.28603066706E+03  0.30923258163E+03  0.96457781061E+02 0.  0.
        -11    1    4    4    0    0 -0.83595578145E+02  0.32346929550E+02 -0.23861563951E+03  0.25489599439E+03  0.00000000000E+00 0. -1.
         11    1    4    4    0    0  0.26390950204E+02  0.27924224711E+01 -0.47415027546E+02  0.54336587242E+02  0.00000000000E+00 0.  1.
        -13    1    3    3    0    0  0.15687569224E+02  0.50104738121E+02 -0.71974082265E+01  0.52994219454E+02  0.00000000000E+00 0. -1.
         13    1    3    3    0    0  0.44873669498E+02 -0.35739229773E+02  0.55092548496E+01  0.57630639837E+02  0.00000000000E+00 0.  1.
         21    1    1    2  502  501 -0.33566107809E+01 -0.49504860369E+02 -0.11111059418E+02  0.50847356642E+02  0.00000000000E+00 0.  1.
<scales pt_clust_5="13000.00000" pt_clust_6="13000.00000" pt_clust_7="13000.00000" pt_clust_8="13000.00000" pt_clust_9="49.61853"></scales>
<clustering>
<clus scale="   49.619">  1  9  2 -1</clus>
<clus scale="   91.438">  7  8 -1 -1</clus>
<clus scale="   96.458">  5  6 -1 -1</clus>
<clus scale="  111.358">  1  7  2 -1</clus>
<clus scale="  115.515">  2  5  1 -1</clus>
</clustering>
</event>
<event>
 9    1  0.2423659E-006  0.1027682E+03  0.7546771E-02  0.1285132E+00
          3   -1    0    0  502    0  0.00000000000E+00  0.00000000000E+00  0.19076586695E+03  0.19076586695E+03  0.00000000000E+00 0. -1.
         -3   -1    0    0    0  501 -0.00000000000E+00 -0.00000000000E+00 -0.31428550620E+03  0.31428550620E+03  0.00000000000E+00 0.  1.
         23    2    1    2    0    0  0.25175119666E+01 -0.27507090967E+02 -0.12097992525E+03  0.14228654718E+03  0.69615668316E+02 0.  0.
         23    2    1    2    0    0 -0.49483244025E+02 -0.21359983928E+02  0.15698117810E+03  0.18944233460E+03  0.91326160033E+02 0.  0.
        -11    1    4    4    0    0 -0.12631856410E+02 -0.47955201343E+02  0.39249861498E+02  0.63244104546E+02  0.00000000000E+00 0.  1.
         11    1    4    4    0    0 -0.36851387615E+02  0.26595217415E+02  0.11773131660E+03  0.12619823005E+03  0.00000000000E+00 0. -1.
        -13    1    3    3    0    0 -0.33311636201E+02 -0.99965743860E+01 -0.50742022454E+02  0.61517066320E+02  0.00000000000E+00 0.  1.
         13    1    3    3    0    0  0.35829148168E+02 -0.17510516581E+02 -0.70237902795E+02  0.80769480860E+02  0.00000000000E+00 0. -1.
         21    1    1    2  502  501  0.46965732058E+02  0.48867074895E+02 -0.15952089210E+03  0.17332249137E+03  0.00000000000E+00 0.  1.
<scales pt_clust_5="13000.00000" pt_clust_6="13000.00000" pt_clust_7="13000.00000" pt_clust_8="13000.00000" pt_clust_9="67.77736"></scales>
<clustering>
<clus scale="   67.777">  2  9  1 -1</clus>
<clus scale="   69.616">  7  8 -1 -1</clus>
<clus scale="   84.067">  2  7  1 -1</clus>
<clus scale="   91.326">  5  6 -1 -1</clus>
<clus scale="  102.768">  1  5  2 -1</clus>
</clustering>
</event>
<event>
 9    1  0.2423659E-006  0.1154869E+03  0.7546771E-02  0.1251243E+00
         -2   -1    0    0    0  501 -0.00000000000E+00  0.00000000000E+00  0.27311556487E+02  0.27311556487E+02  0.00000000000E+00 0.  1.
          2   -1    0    0  502    0  0.00000000000E+00 -0.00000000000E+00 -0.12983878420E+04  0.12983878420E+04  0.00000000000E+00 0. -1.
         23    2    1    2    0    0 -0.33991405437E+02 -0.12882178175E+02 -0.23397054600E+03  0.25468709806E+03  0.93818630152E+02 0.  0.
         23    2    1    2    0    0  0.98799655487E+02  0.70703939569E+02 -0.40204275599E+03  0.43003768439E+03  0.92377558728E+02 0.  0.
        -11    1    3    3    0    0 -0.55923145243E+02  0.21228751630E+02 -0.13061870549E+03  0.14366385869E+03  0.00000000000E+00 0. -1.
         11    1    3    3    0    0  0.21931739806E+02 -0.34110929806E+02 -0.10335184051E+03  0.11102323937E+03  0.00000000000E+00 0.  1.
        -11    1    4    4    0    0  0.14486819299E+02  0.26632790619E+02 -0.19982789232E+02  0.36310953375E+02  0.00000000000E+00 0.  1.
         11    1    4    4    0    0  0.84312836188E+02  0.44071148950E+02 -0.38205996676E+03  0.39372673102E+03  0.00000000000E+00 0. -1.
         21    1    1    2  502  501 -0.64808250051E+02 -0.57821761393E+02 -0.63506298355E+03  0.64097461607E+03  0.00000000000E+00 0.  1.
<scales pt_clust_5="13000.00000" pt_clust_6="13000.00000" pt_clust_7="13000.00000" pt_clust_8="13000.00000" pt_clust_9="86.85313"></scales>
<clustering>
<clus scale="   86.853">  2  9  1 -1</clus>
<clus scale="   92.378">  7  8 -1 -1</clus>
<clus scale="   93.819">  5  6 -1 -1</clus>
<clus scale="  114.319">  2  7  1 -1</clus>
<clus scale="   86.853">  2  5  1 -1</clus>
</clustering>
</event>
<event>
 9    1  0.2423659E-006  0.1072369E+03  0.7546771E-02  0.1266015E+00
         -2   -1    0    0    0  501 -0.00000000000E+00  0.00000000000E+00  0.59335037762E+02  0.59335037762E+02  0.00000000000E+00 0.  1.
          2   -1    0    0  502    0  0.00000000000E+00 -0.00000000000E+00 -0.54030850786E+03  0.54030850786E+03  0.00000000000E+00 0. -1.
         23    2    1    2    0    0  0.32137375769E+02 -0.41951401399E+02 -0.74294248721E+02  0.12914406172E+03  0.91464869129E+02 0.  0.
         23    2    1    2    0    0 -0.98149304636E+02 -0.30298782895E+02 -0.21000995145E+03  0.25082594062E+03  0.90874476803E+02 0.  0.
        -11    1    3    3    0    0  0.27996390199E+02 -0.66539149128E+02 -0.75136628431E+02  0.10419582124E+03  0.00000000000E+00 0.  1.
         11    1    3    3    0    0  0.41409855692E+01  0.24587747729E+02  0.84237970978E+00  0.24948240488E+02  0.00000000000E+00 0. -1.
        -11    1    4    4    0    0 -0.52632834467E+02 -0.38230384051E+02 -0.44071059835E+02  0.78575033208E+02  0.00000000000E+00 0.  1.
         11    1    4    4    0    0 -0.45516470168E+02  0.79316011555E+01 -0.16593889162E+03  0.17225090741E+03  0.00000000000E+00 0. -1.
         21    1    1    2  502  501  0.66011928867E+02  0.72250184294E+02 -0.19666926993E+03  0.21967354328E+03  0.00000000000E+00 0. -1.
<scales pt_clust_5="13000.00000" pt_clust_6="13000.00000" pt_clust_7="13000.00000" pt_clust_8="13000.00000" pt_clust_9="97.86554"></scales>
<clustering>
<clus scale="   90.874">  7  8 -1 -1</clus>
<clus scale="   91.465">  5  6 -1 -1</clus>
<clus scale="   97.866">  2  9  1 -1</clus>
<clus scale="  106.734">  2  7  1 -1</clus>
<clus scale="   97.866">  2  5  1 -1</clus>
</clustering>
</event>
<event>
 9    1  0.2423659E-006  0.1009175E+03  0.7546771E-02  0.1278875E+00
          3   -1    0    0  502    0  0.00000000000E+00  0.00000000000E+00  0.54685960259E+02  0.54685960259E+02  0.00000000000E+00 0. -1.
         -3   -1    0    0    0  501 -0.00000000000E+00 -0.00000000000E+00 -0.45305352225E+03  0.45305352225E+03  0.00000000000E+00 0.  1.
         23    2    1    2    0    0  0.10277112937E+02  0.61494368540E+02 -0.26786000690E+03  0.29016982850E+03  0.92533073342E+02 0.  0.
         23    2    1    2    0    0 -0.15672885874E+02 -0.32481422410E+02 -0.16395247694E+02  0.99703271576E+02  0.91494568487E+02 0.  0.
        -11    1    3    3    0    0  0.33884102972E+02  0.71713970756E+01 -0.18560180719E+03  0.18880569961E+03  0.00000000000E+00 0. -1.
         11    1    3    3    0    0 -0.23606990036E+02  0.54322971464E+02 -0.82258199706E+02  0.10136412889E+03  0.00000000000E+00 0.  1.
        -13    1    4    4    0    0  0.19239105888E+02 -0.14979629226E+02  0.30259331581E+02  0.38860772443E+02  0.00000000000E+00 0. -1.
         13    1    4    4    0    0 -0.34911991762E+02 -0.17501793184E+02 -0.46654579275E+02  0.60842499133E+02  0.00000000000E+00 0.  1.
         21    1    1    2  502  501  0.53957729374E+01 -0.29012946129E+02 -0.11411230740E+03  0.11786638244E+03  0.00000000000E+00 0. -1.
<scales pt_clust_5="13000.00000" pt_clust_6="13000.00000" pt_clust_7="13000.00000" pt_clust_8="13000.00000" pt_clust_9="29.51043"></scales>
<clustering>
<clus scale="   29.510">  2  9  1 -1</clus>
<clus scale="   91.495">  7  8 -1 -1</clus>
<clus scale="   92.533">  5  6 -1 -1</clus>
<clus scale="   99.966">  1  7  2 -1</clus>
<clus scale="   99.966">  1  5  2 -1</clus>
</clustering>
</event>
<event>
 9    1  0.2423659E-006  0.1052489E+03  0.7546771E-02  0.1270261E+00
         -2   -1    0    0    0  501 -0.00000000000E+00  0.00000000000E+00  0.38679933855E+03  0.38679933855E+03  0.00000000000E+00 0.  1.
          2   -1    0    0  502    0  0.00000000000E+00 -0.00000000000E+00 -0.50222066866E+02  0.50222066866E+02  0.00000000000E+00 0. -1.
         23    2    1    2    0    0  0.61911616505E+02 -0.21254911494E+02  0.23287894107E+03  0.25864447671E+03  0.91539852632E+02 0.  0.
         23    2    1    2    0    0 -0.24902857952E+02  0.23613764888E+02  0.10331061785E+03  0.14129104567E+03  0.90068382904E+02 0.  0.
        -11    1    3    3    0    0  0.14431890362E+02  0.29550805654E+02  0.13257846609E+03  0.13659641007E+03  0.00000000000E+00 0. -1.
         11    1    3    3    0    0  0.47479726143E+02 -0.50805717148E+02  0.10030047498E+03  0.12204806664E+03  0.00000000000E+00 0.  1.
        -13    1    4    4    0    0  0.18290645521E+02 -0.18593393686E+02  0.64318774096E+02  0.69405811742E+02  0.00000000000E+00 0.  1.
         13    1    4    4    0    0 -0.43193503473E+02  0.42207158574E+02  0.38991843753E+02  0.71885233925E+02  0.00000000000E+00 0. -1.
         21    1    1    2  502  501 -0.37008758553E+02 -0.23588533944E+01  0.38771276097E+00  0.37085883031E+02  0.00000000000E+00 0. -1.
<scales pt_clust_5="13000.00000" pt_clust_6="13000.00000" pt_clust_7="13000.00000" pt_clust_8="13000.00000" pt_clust_9="37.08386"></scales>
<clustering>
<clus scale="   37.084">  2  9  1 -1</clus>
<clus scale="   90.068">  7  8 -1 -1</clus>
<clus scale="   91.540">  5  6 -1 -1</clus>
<clus scale="  103.972">  2  7  1 -1</clus>
<clus scale="   37.084">  2  5  1 -1</clus>
</clustering>
</event>
<event>
 9    1  0.2423659E-006  0.1490908E+03  0.7546771E-02  0.1202209E+00
         -1   -1    0    0    0  501 -0.00000000000E+00  0.00000000000E+00  0.13661326304E+03  0.13661326304E+03  0.00000000000E+00 0.  1.
          1   -1    0    0  502    0  0.00000000000E+00 -0.00000000000E+00 -0.61838480568E+03  0.61838480568E+03  0.00000000000E+00 0. -1.
         23    2    1    2    0    0  0.41431994293E+02  0.90676341957E+02 -0.20621037499E+02  0.13619043445E+03  0.90464347159E+02 0.  0.
         23    2    1    2    0    0 -0.92932980346E+02 -0.81266009360E+02 -0.51913386212E+03  0.54068609043E+03  0.87182443629E+02 0.  0.
        -13    1    3    3    0    0 -0.59453649114E+01  0.78261993193E+02  0.89224007855E+01  0.78993013478E+02  0.00000000000E+00 0.  1.
         13    1    3    3    0    0  0.47377359205E+02  0.12414348764E+02 -0.29543438285E+02  0.57197420975E+02  0.00000000000E+00 0. -1.
        -13    1    4    4    0    0 -0.39071619402E+02  0.13472578662E+02 -0.16925091045E+03  0.17422391486E+03  0.00000000000E+00 0.  1.
         13    1    4    4    0    0 -0.53861360945E+02 -0.94738588022E+02 -0.34988295166E+03  0.36646217558E+03  0.00000000000E+00 0. -1.
         21    1    1    2  502  501  0.51500986053E+02 -0.94103325970E+01  0.57983356984E+02  0.78121543835E+02  0.00000000000E+00 0.  1.
<scales pt_clust_5="13000.00000" pt_clust_6="13000.00000" pt_clust_7="13000.00000" pt_clust_8="13000.00000" pt_clust_9="52.35366"></scales>
<clustering>
<clus scale="   52.354">  1  9  2 -1</clus>
<clus scale="   87.182">  7  8 -1 -1</clus>
<clus scale="   90.464">  5  6 -1 -1</clus>
<clus scale="  147.123">  2  7  1 -1</clus>
<clus scale="  147.123">  2  5  1 -1</clus>
</clustering>
</event>
<event>
 9    1  0.2423659E-006  0.3794298E+03  0.7546771E-02  0.1051172E+00
         -1   -1    0    0    0  501 -0.00000000000E+00  0.00000000000E+00  0.15702138513E+03  0.15702138513E+03  0.00000000000E+00 0.  1.
          1   -1    0    0  502    0  0.00000000000E+00 -0.00000000000E+00 -0.14571027839E+04  0.14571027839E+04  0.00000000000E+00 0. -1.
         23    2    1    2    0    0  0.65272902556E+02  0.32747140851E+03 -0.46411724312E+03  0.57892124299E+03  0.90812526803E+02 0.  0.
         23    2    1    2    0    0 -0.14422473494E+03 -0.37123514008E+03 -0.85063402358E+03  0.94374877872E+03  0.92017454081E+02 0.  0.
        -11    1    3    3    0    0  0.84085777010E+02  0.20359493478E+03 -0.28117154488E+03  0.35718168068E+03  0.00000000000E+00 0.  1.
         11    1    3    3    0    0 -0.18812874453E+02  0.12387647374E+03 -0.18294569823E+03  0.22173956231E+03  0.00000000000E+00 0. -1.
        -13    1    4    4    0    0 -0.12084859522E+03 -0.18585202218E+03 -0.44612687370E+03  0.49817120004E+03  0.00000000000E+00 0.  1.
         13    1    4    4    0    0 -0.23376139719E+02 -0.18538311791E+03 -0.40450714988E+03  0.44557757868E+03  0.00000000000E+00 0. -1.
         21    1    1    2  502  501  0.78951832387E+02  0.43763731572E+02  0.14669867925E+02  0.91454147327E+02  0.00000000000E+00 0.  1.
<scales pt_clust_5="13000.00000" pt_clust_6="13000.00000" pt_clust_7="13000.00000" pt_clust_8="13000.00000" pt_clust_9="90.26991"></scales>
<clustering>
<clus scale="   90.270">  1  9  2 -1</clus>
<clus scale="   90.813">  5  6 -1 -1</clus>
<clus scale="   92.017">  7  8 -1 -1</clus>
<clus scale="  379.139">  1  5  2 -1</clus>
<clus scale="  379.430">  2  5  1 -1</clus>
</clustering>
</event>
<event>
 9    1  0.2423659E-006  0.9409922E+02  0.7546771E-02  0.1295834E+00
          1   -1    0    0  502    0  0.00000000000E+00  0.00000000000E+00  0.28572976858E+03  0.28572976858E+03  0.00000000000E+00 0. -1.
         -1   -1    0    0    0  501 -0.00000000000E+00 -0.00000000000E+00 -0.13138161367E+03  0.13138161367E+03  0.00000000000E+00 0.  1.
         23    2    1    2    0    0  0.15009602787E+02  0.28272454746E+02 -0.34015200831E+02  0.10279471664E+03  0.91570191701E+02 0.  0.
         23    2    1    2    0    0  0.34089481770E+02 -0.10830794684E+02 -0.22846275579E+02  0.96774853609E+02  0.86971380939E+02 0.  0.
        -11    1    4    4    0    0 -0.24233722238E+02  0.15678837482E+00 -0.28202609484E+02  0.37184473344E+02  0.00000000000E+00 0. -1.
         11    1    4    4    0    0  0.58323204009E+02 -0.10987583059E+02  0.53563339050E+01  0.59590380266E+02  0.00000000000E+00 0.  1.
        -11    1    3    3    0    0  0.33525854596E+02 -0.45483719706E+01 -0.51207186921E+02  0.61374641395E+02  0.00000000000E+00 0.  1.
         11    1    3    3    0    0 -0.18516251810E+02  0.32820826717E+02  0.17191986090E+02  0.41420075244E+02  0.00000000000E+00 0. -1.
         21    1    1    2  502  501 -0.49099084557E+02 -0.17441660062E+02  0.21120963132E+03  0.21754181200E+03  0.00000000000E+00 0. -1.
<scales pt_clust_5="13000.00000" pt_clust_6="13000.00000" pt_clust_7="13000.00000" pt_clust_8="13000.00000" pt_clust_9="52.10501"></scales>
<clustering>
<clus scale="   52.105">  1  9  2 -1</clus>
<clus scale="   86.971">  5  6 -1 -1</clus>
<clus scale="   89.630">  1  5  2 -1</clus>
<clus scale="   91.570">  7  8 -1 -1</clus>
<clus scale="   52.105">  1  5  2 -1</clus>
</clustering>
</event>
<event>
 9    1  0.2423659E-006  0.9752474E+02  0.7546771E-02  0.1285753E+00
          2   -1    0    0  502    0  0.00000000000E+00  0.00000000000E+00  0.72029908860E+03  0.72029908860E+03  0.00000000000E+00 0. -1.
         -2   -1    0    0    0  501 -0.00000000000E+00 -0.00000000000E+00 -0.10134098239E+03  0.10134098239E+03  0.00000000000E+00 0.  1.
         23    2    1    2    0    0  0.43074165879E+02  0.15212271337E+02 -0.44706709573E+02  0.11154524112E+03  0.91415829972E+02 0.  0.
         23    2    1    2    0    0  0.88012260763E+00  0.46475674447E+02  0.10593517616E+03  0.14724517584E+03  0.91094002704E+02 0.  0.
        -11    1    4    4    0    0  0.14729896922E+02 -0.24833129068E+02  0.22399561604E+02  0.36543050265E+02  0.00000000000E+00 0.  1.
         11    1    4    4    0    0 -0.13849774314E+02  0.71308803515E+02  0.83535614555E+02  0.11070212557E+03  0.00000000000E+00 0. -1.
        -11    1    3    3    0    0  0.56596088343E+01  0.26629598818E+02 -0.62798936451E+02  0.68446133016E+02  0.00000000000E+00 0.  1.
         11    1    3    3    0    0  0.37414557045E+02 -0.11417327481E+02  0.18092226879E+02  0.43099108101E+02  0.00000000000E+00 0. -1.
         21    1    1    2  502  501 -0.43954288487E+02 -0.61687945785E+02  0.55772963963E+03  0.56284965404E+03  0.00000000000E+00 0. -1.
<scales pt_clust_5="13000.00000" pt_clust_6="13000.00000" pt_clust_7="13000.00000" pt_clust_8="13000.00000" pt_clust_9="75.74551"></scales>
<clustering>
<clus scale="   75.746">  1  9  2 -1</clus>
<clus scale="   91.094">  5  6 -1 -1</clus>
<clus scale="   91.416">  7  8 -1 -1</clus>
<clus scale="   97.223">  1  5  2 -1</clus>
<clus scale="   75.746">  1  5  2 -1</clus>
</clustering>
</event>
<event>
 9    1  0.2423659E-006  0.1820960E+03  0.7546771E-02  0.1183639E+00
         -1   -1    0    0    0  501 -0.00000000000E+00  0.00000000000E+00  0.42609500073E+03  0.42609500073E+03  0.00000000000E+00 0.  1.
          1   -1    0    0  502    0  0.00000000000E+00 -0.00000000000E+00 -0.53022693029E+03  0.53022693029E+03  0.00000000000E+00 0. -1.
         23    2    1    2    0    0  0.23084781499E+02  0.71561769580E+02  0.33987983388E+03  0.36093017412E+03  0.95384983665E+02 0.  0.
         23    2    1    2    0    0  0.13635010360E+03 -0.71755138746E+02 -0.80099061478E+02  0.19808586137E+03  0.95299518022E+02 0.  0.
        -11    1    4    4    0    0  0.10979522086E+03 -0.14032330198E+02 -0.76292694577E+02  0.13443389476E+03  0.00000000000E+00 0.  1.
         11    1    4    4    0    0  0.26554882743E+02 -0.57722808548E+02 -0.38063669013E+01  0.63651966608E+02  0.00000000000E+00 0. -1.
        -11    1    3    3    0    0  0.22079902105E+02 -0.20057340170E+02  0.84827148844E+02  0.89919209030E+02  0.00000000000E+00 0. -1.
         11    1    3    3    0    0  0.10048793939E+01  0.91619109750E+02  0.25505268503E+03  0.27101096509E+03  0.00000000000E+00 0.  1.
         21    1    1    2  502  501 -0.15943488510E+03  0.19336916502E+00 -0.36391270196E+03  0.39730589553E+03  0.00000000000E+00 0.  1.
<scales pt_clust_5="13000.00000" pt_clust_6="13000.00000" pt_clust_7="13000.00000" pt_clust_8="13000.00000" pt_clust_9="155.16755"></scales>
<clustering>
<clus scale="   95.300">  5  6 -1 -1</clus>
<clus scale="   95.385">  7  8 -1 -1</clus>
<clus scale="  121.459">  1  7  2 -1</clus>
<clus scale="  155.168">  2  9  1 -1</clus>
<clus scale="  155.168">  2  5  1 -1</clus>
</clustering>
</event>
<event>
 9    1  0.2423659E-006  0.1787913E+03  0.7546771E-02  0.1192708E+00
         -2   -1    0    0    0  501 -0.00000000000E+00  0.00000000000E+00  0.16531955083E+03  0.16531955083E+03  0.00000000000E+00 0.  1.
          2   -1    0    0  502    0  0.00000000000E+00 -0.00000000000E+00 -0.31183162584E+03  0.31183162584E+03  0.00000000000E+00 0. -1.
         23    2    1    2    0    0  0.13019471504E+03 -0.83802514321E+02 -0.10257989491E+03  0.20614994918E+03  0.89451894777E+02 0.  0.
         23    2    1    2    0    0 -0.30604457066E+02 -0.38051458882E+02 -0.43542549245E+02  0.11362663589E+03  0.92900551529E+02 0.  0.
        -11    1    3    3    0    0  0.10451494945E+03 -0.42627621842E+02 -0.26550951626E+02  0.11595448174E+03  0.00000000000E+00 0.  1.
         11    1    3    3    0    0  0.25679765583E+02 -0.41174892480E+02 -0.76028943281E+02  0.90195467444E+02  0.00000000000E+00 0. -1.
        -13    1    4    4    0    0 -0.55166706538E+02 -0.23031482084E+02 -0.56315779927E+02  0.82129664227E+02  0.00000000000E+00 0.  1.
         13    1    4    4    0    0  0.24562249471E+02 -0.15019976798E+02  0.12773230682E+02  0.31496971666E+02  0.00000000000E+00 0. -1.
         21    1    1    2  502  501 -0.99590257969E+02  0.12185397320E+03 -0.38963085859E+00  0.15737459160E+03  0.00000000000E+00 0.  1.
<scales pt_clust_5="13000.00000" pt_clust_6="13000.00000" pt_clust_7="13000.00000" pt_clust_8="13000.00000" pt_clust_9="154.80533"></scales>
<clustering>
<clus scale="   89.452">  5  6 -1 -1</clus>
<clus scale="   92.901">  7  8 -1 -1</clus>
<clus scale="  104.953">  2  7  1 -1</clus>
<clus scale="  154.805">  1  9  2 -1</clus>
<clus scale="  104.953">  2  5  1 -1</clus>
</clustering>
</event>
<event>
 9    1  0.2423659E-006  0.1160475E+03  0.7546771E-02  0.1255237E+00
         -2   -1    0    0    0  501 -0.00000000000E+00  0.00000000000E+00  0.44099528990E+03  0.44099528990E+03  0.00000000000E+00 0.  1.
          2   -1    0    0  502    0  0.00000000000E+00 -0.00000000000E+00 -0.62111823930E+02  0.62111823930E+02  0.00000000000E+00 0. -1.
         23    2    1    2    0    0 -0.22890138953E+02  0.66018736749E+02  0.19666230960E+03  0.23419098329E+03  0.10623991986E+03 0.  0.
         23    2    1    2    0    0  0.53903232002E+02  0.17176322172E+02  0.10487562568E+03  0.15116401427E+03  0.93011170752E+02 0.  0.
        -11    1    4    4    0    0  0.65850798915E+02  0.41554992875E+02  0.93632124472E+02  0.12177897965E+03  0.00000000000E+00 0.  1.
         11    1    4    4    0    0 -0.11947566913E+02 -0.24378670703E+02  0.11243501207E+02  0.29385034623E+02  0.00000000000E+00 0. -1.
        -11    1    3    3    0    0  0.16818482949E+02  0.82092925730E+02  0.13990935316E+03  0.16308506040E+03  0.00000000000E+00 0.  1.
         11    1    3    3    0    0 -0.39708621901E+02 -0.16074188981E+02  0.56752956439E+02  0.71105922885E+02  0.00000000000E+00 0. -1.
         21    1    1    2  502  501 -0.31013093049E+02 -0.83195058921E+02  0.77345530684E+02  0.11775211627E+03  0.00000000000E+00 0. -1.
<scales pt_clust_5="13000.00000" pt_clust_6="13000.00000" pt_clust_7="13000.00000" pt_clust_8="13000.00000" pt_clust_9="88.78755"></scales>
<clustering>
<clus scale="   88.788">  2  9  1 -1</clus>
<clus scale="   93.011">  5  6 -1 -1</clus>
<clus scale="  104.073">  2  5  1 -1</clus>
<clus scale="  106.240">  7  8 -1 -1</clus>
<clus scale="   88.788">  2  5  1 -1</clus>
</clustering>
</event>
<event>
 9    1  0.2423659E-006  0.2254585E+03  0.7546771E-02  0.1156464E+00
         -1   -1    0    0    0  501 -0.00000000000E+00  0.00000000000E+00  0.11518556426E+03  0.11518556426E+03  0.00000000000E+00 0.  1.
          1   -1    0    0  502    0  0.00000000000E+00 -0.00000000000E+00 -0.87395402522E+03  0.87395402522E+03  0.00000000000E+00 0. -1.
         23    2    1    2    0    0 -0.10363988685E+02  0.45190127588E+02 -0.71665901063E+02  0.13904197439E+03  0.10975932477E+03 0.  0.
         23    2    1    2    0    0 -0.18824050080E+03 -0.89752334951E+02 -0.57346876425E+03  0.61698353768E+03  0.91171785279E+02 0.  0.
        -11    1    3    3    0    0 -0.44081832572E+02  0.52124730250E+02 -0.78410959653E+02  0.10396381130E+03  0.00000000000E+00 0. -1.
         11    1    3    3    0    0  0.33717843887E+02 -0.69346026624E+01  0.67450585905E+01  0.35078163091E+02  0.00000000000E+00 0.  1.
        -11    1    4    4    0    0 -0.17421876250E+03 -0.44301498366E+02 -0.44077562651E+03  0.47602305920E+03  0.00000000000E+00 0. -1.
         11    1    4    4    0    0 -0.14021738303E+02 -0.45450836585E+02 -0.13269313773E+03  0.14096047848E+03  0.00000000000E+00 0.  1.
         21    1    1    2  502  501  0.19860448949E+03  0.44562207363E+02 -0.11363379565E+03  0.23311407740E+03  0.00000000000E+00 0.  1.
<scales pt_clust_5="13000.00000" pt_clust_6="13000.00000" pt_clust_7="13000.00000" pt_clust_8="13000.00000" pt_clust_9="206.20192"></scales>
<clustering>
<clus scale="   91.172">  7  8 -1 -1</clus>
<clus scale="  109.759">  5  6 -1 -1</clus>
<clus scale="  119.150">  1  5  2 -1</clus>
<clus scale="  206.202">  1  9  2 -1</clus>
<clus scale="  225.458">  2  5  1 -1</clus>
</clustering>
</event>
<event>
 9    1  0.2423659E-006  0.3173846E+03  0.7546771E-02  0.1122548E+00
          1   -1    0    0  502    0  0.00000000000E+00  0.00000000000E+00  0.31269265926E+03  0.31269265926E+03  0.00000000000E+00 0. -1.
         -1   -1    0    0    0  501 -0.00000000000E+00 -0.00000000000E+00 -0.43788727291E+03  0.43788727291E+03  0.00000000000E+00 0.  1.
         23    2    1    2    0    0  0.15162608137E+03  0.27677561383E+03 -0.12742964833E+03  0.35257581446E+03  0.92066175706E+02 0.  0.
         23    2    1    2    0    0 -0.28494705395E+02 -0.13510993190E+02  0.40219084124E+02  0.10489597343E+03  0.91602922125E+02 0.  0.
        -11    1    3    3    0    0  0.14452157258E+03  0.18990785264E+03 -0.71937840247E+02  0.24925194141E+03  0.00000000000E+00 0. -1.
         11    1    3    3    0    0  0.71045087864E+01  0.86867761184E+02 -0.55491808080E+02  0.10332387305E+03  0.00000000000E+00 0.  1.
        -11    1    4    4    0    0  0.29409004822E+02  0.11849902600E+02  0.23624128051E+02  0.39539969429E+02  0.00000000000E+00 0.  1.
         11    1    4    4    0    0 -0.57903710217E+02 -0.25360895790E+02  0.16594956074E+02  0.65356004003E+02  0.00000000000E+00 0. -1.
         21    1    1    2  502  501 -0.12313137597E+03 -0.26326462064E+03 -0.37984049450E+02  0.29310814427E+03  0.00000000000E+00 0. -1.
<scales pt_clust_5="13000.00000" pt_clust_6="13000.00000" pt_clust_7="13000.00000" pt_clust_8="13000.00000" pt_clust_9="303.73806"></scales>
<clustering>
<clus scale="   91.603">  7  8 -1 -1</clus>
<clus scale="   92.066">  5  6 -1 -1</clus>
<clus scale="   96.879">  1  7  2 -1</clus>
<clus scale="  303.738">  1  9  2 -1</clus>
<clus scale="   96.879">  1  5  2 -1</clus>
</clustering>
</event>
<event>
 9    1  0.2423659E-006  0.9855811E+02  0.7546771E-02  0.1284935E+00
         -1   -1    0    0    0  501 -0.00000000000E+00  0.00000000000E+00  0.49014051427E+03  0.49014051427E+03  0.00000000000E+00 0.  1.
          1   -1    0    0  502    0  0.00000000000E+00 -0.00000000000E+00 -0.39818346555E+02  0.39818346555E+02  0.00000000000E+00 0. -1.
         23    2    1    2    0    0 -0.50636156825E+02 -0.33030234166E+02  0.30862805767E+03  0.32700356053E+03  0.89582553392E+02 0.  0.
         23    2    1    2    0    0 -0.26800259169E+01  0.13482065851E+02  0.97574658886E+02  0.13104374213E+03  0.86386918322E+02 0.  0.
        -11    1    3    3    0    0 -0.17000794689E+02 -0.43352135222E+02  0.27295700499E+03  0.27690063420E+03  0.00000000000E+00 0.  1.
         11    1    3    3    0    0 -0.33635362136E+02  0.10321901056E+02  0.35671052676E+02  0.50102926326E+02  0.00000000000E+00 0. -1.
        -11    1    4    4    0    0  0.17302357600E+02 -0.27347049093E+02  0.71877280205E+02  0.78826239808E+02  0.00000000000E+00 0.  1.
         11    1    4    4    0    0 -0.19982383517E+02  0.40829114944E+02  0.25697378682E+02  0.52217502326E+02  0.00000000000E+00 0. -1.
         21    1    1    2  502  501  0.53316182742E+02  0.19548168315E+02  0.44119451163E+02  0.71911558164E+02  0.00000000000E+00 0.  1.
<scales pt_clust_5="13000.00000" pt_clust_6="13000.00000" pt_clust_7="13000.00000" pt_clust_8="13000.00000" pt_clust_9="56.78685"></scales>
<clustering>
<clus scale="   56.787">  2  9  1 -1</clus>
<clus scale="   86.387">  7  8 -1 -1</clus>
<clus scale="   89.583">  5  6 -1 -1</clus>
<clus scale="   95.663">  2  7  1 -1</clus>
<clus scale="   56.787">  2  5  1 -1</clus>
</clustering>
</event>
<event>
 9    1  0.2423659E-006  0.1671986E+03  0.7546771E-02  0.1206580E+00
          1   -1    0    0  502    0  0.00000000000E+00  0.00000000000E+00  0.21234244084E+03  0.21234244084E+03  0.00000000000E+00 0. -1.
         -1   -1    0    0    0  501 -0.00000000000E+00 -0.00000000000E+00 -0.25107610733E+03  0.25107610733E+03  0.00000000000E+00 0.  1.
         23    2    1    2    0    0 -0.52579174249E+01 -0.43841184815E+02 -0.10131278762E+03  0.13883814959E+03  0.84036037889E+02 0.  0.
         23    2    1    2    0    0  0.93020527015E+02 -0.88376657098E+02  0.52374513600E+02  0.16555849010E+03  0.90571916195E+02 0.  0.
        -11    1    4    4    0    0  0.90064509789E+02 -0.38207683794E+02  0.59941035430E+02  0.11473609176E+03  0.00000000000E+00 0. -1.
         11    1    4    4    0    0  0.29560172265E+01 -0.50168973304E+02 -0.75665218296E+01  0.50822398338E+02  0.00000000000E+00 0.  1.
        -13    1    3    3    0    0 -0.25521294334E+02 -0.58364986145E+01 -0.90807637035E+02  0.94506233257E+02  0.00000000000E+00 0.  1.
         13    1    3    3    0    0  0.20263376909E+02 -0.38004686201E+02 -0.10505150590E+02  0.44331916334E+02  0.00000000000E+00 0. -1.
         21    1    1    2  502  501 -0.87762609590E+02  0.13221784191E+03  0.10204607539E+02  0.15902190848E+03  0.00000000000E+00 0.  1.
<scales pt_clust_5="13000.00000" pt_clust_6="13000.00000" pt_clust_7="13000.00000" pt_clust_8="13000.00000" pt_clust_9="140.54222"></scales>
<clustering>
<clus scale="   84.036">  7  8 -1 -1</clus>
<clus scale="   90.572">  5  6 -1 -1</clus>
<clus scale="   94.930">  2  7  1 -1</clus>
<clus scale="  140.542">  2  9  1 -1</clus>
<clus scale="  167.199">  1  5  2 -1</clus>
</clustering>
</event>
<event>
 9    1  0.2423659E-006  0.1731331E+03  0.7546771E-02  0.1195510E+00
          2   -1    0    0  502    0  0.00000000000E+00  0.00000000000E+00  0.25243439898E+03  0.25243439898E+03  0.00000000000E+00 0. -1.
         -2   -1    0    0    0  501 -0.00000000000E+00 -0.00000000000E+00 -0.20740074618E+03  0.20740074618E+03  0.00000000000E+00 0.  1.
         23    2    1    2    0    0  0.15488265400E+03 -0.66277261363E+02 -0.75648720881E+02  0.20626578998E+03  0.91877827912E+02 0.  0.
         23    2    1    2    0    0 -0.52290417136E+02  0.29617752085E+02  0.32618041912E+02  0.11348219225E+03  0.90569157756E+02 0.  0.
        -11    1    4    4    0    0 -0.71714514855E+02  0.45994849192E+00  0.11662498798E+02  0.72658083320E+02  0.00000000000E+00 0. -1.
         11    1    4    4    0    0  0.19424097719E+02  0.29157803593E+02  0.20955543114E+02  0.40824108929E+02  0.00000000000E+00 0.  1.
        -11    1    3    3    0    0  0.11668224684E+03 -0.32500389138E+02 -0.92670064249E+02  0.15250823856E+03  0.00000000000E+00 0.  1.
         11    1    3    3    0    0  0.38200407165E+02 -0.33776872225E+02  0.17021343368E+02  0.53757551422E+02  0.00000000000E+00 0. -1.
         21    1    1    2  502  501 -0.10259223687E+03  0.36659509278E+02  0.88064331769E+02  0.14008716292E+03  0.00000000000E+00 0. -1.
<scales pt_clust_5="13000.00000" pt_clust_6="13000.00000" pt_clust_7="13000.00000" pt_clust_8="13000.00000" pt_clust_9="146.74315"></scales>
<clustering>
<clus scale="   90.569">  5  6 -1 -1</clus>
<clus scale="   91.878">  7  8 -1 -1</clus>
<clus scale="  108.693">  1  5  2 -1</clus>
<clus scale="  146.743">  1  9  2 -1</clus>
<clus scale="  108.693">  1  5  2 -1</clus>
</clustering>
</event>
<event>
 9    1  0.4838927E-006  0.2484205E+03  0.7546771E-02  0.1147846E+00
         -1   -1    0    0    0  501 -0.00000000000E+00  0.00000000000E+00  0.40274734132E+03  0.40274734132E+03  0.00000000000E+00 0.  1.
          1   -1    0    0  502    0  0.00000000000E+00 -0.00000000000E+00 -0.39250694985E+03  0.39250694985E+03  0.00000000000E+00 0. -1.
         23    2    1    2    0    0 -0.12647415328E+03  0.21284949151E+03  0.25705277676E+03  0.36771355471E+03  0.88524069006E+02 0.  0.
         23    2    1    2    0    0  0.43609279067E+02 -0.33930869456E+02 -0.19531423349E+03  0.22375035314E+03  0.94146150229E+02 0.  0.
        -11    1    3    3    0    0 -0.12474864171E+03  0.15118789429E+03  0.22428285973E+03  0.29786373421E+03  0.00000000000E+00 0.  1.
         11    1    3    3    0    0 -0.17255115664E+01  0.61661597216E+02  0.32769917032E+02  0.69849820499E+02  0.00000000000E+00 0. -1.
        -13    1    4    4    0    0  0.69990405524E+02 -0.28905521720E+02 -0.10452398571E+03  0.12907149042E+03  0.00000000000E+00 0. -1.
         13    1    4    4    0    0 -0.26381126457E+02 -0.50253477365E+01 -0.90790247784E+02  0.94678862719E+02  0.00000000000E+00 0.  1.
         21    1    1    2  502  501  0.82864874214E+02 -0.17891862205E+03 -0.51498151795E+02  0.20379038332E+03  0.00000000000E+00 0. -1.
<scales pt_clust_5="13000.00000" pt_clust_6="13000.00000" pt_clust_7="13000.00000" pt_clust_8="13000.00000" pt_clust_9="232.11257"></scales>
<clustering>
<clus scale="   88.524">  5  6 -1 -1</clus>
<clus scale="   94.146">  7  8 -1 -1</clus>
<clus scale="  109.163">  2  7  1 -1</clus>
<clus scale="  232.113">  2  9  1 -1</clus>
<clus scale="  109.163">  2  5  1 -1</clus>
</clustering>
</event>
<event>
 9    1  0.2423659E-006  0.1016744E+03  0.7546771E-02  0.1282163E+00
         -1   -1    0    0    0  501 -0.00000000000E+00  0.00000000000E+00  0.53371228359E+02  0.53371228359E+02  0.00000000000E+00 0.  1.
          1   -1    0    0  502    0  0.00000000000E+00 -0.00000000000E+00 -0.56388085584E+03  0.56388085584E+03  0.00000000000E+00 0. -1.
         23    2    1    2    0    0 -0.26636659816E+02 -0.33974776554E+02 -0.51424644757E+02  0.11985894134E+03  0.99286830162E+02 0.  0.
         23    2    1    2    0    0 -0.35035220384E+02 -0.22209712199E+00 -0.13388788168E+03  0.16463797535E+03  0.89175008109E+02 0.  0.
        -11    1    3    3    0    0  0.74615053710E+01  0.25412987476E+02 -0.43489903478E+02  0.50920189507E+02  0.00000000000E+00 0. -1.
         11    1    3    3    0    0 -0.34098165187E+02 -0.59387764030E+02 -0.79347412786E+01  0.68938751837E+02  0.00000000000E+00 0.  1.
        -13    1    4    4    0    0 -0.17806326033E+02 -0.44467860780E+02 -0.75011371794E+02  0.89000908915E+02  0.00000000000E+00 0.  1.
         13    1    4    4    0    0 -0.17228894351E+02  0.44245763658E+02 -0.58876509889E+02  0.75637066436E+02  0.00000000000E+00 0. -1.
         21    1    1    2  502  501  0.61671880201E+02  0.34196873676E+02 -0.32519710104E+03  0.33275516750E+03  0.00000000000E+00 0. -1.
<scales pt_clust_5="13000.00000" pt_clust_6="13000.00000" pt_clust_7="13000.00000" pt_clust_8="13000.00000" pt_clust_9="70.51842"></scales>
<clustering>
<clus scale="   70.518">  2  9  1 -1</clus>
<clus scale="   89.175">  7  8 -1 -1</clus>
<clus scale="   91.826">  2  7  1 -1</clus>
<clus scale="   99.287">  5  6 -1 -1</clus>
<clus scale="   70.518">  2  5  1 -1</clus>
</clustering>
</event>
<event>
 9    1  0.2423659E-006  0.1709622E+03  0.7546771E-02  0.1180401E+00
          1   -1    0    0  502    0  0.00000000000E+00  0.00000000000E+00  0.10017834773E+04  0.10017834773E+04  0.00000000000E+00 0. -1.
         -1   -1    0    0    0  501 -0.00000000000E+00 -0.00000000000E+00 -0.17703970156E+03  0.17703970156E+03  0.00000000000E+00 0.  1.
         23    2    1    2    0    0  0.40148700377E+02  0.12137814779E+03 -0.49068545888E+02  0.16526101058E+03  0.92514358449E+02 0.  0.
         23    2    1    2    0    0 -0.13798639143E+03  0.38980503393E+02  0.78933007729E+03  0.80759042165E+03  0.92739389445E+02 0.  0.
        -13    1    4    4    0    0 -0.12543956967E+02  0.18504505131E+02  0.28525686271E+02  0.36241996962E+02  0.00000000000E+00 0.  1.
         13    1    4    4    0    0 -0.12544243446E+03  0.20475998262E+02  0.76080439102E+03  0.77134842468E+03  0.00000000000E+00 0. -1.
        -13    1    3    3    0    0  0.60890754325E+02  0.11112705121E+03 -0.59369703178E+02  0.13993451014E+03  0.00000000000E+00 0.  1.
         13    1    3    3    0    0 -0.20742053948E+02  0.10251096586E+02  0.10301157290E+02  0.25326500443E+02  0.00000000000E+00 0. -1.
         21    1    1    2  502  501  0.97837691050E+02 -0.16035865119E+03  0.84482244315E+02  0.20597174662E+03  0.00000000000E+00 0.  1.
<scales pt_clust_5="13000.00000" pt_clust_6="13000.00000" pt_clust_7="13000.00000" pt_clust_8="13000.00000" pt_clust_9="143.62266"></scales>
<clustering>
<clus scale="   92.514">  7  8 -1 -1</clus>
<clus scale="   92.739">  5  6 -1 -1</clus>
<clus scale="  157.808">  2  7  1 -1</clus>
<clus scale="  143.623">  2  9  1 -1</clus>
<clus scale="  170.962">  1  5  2 -1</clus>
</clustering>
</event>
<event>
 9    1  0.2423659E-006  0.1074809E+03  0.7546771E-02  0.1267061E+00
         -1   -1    0    0    0  501 -0.00000000000E+00  0.00000000000E+00  0.11716383818E+03  0.11716383818E+03  0.00000000000E+00 0.  1.
          1   -1    0    0  502    0  0.00000000000E+00 -0.00000000000E+00 -0.30759018034E+03  0.30759018034E+03  0.00000000000E+00 0. -1.
         23    2    1    2    0    0 -0.53058752817E+02  0.37709213368E+01  0.23091422928E+02  0.10829786923E+03  0.91464548156E+02 0.  0.
         23    2    1    2    0    0  0.44156394967E+02  0.22789977863E+02 -0.24897576071E+03  0.27126762424E+03  0.95540694136E+02 0.  0.
        -11    1    4    4    0    0 -0.21168040604E+02  0.27334497794E+02 -0.13934129831E+03  0.14356621513E+03  0.00000000000E+00 0. -1.
         11    1    4    4    0    0  0.65324435571E+02 -0.45445199305E+01 -0.10963446240E+03  0.12770140911E+03  0.00000000000E+00 0.  1.
        -13    1    3    3    0    0  0.22728458526E+02  0.16485744400E+02  0.12464645916E+02  0.30720188691E+02  0.00000000000E+00 0.  1.
         13    1    3    3    0    0 -0.75787211343E+02 -0.12714823063E+02  0.10626777012E+02  0.77577680542E+02  0.00000000000E+00 0. -1.
         21    1    1    2  502  501  0.89023578500E+01 -0.26560899200E+02  0.35457995623E+02  0.45188525039E+02  0.00000000000E+00 0.  1.
<scales pt_clust_5="13000.00000" pt_clust_6="13000.00000" pt_clust_7="13000.00000" pt_clust_8="13000.00000" pt_clust_9="28.01309"></scales>
<clustering>
<clus scale="   28.013">  1  9  2 -1</clus>
<clus scale="   91.465">  7  8 -1 -1</clus>
<clus scale="   95.541">  5  6 -1 -1</clus>
<clus scale="  103.874">  1  7  2 -1</clus>
<clus scale="  107.481">  2  5  1 -1</clus>
</clustering>
</event>
<event>
 9    1  0.2423659E-006  0.1170654E+03  0.7546771E-02  0.1253470E+00
          1   -1    0    0  502    0  0.00000000000E+00  0.00000000000E+00  0.20189348640E+03  0.20189348640E+03  0.00000000000E+00 0. -1.
         -1   -1    0    0    0  501 -0.00000000000E+00 -0.00000000000E+00 -0.18496217206E+03  0.18496217206E+03  0.00000000000E+00 0.  1.
         23    2    1    2    0    0 -0.10497934247E+02 -0.54851677033E+02 -0.66155649680E+02  0.12761611452E+03  0.93757077624E+02 0.  0.
         23    2    1    2    0    0 -0.58039079532E+02  0.11596045069E+03  0.34264021654E+02  0.15524298545E+03  0.78172888356E+02 0.  0.
        -11    1    3    3    0    0 -0.57629237720E+01 -0.81621325270E+02 -0.52211114777E+02  0.97063136851E+02  0.00000000000E+00 0. -1.
         11    1    3    3    0    0 -0.47350104746E+01  0.26769648237E+02 -0.13944534903E+02  0.30552977671E+02  0.00000000000E+00 0.  1.
        -11    1    4    4    0    0 -0.30438609542E+02  0.11925774517E+03  0.32950298093E+02  0.12741523016E+03  0.00000000000E+00 0.  1.
         11    1    4    4    0    0 -0.27600469989E+02 -0.32972944789E+01  0.13137235615E+01  0.27827755283E+02  0.00000000000E+00 0. -1.
         21    1    1    2  502  501  0.68537013778E+02 -0.61108773657E+02  0.48822942369E+02  0.10399655849E+03  0.00000000000E+00 0. -1.
<scales pt_clust_5="13000.00000" pt_clust_6="13000.00000" pt_clust_7="13000.00000" pt_clust_8="13000.00000" pt_clust_9="91.82377"></scales>
<clustering>
<clus scale="   78.173">  7  8 -1 -1</clus>
<clus scale="   91.824">  1  9  2 -1</clus>
<clus scale="   93.757">  5  6 -1 -1</clus>
<clus scale="  105.000">  1  7  2 -1</clus>
<clus scale="   91.824">  1  5  2 -1</clus>
</clustering>
</event>
<event>
 9    1  0.2423659E-006  0.9975926E+02  0.7546771E-02  0.1280824E+00
         -1   -1    0    0    0  501 -0.00000000000E+00  0.00000000000E+00  0.18694887536E+03  0.18694887536E+03  0.00000000000E+00 0.  1.
          1   -1    0    0  502    0  0.00000000000E+00 -0.00000000000E+00 -0.17962224828E+03  0.17962224828E+03  0.00000000000E+00 0. -1.
         23    2    1    2    0    0 -0.22058099257E+02  0.24945344885E+02  0.11706685241E+03  0.15271163184E+03  0.92235376031E+02 0.  0.
         23    2    1    2    0    0  0.76766810788E+02 -0.23581722513E+02 -0.10058540971E+03  0.15837333829E+03  0.92279189201E+02 0.  0.
        -11    1    3    3    0    0 -0.12184848649E+02  0.58405301364E+02  0.53195025323E+02  0.79933475360E+02  0.00000000000E+00 0. -1.
         11    1    3    3    0    0 -0.98732506080E+01 -0.33459956479E+02  0.63871827083E+02  0.72778156477E+02  0.00000000000E+00 0.  1.
        -11    1    4    4    0    0  0.74342729161E+01 -0.19665675103E+02 -0.84520821205E+02  0.87096362773E+02  0.00000000000E+00 0.  1.
         11    1    4    4    0    0  0.69332537872E+02 -0.39160474109E+01 -0.16064588503E+02  0.71276975517E+02  0.00000000000E+00 0. -1.
         21    1    1    2  502  501 -0.54708711531E+02 -0.13636223711E+01 -0.91548156140E+01  0.55486153519E+02  0.00000000000E+00 0.  1.
<scales pt_clust_5="13000.00000" pt_clust_6="13000.00000" pt_clust_7="13000.00000" pt_clust_8="13000.00000" pt_clust_9="54.72570"></scales>
<clustering>
<clus scale="   54.726">  2  9  1 -1</clus>
<clus scale="   92.235">  5  6 -1 -1</clus>
<clus scale="   92.279">  7  8 -1 -1</clus>
<clus scale="   99.719">  1  5  2 -1</clus>
<clus scale="   54.726">  2  5  1 -1</clus>
</clustering>
</event>
<event>
 9    1  0.2423659E-006  0.1018518E+03  0.7546771E-02  0.1280465E+00
          1   -1    0    0  502    0  0.00000000000E+00  0.00000000000E+00  0.83816200068E+02  0.83816200068E+02  0.00000000000E+00 0. -1.
         -1   -1    0    0    0  501 -0.00000000000E+00 -0.00000000000E+00 -0.17661827495E+03  0.17661827495E+03  0.00000000000E+00 0.  1.
         23    2    1    2    0    0 -0.27284495839E+02  0.42785109635E+02 -0.38671763900E+02  0.10521107486E+03  0.83659163454E+02 0.  0.
         23    2    1    2    0    0 -0.13622021651E+02 -0.43541706013E+02 -0.27304350047E+02  0.10629950220E+03  0.92046819614E+02 0.  0.
        -11    1    4    4    0    0 -0.51215758173E+02 -0.36740655522E+02 -0.81286982205E+01  0.63553169772E+02  0.00000000000E+00 0.  1.
         11    1    4    4    0    0  0.37593736522E+02 -0.68010504913E+01 -0.19175651826E+02  0.42746332432E+02  0.00000000000E+00 0. -1.
        -11    1    3    3    0    0  0.28342253830E+02  0.28257821221E+02 -0.20151520298E+02  0.44809280095E+02  0.00000000000E+00 0. -1.
         11    1    3    3    0    0 -0.55626749669E+02  0.14527288414E+02 -0.18520243602E+02  0.60401794762E+02  0.00000000000E+00 0.  1.
         21    1    1    2  502  501  0.40906517490E+02  0.75659637801E+00 -0.26825960936E+02  0.48923897957E+02  0.00000000000E+00 0. -1.
<scales pt_clust_5="13000.00000" pt_clust_6="13000.00000" pt_clust_7="13000.00000" pt_clust_8="13000.00000" pt_clust_9="40.91351"></scales>
<clustering>
<clus scale="   40.914">  2  9  1 -1</clus>
<clus scale="   83.659">  7  8 -1 -1</clus>
<clus scale="   92.047">  5  6 -1 -1</clus>
<clus scale="   94.340">  2  7  1 -1</clus>
<clus scale="  101.852">  1  5  2 -1</clus>
</clustering>
</event>
<event>
 9    1  0.2423659E-006  0.1146501E+03  0.7546771E-02  0.1253922E+00
         -2   -1    0    0    0  501 -0.00000000000E+00  0.00000000000E+00  0.61979714477E+02  0.61979714477E+02  0.00000000000E+00 0.  1.
          2   -1    0    0  502    0  0.00000000000E+00 -0.00000000000E+00 -0.30937960627E+03  0.30937960627E+03  0.00000000000E+00 0. -1.
         23    2    1    2    0    0  0.33134489085E+02 -0.57804260921E+02 -0.68544934725E+02  0.13475317383E+03  0.94977801796E+02 0.  0.
         23    2    1    2    0    0 -0.33669332507E+00  0.66098927918E+02 -0.97141494240E+02  0.14816641085E+03  0.90264244125E+02 0.  0.
        -13    1    3    3    0    0 -0.31356762415E+01 -0.42027333329E+02  0.13015371608E+02  0.44108152425E+02  0.00000000000E+00 0.  1.
         13    1    3    3    0    0  0.36270165327E+02 -0.15776927592E+02 -0.81560306332E+02  0.90645021408E+02  0.00000000000E+00 0. -1.
        -13    1    4    4    0    0  0.36051265393E+02  0.23628571913E+01 -0.47000412870E+02  0.59281663610E+02  0.00000000000E+00 0. -1.
         13    1    4    4    0    0 -0.36387958718E+02  0.63736070726E+02 -0.50141081371E+02  0.88884747242E+02  0.00000000000E+00 0.  1.
         21    1    1    2  502  501 -0.32797795760E+02 -0.82946669966E+01 -0.81713462832E+02  0.88439736066E+02  0.00000000000E+00 0.  1.
<scales pt_clust_5="13000.00000" pt_clust_6="13000.00000" pt_clust_7="13000.00000" pt_clust_8="13000.00000" pt_clust_9="33.83041"></scales>
<clustering>
<clus scale="   33.830">  2  9  1 -1</clus>
<clus scale="   90.264">  7  8 -1 -1</clus>
<clus scale="   94.978">  5  6 -1 -1</clus>
<clus scale="  110.777">  2  7  1 -1</clus>
<clus scale="   33.830">  2  5  1 -1</clus>
</clustering>
</event>
<event>
 9    1  0.2423659E-006  0.1572013E+03  0.7546771E-02  0.1203405E+00
         -2   -1    0    0    0  501 -0.00000000000E+00  0.00000000000E+00  0.10540005520E+03  0.10540005520E+03  0.00000000000E+00 0.  1.
          2   -1    0    0  502    0  0.00000000000E+00 -0.00000000000E+00 -0.57934809911E+03  0.57934809911E+03  0.00000000000E+00 0. -1.
         23    2    1    2    0    0 -0.78483359837E+02  0.24828175049E+02 -0.10423027262E+02  0.12274469243E+03  0.90451887625E+02 0.  0.
         23    2    1    2    0    0 -0.49532047411E+02  0.93168395842E+02 -0.25397178267E+03  0.28956320585E+03  0.90616831135E+02 0.  0.
        -11    1    3    3    0    0  0.12408300230E+02  0.26632638732E+02  0.69448440910E+01  0.30190962553E+02  0.00000000000E+00 0. -1.
         11    1    3    3    0    0 -0.90891660066E+02 -0.18044636832E+01 -0.17367871353E+02  0.92553729877E+02  0.00000000000E+00 0.  1.
        -13    1    4    4    0    0 -0.25260670952E+02 -0.13192449933E+02 -0.71438627020E+02  0.76913065618E+02  0.00000000000E+00 0. -1.
         13    1    4    4    0    0 -0.24271376458E+02  0.10636084578E+03 -0.18253315565E+03  0.21265014023E+03  0.00000000000E+00 0.  1.
         21    1    1    2  502  501  0.12801540725E+03 -0.11799657089E+03 -0.20955323398E+03  0.27244025603E+03  0.00000000000E+00 0. -1.
<scales pt_clust_5="13000.00000" pt_clust_6="13000.00000" pt_clust_7="13000.00000" pt_clust_8="13000.00000" pt_clust_9="128.45564"></scales>
<clustering>
<clus scale="   90.452">  5  6 -1 -1</clus>
<clus scale="   90.617">  7  8 -1 -1</clus>
<clus scale="  122.301">  1  5  2 -1</clus>
<clus scale="  128.456">  1  9  2 -1</clus>
<clus scale="  157.201">  2  5  1 -1</clus>
</clustering>
</event>
<event>
 9    1  0.2423659E-006  0.9064767E+02  0.7546771E-02  0.1316197E+00
         -2   -1    0    0    0  501 -0.00000000000E+00  0.00000000000E+00  0.45099309605E+02  0.45099309605E+02  0.00000000000E+00 0.  1.
          2   -1    0    0  502    0  0.00000000000E+00 -0.00000000000E+00 -0.30592067102E+03  0.30592067102E+03  0.00000000000E+00 0. -1.
         23    2    1    2    0    0 -0.17946839119E+01  0.11540906651E+02 -0.30555659326E+02  0.95838770754E+02  0.90083340558E+02 0.  0.
         23    2    1    2    0    0  0.27436105364E+02  0.11772258601E+02 -0.17014533776E+03  0.18578780690E+03  0.68383823253E+02 0.  0.
        -13    1    3    3    0    0 -0.12138257147E+02 -0.33505754087E+02  0.69606276436E+01  0.36310097504E+02  0.00000000000E+00 0.  1.
         13    1    3    3    0    0  0.10343573235E+02  0.45046660739E+02 -0.37516286970E+02  0.59528673251E+02  0.00000000000E+00 0. -1.
        -13    1    4    4    0    0  0.13657919973E+02 -0.16879482537E+02 -0.12678506088E+02  0.25143592132E+02  0.00000000000E+00 0.  1.
         13    1    4    4    0    0  0.13778185391E+02  0.28651741138E+02 -0.15746683167E+03  0.16064421477E+03  0.00000000000E+00 0. -1.
         21    1    1    2  502  501 -0.25641421452E+02 -0.23313165253E+02 -0.60120364330E+02  0.69393402967E+02  0.00000000000E+00 0.  1.
<scales pt_clust_5="13000.00000" pt_clust_6="13000.00000" pt_clust_7="13000.00000" pt_clust_8="13000.00000" pt_clust_9="34.65525"></scales>
<clustering>
<clus scale="   34.655">  2  9  1 -1</clus>
<clus scale="   68.384">  7  8 -1 -1</clus>
<clus scale="   69.126">  2  7  1 -1</clus>
<clus scale="   90.083">  5  6 -1 -1</clus>
<clus scale="   34.655">  2  5  1 -1</clus>
</clustering>
</event>
<event>
 9    1  0.2423659E-006  0.9146383E+02  0.7546771E-02  0.1299685E+00
         -1   -1    0    0    0  501 -0.00000000000E+00  0.00000000000E+00  0.18254181224E+03  0.18254181224E+03  0.00000000000E+00 0.  1.
          1   -1    0    0  502    0  0.00000000000E+00 -0.00000000000E+00 -0.10200126841E+03  0.10200126841E+03  0.00000000000E+00 0. -1.
         23    2    1    2    0    0  0.51435737306E+02  0.93845457808E+01  0.46330856864E+02  0.11318294210E+03  0.89051251050E+02 0.  0.
         23    2    1    2    0    0  0.19594703914E+02  0.14667532482E+02  0.19314689365E+02  0.94903045995E+02  0.89635048855E+02 0.  0.
        -11    1    4    4    0    0  0.50296802296E+02  0.10011697094E+02  0.32983513027E+02  0.60974704030E+02  0.00000000000E+00 0. -1.
         11    1    4    4    0    0 -0.30702098382E+02  0.46558353883E+01 -0.13668823662E+02  0.33928341965E+02  0.00000000000E+00 0.  1.
        -13    1    3    3    0    0  0.53753402988E+02 -0.13881842453E+02 -0.60253683015E+01  0.55842984750E+02  0.00000000000E+00 0. -1.
         13    1    3    3    0    0 -0.23176656817E+01  0.23266388234E+02  0.52356225165E+02  0.57339957353E+02  0.00000000000E+00 0.  1.
         21    1    1    2  502  501 -0.71030441220E+02 -0.24052078263E+02  0.14894997598E+02  0.76457092556E+02  0.00000000000E+00 0.  1.
<scales pt_clust_5="13000.00000" pt_clust_6="13000.00000" pt_clust_7="13000.00000" pt_clust_8="13000.00000" pt_clust_9="74.99217"></scales>
<clustering>
<clus scale="   74.992">  2  9  1 -1</clus>
<clus scale="   89.051">  7  8 -1 -1</clus>
<clus scale="   89.635">  5  6 -1 -1</clus>
<clus scale="   90.892">  1  7  2 -1</clus>
<clus scale="   74.992">  2  5  1 -1</clus>
</clustering>
</event>
<event>
 9    1  0.2423659E-006  0.2860355E+03  0.7546771E-02  0.1140390E+00
          2   -1    0    0  502    0  0.00000000000E+00  0.00000000000E+00  0.19715731140E+03  0.19715731140E+03  0.00000000000E+00 0. -1.
         -2   -1    0    0    0  501 -0.00000000000E+00 -0.00000000000E+00 -0.78695121409E+03  0.78695121409E+03  0.00000000000E+00 0.  1.
         23    2    1    2    0    0 -0.17808014683E+02 -0.72554223314E+01 -0.98057333032E+02  0.13009139665E+03  0.83299245980E+02 0.  0.
         23    2    1    2    0    0  0.27115673483E+03 -0.37864729044E+02  0.10731213244E+02  0.28948610674E+03  0.93420203977E+02 0.  0.
        -11    1    3    3    0    0  0.29463310912E+01 -0.35625812688E+02 -0.85656732650E+02  0.92816783207E+02  0.00000000000E+00 0.  1.
         11    1    3    3    0    0 -0.20754345774E+02  0.28370390357E+02 -0.12400600382E+02  0.37274613443E+02  0.00000000000E+00 0. -1.
        -13    1    4    4    0    0  0.25103415737E+03 -0.47449933007E+02 -0.14412563534E+02  0.25588545542E+03  0.00000000000E+00 0. -1.
         13    1    4    4    0    0  0.20122577458E+02  0.95852039625E+01  0.25143776777E+02  0.33600651321E+02  0.00000000000E+00 0.  1.
         21    1    1    2  502  501 -0.25334872014E+03  0.45120151376E+02 -0.50246778290E+03  0.56453102210E+03  0.00000000000E+00 0.  1.
<scales pt_clust_5="13000.00000" pt_clust_6="13000.00000" pt_clust_7="13000.00000" pt_clust_8="13000.00000" pt_clust_9="270.34970"></scales>
<clustering>
<clus scale="   83.299">  5  6 -1 -1</clus>
<clus scale="   85.490">  2  5  1 -1</clus>
<clus scale="   93.420">  7  8 -1 -1</clus>
<clus scale="  270.350">  2  9  1 -1</clus>
<clus scale="  286.035">  1  5  2 -1</clus>
</clustering>
</event>
<event>
 9    1  0.2423659E-006  0.1235053E+03  0.7546771E-02  0.1237775E+00
          1   -1    0    0  502    0  0.00000000000E+00  0.00000000000E+00  0.76623160726E+03  0.76623160726E+03  0.00000000000E+00 0. -1.
         -1   -1    0    0    0  501 -0.00000000000E+00 -0.00000000000E+00 -0.47323356332E+02  0.47323356332E+02  0.00000000000E+00 0.  1.
         23    2    1    2    0    0  0.43674320968E+02 -0.58172904292E+02  0.13242719271E+03  0.17537303478E+03  0.89034863129E+02 0.  0.
         23    2    1    2    0    0  0.47018887123E+01  0.13360689746E+03  0.39958807724E+03  0.43091511688E+03  0.90245751580E+02 0.  0.
        -11    1    3    3    0    0  0.49738554307E+01 -0.73021286342E+02  0.90831443225E+02  0.11664989745E+03  0.00000000000E+00 0.  1.
         11    1    3    3    0    0  0.38700465537E+02  0.14848382051E+02  0.41595749485E+02  0.58723137327E+02  0.00000000000E+00 0. -1.
        -11    1    4    4    0    0  0.25398975882E+02  0.10245747741E+03  0.36505901971E+03  0.38001411885E+03  0.00000000000E+00 0. -1.
         11    1    4    4    0    0 -0.20697087170E+02  0.31149420052E+02  0.34529057533E+02  0.50900998036E+02  0.00000000000E+00 0.  1.
         21    1    1    2  502  501 -0.48376209681E+02 -0.75433993172E+02  0.18689298098E+03  0.20726681193E+03  0.00000000000E+00 0.  1.
<scales pt_clust_5="13000.00000" pt_clust_6="13000.00000" pt_clust_7="13000.00000" pt_clust_8="13000.00000" pt_clust_9="89.61331"></scales>
<clustering>
<clus scale="   89.035">  5  6 -1 -1</clus>
<clus scale="   89.613">  1  9  2 -1</clus>
<clus scale="   90.246">  7  8 -1 -1</clus>
<clus scale="  122.623">  2  5  1 -1</clus>
<clus scale="   89.613">  1  5  2 -1</clus>
</clustering>
</event>
<event>
 9    1  0.2423659E-006  0.1971149E+03  0.7546771E-02  0.1181212E+00
         -1   -1    0    0    0  501 -0.00000000000E+00  0.00000000000E+00  0.89998026601E+02  0.89998026601E+02  0.00000000000E+00 0.  1.
          1   -1    0    0  502    0  0.00000000000E+00 -0.00000000000E+00 -0.63818603490E+03  0.63818603490E+03  0.00000000000E+00 0. -1.
         23    2    1    2    0    0 -0.10618269333E+03 -0.14946251907E+03 -0.24106949229E+03  0.31652587384E+03  0.91979996349E+02 0.  0.
         23    2    1    2    0    0  0.39783039927E+02 -0.66884138873E+01 -0.14658542219E+03  0.17807115453E+03  0.92707199999E+02 0.  0.
        -11    1    3    3    0    0 -0.57803483391E+02 -0.13886001602E+03 -0.20909697834E+03  0.25757502420E+03  0.00000000000E+00 0. -1.
         11    1    3    3    0    0 -0.48379209938E+02 -0.10602503051E+02 -0.31972513953E+02  0.58950849643E+02  0.00000000000E+00 0.  1.
        -13    1    4    4    0    0 -0.22856377891E+02  0.18673611562E+02 -0.69794510430E+02  0.75778568641E+02  0.00000000000E+00 0.  1.
         13    1    4    4    0    0  0.62639417818E+02 -0.25362025449E+02 -0.76790911762E+02  0.10229258589E+03  0.00000000000E+00 0. -1.
         21    1    1    2  502  501  0.66399653402E+02  0.15615093296E+03 -0.16053309382E+03  0.23358703313E+03  0.00000000000E+00 0.  1.
<scales pt_clust_5="13000.00000" pt_clust_6="13000.00000" pt_clust_7="13000.00000" pt_clust_8="13000.00000" pt_clust_9="174.33861"></scales>
<clustering>
<clus scale="   91.980">  5  6 -1 -1</clus>
<clus scale="   92.707">  7  8 -1 -1</clus>
<clus scale="  101.104">  2  7  1 -1</clus>
<clus scale="  174.339">  1  9  2 -1</clus>
<clus scale="  101.104">  2  5  1 -1</clus>
</clustering>
</event>
<event>
 9    1  0.2423659E-006  0.9260959E+02  0.7546771E-02  0.1297070E+00
         -2   -1    0    0    0  501 -0.00000000000E+00  0.00000000000E+00  0.14604320094E+03  0.14604320094E+03  0.00000000000E+00 0.  1.
          2   -1    0    0  502    0  0.00000000000E+00 -0.00000000000E+00 -0.17916568838E+03  0.17916568838E+03  0.00000000000E+00 0. -1.
         23    2    1    2    0    0  0.15199139755E+01 -0.12630406727E+02  0.72034407130E+02  0.11800913125E+03  0.92603250137E+02 0.  0.
         23    2    1    2    0    0  0.37057260484E+01 -0.57330732011E+02 -0.64570330442E+02  0.12614954255E+03  0.91890338304E+02 0.  0.
        -11    1    3    3    0    0  0.35281432849E+02  0.14597935859E+02  0.54861667202E+01  0.38574308296E+02  0.00000000000E+00 0. -1.
         11    1    3    3    0    0 -0.33761518873E+02 -0.27228342587E+02  0.66548240409E+02  0.79434822957E+02  0.00000000000E+00 0.  1.
        -13    1    4    4    0    0  0.33406828334E+02  0.58813822519E+01 -0.39208539376E+02  0.51845119312E+02  0.00000000000E+00 0. -1.
         13    1    4    4    0    0 -0.29701102285E+02 -0.63212114263E+02 -0.25361791067E+02  0.74304423238E+02  0.00000000000E+00 0.  1.
         21    1    1    2  502  501 -0.52256400238E+01  0.69961138739E+02 -0.40586564132E+02  0.81050215517E+02  0.00000000000E+00 0. -1.
<scales pt_clust_5="13000.00000" pt_clust_6="13000.00000" pt_clust_7="13000.00000" pt_clust_8="13000.00000" pt_clust_9="70.15603"></scales>
<clustering>
<clus scale="   70.156">  2  9  1 -1</clus>
<clus scale="   91.890">  7  8 -1 -1</clus>
<clus scale="   91.897">  2  7  1 -1</clus>
<clus scale="   92.603">  5  6 -1 -1</clus>
<clus scale="   70.156">  2  5  1 -1</clus>
</clustering>
</event>
<event>
 9    1  0.2423659E-006  0.1160230E+03  0.7546771E-02  0.1260282E+00
         -1   -1    0    0    0  501 -0.00000000000E+00  0.00000000000E+00  0.28695308606E+03  0.28695308606E+03  0.00000000000E+00 0.  1.
          1   -1    0    0  502    0  0.00000000000E+00 -0.00000000000E+00 -0.25059760061E+03  0.25059760061E+03  0.00000000000E+00 0. -1.
         23    2    1    2    0    0  0.11336123399E+02  0.46458163939E+01  0.15943288887E+03  0.18396671551E+03  0.90966010452E+02 0.  0.
         23    2    1    2    0    0 -0.16167617919E+01  0.27099641835E+02 -0.22118192927E+03  0.25001400400E+03  0.11335145281E+03 0.  0.
        -13    1    4    4    0    0 -0.10243089594E+02  0.68214908213E+02 -0.97821785430E+02  0.11969668455E+03  0.00000000000E+00 0.  1.
         13    1    4    4    0    0  0.86263278020E+01 -0.41115266378E+02 -0.12336014384E+03  0.13031731945E+03  0.00000000000E+00 0. -1.
        -13    1    3    3    0    0  0.45868301845E+02  0.24363730911E+02  0.94194992986E+02  0.10756481396E+03  0.00000000000E+00 0.  1.
         13    1    3    3    0    0 -0.34532178446E+02 -0.19717914517E+02  0.65237895883E+02  0.76401901550E+02  0.00000000000E+00 0. -1.
         21    1    1    2  502  501 -0.97193616074E+01 -0.31745458229E+02  0.98104525845E+02  0.10356996717E+03  0.00000000000E+00 0.  1.
<scales pt_clust_5="13000.00000" pt_clust_6="13000.00000" pt_clust_7="13000.00000" pt_clust_8="13000.00000" pt_clust_9="33.20000"></scales>
<clustering>
<clus scale="   33.200">  1  9  2 -1</clus>
<clus scale="   90.966">  7  8 -1 -1</clus>
<clus scale="   94.274">  1  7  2 -1</clus>
<clus scale="  113.351">  5  6 -1 -1</clus>
<clus scale="  116.023">  2  5  1 -1</clus>
</clustering>
</event>
<event>
 9    1  0.2423659E-006  0.1087081E+03  0.7546771E-02  0.1270012E+00
         -2   -1    0    0    0  501 -0.00000000000E+00  0.00000000000E+00  0.16335152326E+03  0.16335152326E+03  0.00000000000E+00 0.  1.
          2   -1    0    0  502    0  0.00000000000E+00 -0.00000000000E+00 -0.15431777815E+03  0.15431777815E+03  0.00000000000E+00 0. -1.
         23    2    1    2    0    0 -0.59374227167E+01 -0.24351988985E+02  0.10489236398E+03  0.15046132578E+03  0.10491868365E+03 0.  0.
         23    2    1    2    0    0 -0.24218861165E+02  0.19354598859E+02 -0.97551385690E+02  0.13659358644E+03  0.90445460219E+02 0.  0.
        -11    1    3    3    0    0  0.20478881488E+01 -0.42742748684E+02 -0.88465181460E+00  0.42800923118E+02  0.00000000000E+00 0. -1.
         11    1    3    3    0    0 -0.79853108654E+01  0.18390759699E+02  0.10577701579E+03  0.10766040266E+03  0.00000000000E+00 0.  1.
        -11    1    4    4    0    0  0.17352398706E+02  0.35004567788E+02 -0.13160791994E+02  0.41226592786E+02  0.00000000000E+00 0. -1.
         11    1    4    4    0    0 -0.41571259871E+02 -0.15649968929E+02 -0.84390593697E+02  0.95366993657E+02  0.00000000000E+00 0.  1.
         21    1    1    2  502  501  0.30156283882E+02  0.49973901264E+01  0.16927668237E+01  0.30614389184E+02  0.00000000000E+00 0. -1.
<scales pt_clust_5="13000.00000" pt_clust_6="13000.00000" pt_clust_7="13000.00000" pt_clust_8="13000.00000" pt_clust_9="30.56755"></scales>
<clustering>
<clus scale="   30.568">  1  9  2 -1</clus>
<clus scale="   90.445">  7  8 -1 -1</clus>
<clus scale="   94.815">  2  7  1 -1</clus>
<clus scale="  104.919">  5  6 -1 -1</clus>
<clus scale="   94.815">  2  5  1 -1</clus>
</clustering>
</event>
<event>
 9    1  0.2423659E-006  0.9835204E+02  0.7546771E-02  0.1284454E+00
          1   -1    0    0  502    0  0.00000000000E+00  0.00000000000E+00  0.81262642668E+03  0.81262642668E+03  0.00000000000E+00 0. -1.
         -1   -1    0    0    0  501 -0.00000000000E+00 -0.00000000000E+00 -0.42555971169E+02  0.42555971169E+02  0.00000000000E+00 0.  1.
         23    2    1    2    0    0 -0.61100600794E+02  0.29225367127E+01  0.76423634714E+02  0.13425159347E+03  0.91875425271E+02 0.  0.
         23    2    1    2    0    0 -0.16390199235E+02 -0.11795284445E+02  0.19194783818E+03  0.21320507241E+03  0.90579594576E+02 0.  0.
        -11    1    4    4    0    0  0.18711019680E+02  0.25112338257E+02  0.12624834286E+03  0.13007450121E+03  0.00000000000E+00 0. -1.
         11    1    4    4    0    0 -0.35101218915E+02 -0.36907622703E+02  0.65699495321E+02  0.83130571202E+02  0.00000000000E+00 0.  1.
        -13    1    3    3    0    0 -0.42214675940E+02  0.31404873988E+02  0.23419348190E+01  0.52667158967E+02  0.00000000000E+00 0.  1.
         13    1    3    3    0    0 -0.18885924854E+02 -0.28482337275E+02  0.74081699895E+02  0.81584434506E+02  0.00000000000E+00 0. -1.
         21    1    1    2  502  501  0.77490800030E+02  0.88727477327E+01  0.50169898261E+03  0.50772573196E+03  0.00000000000E+00 0. -1.
<scales pt_clust_5="13000.00000" pt_clust_6="13000.00000" pt_clust_7="13000.00000" pt_clust_8="13000.00000" pt_clust_9="77.99711"></scales>
<clustering>
<clus scale="   77.997">  1  9  2 -1</clus>
<clus scale="   90.580">  5  6 -1 -1</clus>
<clus scale="   91.875">  7  8 -1 -1</clus>
<clus scale="   97.143">  1  5  2 -1</clus>
<clus scale="   77.997">  1  5  2 -1</clus>
</clustering>
</event>
<event>
 9    1  0.2423659E-006  0.1158859E+03  0.7546771E-02  0.1250403E+00
          1   -1    0    0  502    0  0.00000000000E+00  0.00000000000E+00  0.30512490696E+03  0.30512490696E+03  0.00000000000E+00 0. -1.
         -1   -1    0    0    0  501 -0.00000000000E+00 -0.00000000000E+00 -0.14878583272E+03  0.14878583272E+03  0.00000000000E+00 0.  1.
         23    2    1    2    0    0 -0.48520988632E+02 -0.17574382634E+01 -0.16688051521E+02  0.10526719286E+03  0.91898399887E+02 0.  0.
         23    2    1    2    0    0  0.86564040719E+02 -0.69404376861E+02 -0.13549408623E+02  0.14536521319E+03  0.92936311834E+02 0.  0.
        -13    1    4    4    0    0  0.88550545837E+02 -0.14433155808E+02 -0.90513209038E+01  0.90174506179E+02  0.00000000000E+00 0. -1.
         13    1    4    4    0    0 -0.19865051175E+01 -0.54971221054E+02 -0.44980877190E+01  0.55190707006E+02  0.00000000000E+00 0.  1.
        -13    1    3    3    0    0 -0.11225291909E+02  0.41024675236E+02  0.81625899593E+01  0.43308879361E+02  0.00000000000E+00 0.  1.
         13    1    3    3    0    0 -0.37295696722E+02 -0.42782113500E+02 -0.24850641480E+02  0.61958313498E+02  0.00000000000E+00 0. -1.
         21    1    1    2  502  501 -0.38043052087E+02  0.71161815125E+02  0.18657653438E+03  0.20327833363E+03  0.00000000000E+00 0.  1.
<scales pt_clust_5="13000.00000" pt_clust_6="13000.00000" pt_clust_7="13000.00000" pt_clust_8="13000.00000" pt_clust_9="80.69249"></scales>
<clustering>
<clus scale="   80.692">  1  9  2 -1</clus>
<clus scale="   91.898">  7  8 -1 -1</clus>
<clus scale="   92.936">  5  6 -1 -1</clus>
<clus scale="  115.055">  2  7  1 -1</clus>
<clus scale="   80.692">  1  5  2 -1</clus>
</clustering>
</event>
<event>
 9    1  0.2423659E-006  0.9510412E+02  0.7546771E-02  0.1291621E+00
          2   -1    0    0  502    0  0.00000000000E+00  0.00000000000E+00  0.43086468688E+02  0.43086468688E+02  0.00000000000E+00 0. -1.
         -2   -1    0    0    0  501 -0.00000000000E+00 -0.00000000000E+00 -0.58994171804E+03  0.58994171804E+03  0.00000000000E+00 0.  1.
         23    2    1    2    0    0  0.38468884529E+02  0.16147632546E+02 -0.27665260879E+03  0.29455493191E+03  0.92115909866E+02 0.  0.
         23    2    1    2    0    0  0.47302693988E+02  0.48746005046E+01 -0.84683577799E+02  0.13300787911E+03  0.90876184827E+02 0.  0.
        -11    1    3    3    0    0  0.37417540742E+02 -0.32002509494E+02 -0.10013806882E+03  0.11158792854E+03  0.00000000000E+00 0. -1.
         11    1    3    3    0    0  0.10513437868E+01  0.48150142040E+02 -0.17651453997E+03  0.18296700337E+03  0.00000000000E+00 0.  1.
        -13    1    4    4    0    0 -0.24323798993E+02  0.20854230334E+01 -0.44693776839E+02  0.50926710819E+02  0.00000000000E+00 0.  1.
         13    1    4    4    0    0  0.71626492982E+02  0.27891774712E+01 -0.39989800960E+02  0.82081168295E+02  0.00000000000E+00 0. -1.
         21    1    1    2  502  501 -0.85771578517E+02 -0.21022233050E+02 -0.18551906276E+03  0.20546537570E+03  0.00000000000E+00 0.  1.
<scales pt_clust_5="13000.00000" pt_clust_6="13000.00000" pt_clust_7="13000.00000" pt_clust_8="13000.00000" pt_clust_9="88.31024"></scales>
<clustering>
<clus scale="   88.310">  2  9  1 -1</clus>
<clus scale="   90.876">  7  8 -1 -1</clus>
<clus scale="   92.116">  5  6 -1 -1</clus>
<clus scale="   93.904">  1  7  2 -1</clus>
<clus scale="   93.904">  1  5  2 -1</clus>
</clustering>
</event>
<event>
 9    1  0.2423659E-006  0.1103316E+03  0.7546771E-02  0.1260314E+00
         -1   -1    0    0    0  501 -0.00000000000E+00  0.00000000000E+00  0.17279344565E+03  0.17279344565E+03  0.00000000000E+00 0.  1.
          1   -1    0    0  502    0  0.00000000000E+00 -0.00000000000E+00 -0.28772592775E+03  0.28772592775E+03  0.00000000000E+00 0. -1.
         23    2    1    2    0    0 -0.48408521200E+02 -0.40154143254E+02 -0.87576684254E+02  0.14132281855E+03  0.91360403199E+02 0.  0.
         23    2    1    2    0    0  0.69765162406E+02 -0.92214612437E+01 -0.14795851104E+03  0.18713948055E+03  0.90428153570E+02 0.  0.
        -11    1    4    4    0    0  0.40992391839E+02 -0.31073968415E+02 -0.21727452218E+02  0.55839501086E+02  0.00000000000E+00 0.  1.
         11    1    4    4    0    0  0.28772770567E+02  0.21852507171E+02 -0.12623105882E+03  0.13129997946E+03  0.00000000000E+00 0. -1.
        -13    1    3    3    0    0 -0.23841312158E+02  0.28784309478E+02 -0.35047946540E+02  0.51237712616E+02  0.00000000000E+00 0. -1.
         13    1    3    3    0    0 -0.24567209042E+02 -0.68938452732E+02 -0.52528737714E+02  0.90085105933E+02  0.00000000000E+00 0.  1.
         21    1    1    2  502  501 -0.21356641206E+02  0.49375604498E+02  0.12060271320E+03  0.13205707430E+03  0.00000000000E+00 0.  1.
<scales pt_clust_5="13000.00000" pt_clust_6="13000.00000" pt_clust_7="13000.00000" pt_clust_8="13000.00000" pt_clust_9="53.79644"></scales>
<clustering>
<clus scale="   53.796">  1  9  2 -1</clus>
<clus scale="   90.428">  5  6 -1 -1</clus>
<clus scale="   91.360">  7  8 -1 -1</clus>
<clus scale="  109.561">  2  5  1 -1</clus>
<clus scale="  109.561">  2  5  1 -1</clus>
</clustering>
</event>
<event>
 9    1  0.2423659E-006  0.9395174E+02  0.7546771E-02  0.1293716E+00
          2   -1    0    0  502    0  0.00000000000E+00  0.00000000000E+00  0.39931526196E+03  0.39931526196E+03  0.00000000000E+00 0. -1.
         -2   -1    0    0    0  501 -0.00000000000E+00 -0.00000000000E+00 -0.74372455200E+02  0.74372455200E+02  0.00000000000E+00 0.  1.
         23    2    1    2    0    0  0.23022380548E+02  0.10256602836E+02 -0.92042664612E+01  0.95770207848E+02  0.91934684871E+02 0.  0.
         23    2    1    2    0    0  0.73899815477E+01  0.52805651129E+02  0.20285916605E+03  0.22912814742E+03  0.92221570527E+02 0.  0.
        -11    1    4    4    0    0 -0.22937097899E+02  0.40923690521E+02  0.18719809494E+03  0.19298700903E+03  0.00000000000E+00 0. -1.
         11    1    4    4    0    0  0.30327079447E+02  0.11881960608E+02  0.15661071112E+02  0.36141138389E+02  0.00000000000E+00 0.  1.
        -13    1    3    3    0    0  0.86891612596E+01  0.33729604778E+02 -0.40955333182E+02  0.53763622254E+02  0.00000000000E+00 0.  1.
         13    1    3    3    0    0  0.14333219288E+02 -0.23473001943E+02  0.31751066720E+02  0.42006585594E+02  0.00000000000E+00 0. -1.
         21    1    1    2  502  501 -0.30412362095E+02 -0.63062253964E+02  0.13128790717E+03  0.14878936190E+03  0.00000000000E+00 0. -1.
<scales pt_clust_5="13000.00000" pt_clust_6="13000.00000" pt_clust_7="13000.00000" pt_clust_8="13000.00000" pt_clust_9="70.01257"></scales>
<clustering>
<clus scale="   70.013">  1  9  2 -1</clus>
<clus scale="   91.935">  7  8 -1 -1</clus>
<clus scale="   92.222">  5  6 -1 -1</clus>
<clus scale="   93.670">  2  7  1 -1</clus>
<clus scale="   70.013">  1  5  2 -1</clus>
</clustering>
</event>
<event>
 9    1  0.2423659E-006  0.1144169E+03  0.7546771E-02  0.1256214E+00
          1   -1    0    0  502    0  0.00000000000E+00  0.00000000000E+00  0.20626998879E+03  0.20626998879E+03  0.00000000000E+00 0. -1.
         -1   -1    0    0    0  501 -0.00000000000E+00 -0.00000000000E+00 -0.17955881667E+03  0.17955881667E+03  0.00000000000E+00 0.  1.
         23    2    1    2    0    0  0.49605511391E+02 -0.19773235219E+02 -0.67675331729E+02  0.12618934285E+03  0.92152656682E+02 0.  0.
         23    2    1    2    0    0  0.56093508261E+02  0.36888331962E+01  0.10781929895E+03  0.15188311371E+03  0.91013130056E+02 0.  0.
        -13    1    4    4    0    0  0.11861600210E+02 -0.40545566856E+02  0.28926863451E+02  0.51199648244E+02  0.00000000000E+00 0. -1.
         13    1    4    4    0    0  0.44231908051E+02  0.44234400052E+02  0.78892435503E+02  0.10068346546E+03  0.00000000000E+00 0.  1.
        -13    1    3    3    0    0 -0.15752314099E+02 -0.18954568666E+02 -0.54074828603E+02  0.59426409627E+02  0.00000000000E+00 0.  1.
         13    1    3    3    0    0  0.65357825489E+02 -0.81866655344E+00 -0.13600503126E+02  0.66762933226E+02  0.00000000000E+00 0. -1.
         21    1    1    2  502  501 -0.10569901965E+03  0.16084402023E+02 -0.13432795109E+02  0.10775634890E+03  0.00000000000E+00 0.  1.
<scales pt_clust_5="13000.00000" pt_clust_6="13000.00000" pt_clust_7="13000.00000" pt_clust_8="13000.00000" pt_clust_9="69.33864"></scales>
<clustering>
<clus scale="   91.013">  5  6 -1 -1</clus>
<clus scale="   92.153">  7  8 -1 -1</clus>
<clus scale="  106.507">  2  7  1 -1</clus>
<clus scale="   69.339">  2  9  1 -1</clus>
<clus scale="  114.417">  1  5  2 -1</clus>
</clustering>
</event>
<event>
 9    1  0.2423659E-006  0.1211683E+03  0.7546771E-02  0.1241457E+00
         -1   -1    0    0    0  501 -0.00000000000E+00  0.00000000000E+00  0.47111462984E+03  0.47111462984E+03  0.00000000000E+00 0.  1.
          1   -1    0    0  502    0  0.00000000000E+00 -0.00000000000E+00 -0.11892676504E+03  0.11892676504E+03  0.00000000000E+00 0. -1.
         23    2    1    2    0    0  0.23409418833E+02  0.18638098826E+02  0.13684380919E+03  0.16693243167E+03  0.90801040796E+02 0.  0.
         23    2    1    2    0    0 -0.15240556749E+02 -0.94583050775E+02 -0.53969987142E+02  0.14317250675E+03  0.91691761429E+02 0.  0.
        -11    1    3    3    0    0 -0.85789237212E+01  0.47690448699E+02  0.95688181132E+02  0.10725765631E+03  0.00000000000E+00 0.  1.
         11    1    3    3    0    0  0.31988342554E+02 -0.29052349872E+02  0.41155628062E+02  0.59674775355E+02  0.00000000000E+00 0. -1.
        -13    1    4    4    0    0  0.11735676314E+02 -0.10088947788E+03 -0.54891891084E+02  0.11545359480E+03  0.00000000000E+00 0. -1.
         13    1    4    4    0    0 -0.26976233063E+02  0.63064271033E+01  0.92190394159E+00  0.27718911955E+02  0.00000000000E+00 0.  1.
         21    1    1    2  502  501 -0.81688620833E+01  0.75944951948E+02  0.26931404275E+03  0.27993645646E+03  0.00000000000E+00 0.  1.
<scales pt_clust_5="13000.00000" pt_clust_6="13000.00000" pt_clust_7="13000.00000" pt_clust_8="13000.00000" pt_clust_9="76.38302"></scales>
<clustering>
<clus scale="   76.383">  1  9  2 -1</clus>
<clus scale="   90.801">  5  6 -1 -1</clus>
<clus scale="   91.692">  7  8 -1 -1</clus>
<clus scale="  120.496">  1  5  2 -1</clus>
<clus scale="  121.168">  2  5  1 -1</clus>
</clustering>
</event>
<event>
 9    1  0.2423659E-006  0.9624640E+02  0.7546771E-02  0.1297853E+00
         -1   -1    0    0    0  501 -0.00000000000E+00  0.00000000000E+00  0.27414443065E+03  0.27414443065E+03  0.00000000000E+00 0.  1.
          1   -1    0    0  502    0  0.00000000000E+00 -0.00000000000E+00 -0.59110900763E+02  0.59110900763E+02  0.00000000000E+00 0. -1.
         23    2    1    2    0    0  0.27064490669E+02 -0.22921204508E+02  0.12492486732E+03  0.15982817434E+03  0.93171640355E+02 0.  0.
         23    2    1    2    0    0  0.64275994948E+00  0.23647929082E+02  0.14766131995E+01  0.80562416506E+02  0.76996654970E+02 0.  0.
        -11    1    4    4    0    0 -0.86994003192E+01 -0.27070352728E+02 -0.39470724961E+01  0.28706496548E+02  0.00000000000E+00 0. -1.
         11    1    4    4    0    0  0.93421602687E+01  0.50718281810E+02  0.54236856956E+01  0.51855919959E+02  0.00000000000E+00 0.  1.
        -13    1    3    3    0    0  0.43224859821E+02 -0.50176163361E+02  0.69612307820E+02  0.96082825085E+02  0.00000000000E+00 0. -1.
         13    1    3    3    0    0 -0.16160369152E+02  0.27254958853E+02  0.55312559498E+02  0.63745349253E+02  0.00000000000E+00 0.  1.
         21    1    1    2  502  501 -0.27707250618E+02 -0.72672457381E+00  0.88632049365E+02  0.92864740564E+02  0.00000000000E+00 0.  1.
<scales pt_clust_5="13000.00000" pt_clust_6="13000.00000" pt_clust_7="13000.00000" pt_clust_8="13000.00000" pt_clust_9="27.71678"></scales>
<clustering>
<clus scale="   27.717">  1  9  2 -1</clus>
<clus scale="   76.997">  5  6 -1 -1</clus>
<clus scale="   80.690">  2  5  1 -1</clus>
<clus scale="   93.172">  7  8 -1 -1</clus>
<clus scale="   80.690">  2  5  1 -1</clus>
</clustering>
</event>
<event>
 9    1  0.2423659E-006  0.1270077E+03  0.7546771E-02  0.1246381E+00
         -1   -1    0    0    0  501 -0.00000000000E+00  0.00000000000E+00  0.14270322392E+03  0.14270322392E+03  0.00000000000E+00 0.  1.
          1   -1    0    0  502    0  0.00000000000E+00 -0.00000000000E+00 -0.40426031934E+03  0.40426031934E+03  0.00000000000E+00 0. -1.
         23    2    1    2    0    0  0.66116259878E+02 -0.53606853422E+02  0.81420093832E+02  0.14938647596E+03  0.91880536380E+02 0.  0.
         23    2    1    2    0    0  0.11075026642E+02 -0.16721302821E+02 -0.13587817637E+03  0.16564055570E+03  0.92583241975E+02 0.  0.
        -13    1    4    4    0    0 -0.95742887290E+01  0.36270075098E+02 -0.47184429588E+02  0.60278982637E+02  0.00000000000E+00 0. -1.
         13    1    4    4    0    0  0.20649315371E+02 -0.52991377920E+02 -0.88693746786E+02  0.10536157306E+03  0.00000000000E+00 0.  1.
        -13    1    3    3    0    0  0.85728021960E+02 -0.49118208409E+02  0.46756070769E+02  0.10930700938E+03  0.00000000000E+00 0.  1.
         13    1    3    3    0    0 -0.19611762082E+02 -0.44886450126E+01  0.34664023063E+02  0.40079466575E+02  0.00000000000E+00 0. -1.
         21    1    1    2  502  501 -0.77191286520E+02  0.70328156243E+02 -0.20709901288E+03  0.23193651160E+03  0.00000000000E+00 0. -1.
<scales pt_clust_5="13000.00000" pt_clust_6="13000.00000" pt_clust_7="13000.00000" pt_clust_8="13000.00000" pt_clust_9="87.68656"></scales>
<clustering>
<clus scale="   91.881">  7  8 -1 -1</clus>
<clus scale="   92.583">  5  6 -1 -1</clus>
<clus scale="   94.731">  2  5  1 -1</clus>
<clus scale="   87.687">  2  9  1 -1</clus>
<clus scale="   94.731">  2  5  1 -1</clus>
</clustering>
</event>
<event>
 9    1  0.2423659E-006  0.9691465E+02  0.7546771E-02  0.1287089E+00
         -2   -1    0    0    0  501 -0.00000000000E+00  0.00000000000E+00  0.39544203658E+02  0.39544203658E+02  0.00000000000E+00 0.  1.
          2   -1    0    0  502    0  0.00000000000E+00 -0.00000000000E+00 -0.89136452164E+03  0.89136452164E+03  0.00000000000E+00 0. -1.
         23    2    1    2    0    0  0.47944302225E+02  0.31393915104E+01 -0.75822941313E+02  0.12702928942E+03  0.89882200940E+02 0.  0.
         23    2    1    2    0    0  0.24823467320E+02  0.60407632571E+02 -0.48018695141E+03  0.49269270698E+03  0.88889305323E+02 0.  0.
        -13    1    4    4    0    0 -0.44730975015E+01  0.76608260304E+02 -0.32524138977E+03  0.33417180576E+03  0.00000000000E+00 0. -1.
         13    1    4    4    0    0  0.29296564822E+02 -0.16200627733E+02 -0.15494556164E+03  0.15852090121E+03  0.00000000000E+00 0.  1.
        -13    1    3    3    0    0 -0.16440960355E+02 -0.26050868363E+02 -0.17834923897E+02  0.35595469238E+02  0.00000000000E+00 0.  1.
         13    1    3    3    0    0  0.64385262580E+02  0.29190259873E+02 -0.57988017416E+02  0.91433820180E+02  0.00000000000E+00 0. -1.
         21    1    1    2  502  501 -0.72767769545E+02 -0.63547024081E+02 -0.29581042526E+03  0.31118672890E+03  0.00000000000E+00 0.  1.
<scales pt_clust_5="13000.00000" pt_clust_6="13000.00000" pt_clust_7="13000.00000" pt_clust_8="13000.00000" pt_clust_9="96.60938"></scales>
<clustering>
<clus scale="   88.889">  5  6 -1 -1</clus>
<clus scale="   89.882">  7  8 -1 -1</clus>
<clus scale="   96.609">  2  9  1 -1</clus>
<clus scale="   96.609">  2  5  1 -1</clus>
<clus scale="   96.609">  2  5  1 -1</clus>
</clustering>
</event>
<event>
 9    1  0.2423659E-006  0.1650197E+03  0.7546771E-02  0.1210064E+00
         -2   -1    0    0    0  501 -0.00000000000E+00  0.00000000000E+00  0.56613216558E+02  0.56613216558E+02  0.00000000000E+00 0.  1.
          2   -1    0    0  502    0  0.00000000000E+00 -0.00000000000E+00 -0.11847972641E+04  0.11847972641E+04  0.00000000000E+00 0. -1.
         23    2    1    2    0    0 -0.62442790496E+01 -0.28571133249E+02 -0.15136980802E+03  0.17694968597E+03  0.86850860155E+02 0.  0.
         23    2    1    2    0    0 -0.13068308880E+03  0.46639054503E+02 -0.14194752058E+03  0.21824687833E+03  0.90715655753E+02 0.  0.
        -11    1    3    3    0    0  0.25265438782E+02 -0.41710379304E+02 -0.12383196824E+03  0.13308814559E+03  0.00000000000E+00 0. -1.
         11    1    3    3    0    0 -0.31509717832E+02  0.13139246055E+02 -0.27537839774E+02  0.43861540376E+02  0.00000000000E+00 0.  1.
        -13    1    4    4    0    0 -0.25829882499E+02  0.53518730163E+02 -0.64560574468E+02  0.87746823782E+02  0.00000000000E+00 0. -1.
         13    1    4    4    0    0 -0.10485320630E+03 -0.68796756594E+01 -0.77386946116E+02  0.13050005455E+03  0.00000000000E+00 0.  1.
         21    1    1    2  502  501  0.13692736785E+03 -0.18067921254E+02 -0.83486671889E+03  0.84621391631E+03  0.00000000000E+00 0. -1.
<scales pt_clust_5="13000.00000" pt_clust_6="13000.00000" pt_clust_7="13000.00000" pt_clust_8="13000.00000" pt_clust_9="137.84834"></scales>
<clustering>
<clus scale="   86.851">  5  6 -1 -1</clus>
<clus scale="   90.716">  7  8 -1 -1</clus>
<clus scale="   91.643">  1  5  2 -1</clus>
<clus scale="  137.848">  2  9  1 -1</clus>
<clus scale="  137.848">  2  5  1 -1</clus>
</clustering>
</event>
<event>
 9    1  0.2423659E-006  0.1225955E+03  0.7546771E-02  0.1239440E+00
          2   -1    0    0  502    0  0.00000000000E+00  0.00000000000E+00  0.32815119863E+03  0.32815119863E+03  0.00000000000E+00 0. -1.
         -2   -1    0    0    0  501 -0.00000000000E+00 -0.00000000000E+00 -0.34487285429E+03  0.34487285429E+03  0.00000000000E+00 0.  1.
         23    2    1    2    0    0 -0.62873279362E+02  0.12290798354E+03 -0.75306226204E+02  0.18260932326E+03  0.92820878902E+02 0.  0.
         23    2    1    2    0    0 -0.62233052380E+01 -0.75701617970E+02  0.25265704983E+03  0.27906926325E+03  0.90964852395E+02 0.  0.
        -11    1    3    3    0    0 -0.28982285248E+02  0.97916470017E+02 -0.69857388054E+01  0.10235432822E+03  0.00000000000E+00 0. -1.
         11    1    3    3    0    0 -0.33890994114E+02  0.24991513524E+02 -0.68320487399E+02  0.80254995039E+02  0.00000000000E+00 0.  1.
        -13    1    4    4    0    0 -0.37325314463E+02 -0.40514534683E+02  0.63014682627E+02  0.83698607198E+02  0.00000000000E+00 0.  1.
         13    1    4    4    0    0  0.31102009225E+02 -0.35187083288E+02  0.18964236720E+03  0.19537065605E+03  0.00000000000E+00 0. -1.
         21    1    1    2  502  501  0.69096584600E+02 -0.47206365571E+02 -0.19407247929E+03  0.21134546641E+03  0.00000000000E+00 0. -1.
<scales pt_clust_5="13000.00000" pt_clust_6="13000.00000" pt_clust_7="13000.00000" pt_clust_8="13000.00000" pt_clust_9="83.68261"></scales>
<clustering>
<clus scale="   83.683">  2  9  1 -1</clus>
<clus scale="   90.965">  7  8 -1 -1</clus>
<clus scale="   92.821">  5  6 -1 -1</clus>
<clus scale="  121.196">  1  7  2 -1</clus>
<clus scale="  121.196">  1  5  2 -1</clus>
</clustering>
</event>
<event>
 9    1  0.2423659E-006  0.1374447E+03  0.7546771E-02  0.1229905E+00
         -2   -1    0    0    0  501 -0.00000000000E+00  0.00000000000E+00  0.41744954568E+02  0.41744954568E+02  0.00000000000E+00 0.  1.
          2   -1    0    0  502    0  0.00000000000E+00 -0.00000000000E+00 -0.77798607548E+03  0.77798607548E+03  0.00000000000E+00 0. -1.
         23    2    1    2    0    0 -0.36761872330E+02  0.28375580962E+02 -0.21193163047E+03  0.23632279749E+03  0.93684789423E+02 0.  0.
         23    2    1    2    0    0 -0.81663515796E+02  0.45526472762E+01 -0.15719643836E+03  0.19626377144E+03  0.84374707912E+02 0.  0.
        -11    1    4    4    0    0 -0.33845577618E+02 -0.13718701727E+02 -0.13607016673E+03  0.14088582674E+03  0.00000000000E+00 0. -1.
         11    1    4    4    0    0 -0.47817938178E+02  0.18271349004E+02 -0.21126271632E+02  0.55377944699E+02  0.00000000000E+00 0.  1.
        -13    1    3    3    0    0 -0.63472372754E+02  0.31656960805E+02 -0.10989376304E+03  0.13079581195E+03  0.00000000000E+00 0.  1.
         13    1    3    3    0    0  0.26710500424E+02 -0.32813798435E+01 -0.10203786743E+03  0.10552698554E+03  0.00000000000E+00 0. -1.
         21    1    1    2  502  501  0.11842538813E+03 -0.32928228238E+02 -0.36711305208E+03  0.38714446112E+03  0.00000000000E+00 0. -1.
<scales pt_clust_5="13000.00000" pt_clust_6="13000.00000" pt_clust_7="13000.00000" pt_clust_8="13000.00000" pt_clust_9="108.49866"></scales>
<clustering>
<clus scale="   84.375">  5  6 -1 -1</clus>
<clus scale="   93.685">  7  8 -1 -1</clus>
<clus scale="  104.563">  1  7  2 -1</clus>
<clus scale="  108.499">  2  9  1 -1</clus>
<clus scale="  108.499">  2  5  1 -1</clus>
</clustering>
</event>
<event>
 9    1  0.2423659E-006  0.9929558E+02  0.7546771E-02  0.1282710E+00
          2   -1    0    0  502    0  0.00000000000E+00  0.00000000000E+00  0.76890726466E+03  0.76890726466E+03  0.00000000000E+00 0. -1.
         -2   -1    0    0    0  501 -0.00000000000E+00 -0.00000000000E+00 -0.19970521901E+02  0.19970521901E+02  0.00000000000E+00 0.  1.
         23    2    1    2    0    0 -0.46160483773E+01  0.52409835624E+02  0.35819293456E+03  0.37332739687E+03  0.91121172688E+02 0.  0.
         23    2    1    2    0    0  0.96456134448E+01 -0.18595161398E+02  0.34802166817E+03  0.36083375633E+03  0.92968275809E+02 0.  0.
        -11    1    4    4    0    0 -0.37403966824E+02 -0.14492546107E+02  0.90132871250E+02  0.98656095132E+02  0.00000000000E+00 0.  1.
         11    1    4    4    0    0  0.47049580269E+02 -0.41026152908E+01  0.25788879692E+03  0.26217766120E+03  0.00000000000E+00 0. -1.
        -11    1    3    3    0    0 -0.15835380393E+02  0.76728411931E+02  0.25997169557E+03  0.27152033251E+03  0.00000000000E+00 0. -1.
         11    1    3    3    0    0  0.11219332016E+02 -0.24318576307E+02  0.98221238984E+02  0.10180706435E+03  0.00000000000E+00 0.  1.
         21    1    1    2  502  501 -0.50295650675E+01 -0.33814674225E+02  0.42722140036E+02  0.54716633367E+02  0.00000000000E+00 0.  1.
<scales pt_clust_5="13000.00000" pt_clust_6="13000.00000" pt_clust_7="13000.00000" pt_clust_8="13000.00000" pt_clust_9="34.18667"></scales>
<clustering>
<clus scale="   34.187">  2  9  1 -1</clus>
<clus scale="   91.121">  7  8 -1 -1</clus>
<clus scale="   92.968">  5  6 -1 -1</clus>
<clus scale="   97.568">  2  7  1 -1</clus>
<clus scale="   99.296">  1  5  2 -1</clus>
</clustering>
</event>
<event>
 9    1  0.2423659E-006  0.9678746E+02  0.7546771E-02  0.1290035E+00
         -1   -1    0    0    0  501 -0.00000000000E+00  0.00000000000E+00  0.22823110719E+03  0.22823110719E+03  0.00000000000E+00 0.  1.
          1   -1    0    0  502    0  0.00000000000E+00 -0.00000000000E+00 -0.11339528772E+03  0.11339528772E+03  0.00000000000E+00 0. -1.
         23    2    1    2    0    0 -0.36127313121E+02 -0.15262118519E+02  0.16565832449E+03  0.19327539162E+03  0.91512739641E+02 0.  0.
         23    2    1    2    0    0  0.79698838552E+01  0.17662673458E+01  0.24395261730E+01  0.86611042259E+02  0.86190965908E+02 0.  0.
        -11    1    3    3    0    0  0.20615822435E+02 -0.28451290823E+02  0.97365409540E+02  0.10351092241E+03  0.00000000000E+00 0.  1.
         11    1    3    3    0    0 -0.56743135556E+02  0.13189172304E+02  0.68292914951E+02  0.89764469204E+02  0.00000000000E+00 0. -1.
        -13    1    4    4    0    0  0.27572394306E+02  0.36183487485E+02 -0.66453829971E+01  0.45974371225E+02  0.00000000000E+00 0.  1.
         13    1    4    4    0    0 -0.19602510451E+02 -0.34417220139E+02  0.90849091702E+01  0.40636671034E+02  0.00000000000E+00 0. -1.
         21    1    1    2  502  501  0.28157429266E+02  0.13495851173E+02 -0.53262031190E+02  0.61739961032E+02  0.00000000000E+00 0. -1.
<scales pt_clust_5="13000.00000" pt_clust_6="13000.00000" pt_clust_7="13000.00000" pt_clust_8="13000.00000" pt_clust_9="31.22465"></scales>
<clustering>
<clus scale="   31.225">  2  9  1 -1</clus>
<clus scale="   86.191">  7  8 -1 -1</clus>
<clus scale="   91.513">  5  6 -1 -1</clus>
<clus scale="   91.772">  2  7  1 -1</clus>
<clus scale="   31.225">  2  5  1 -1</clus>
</clustering>
</event>
<event>
 9    1  0.2423659E-006  0.1256438E+03  0.7546771E-02  0.1234243E+00
         -2   -1    0    0    0  501 -0.00000000000E+00  0.00000000000E+00  0.99966729823E+02  0.99966729823E+02  0.00000000000E+00 0.  1.
          2   -1    0    0  502    0  0.00000000000E+00 -0.00000000000E+00 -0.70155977724E+03  0.70155977724E+03  0.00000000000E+00 0. -1.
         23    2    1    2    0    0  0.18542309056E+02 -0.81605769072E+02  0.39272044812E+02  0.13143713097E+03  0.93435042267E+02 0.  0.
         23    2    1    2    0    0  0.33842661448E+02  0.87347414402E+02 -0.54243700997E+03  0.55844154134E+03  0.94043334587E+02 0.  0.
        -11    1    4    4    0    0 -0.35884206797E+01  0.79289929001E+02 -0.46853045496E+03  0.47520580471E+03  0.00000000000E+00 0.  1.
         11    1    4    4    0    0  0.37431082128E+02  0.80574854012E+01 -0.73906555009E+02  0.83235736638E+02  0.00000000000E+00 0. -1.
        -11    1    3    3    0    0 -0.36013416055E+01 -0.37210871808E+02 -0.28809362248E+02  0.47197436320E+02  0.00000000000E+00 0. -1.
         11    1    3    3    0    0  0.22143650662E+02 -0.44394897265E+02  0.68081407060E+02  0.84239694652E+02  0.00000000000E+00 0.  1.
         21    1    1    2  502  501 -0.52384970504E+02 -0.57416453302E+01 -0.98428082261E+02  0.11164783475E+03  0.00000000000E+00 0. -1.
<scales pt_clust_5="13000.00000" pt_clust_6="13000.00000" pt_clust_7="13000.00000" pt_clust_8="13000.00000" pt_clust_9="52.69869"></scales>
<clustering>
<clus scale="   52.699">  2  9  1 -1</clus>
<clus scale="   93.435">  7  8 -1 -1</clus>
<clus scale="   94.043">  5  6 -1 -1</clus>
<clus scale="  125.189">  1  7  2 -1</clus>
<clus scale="   52.699">  2  5  1 -1</clus>
</clustering>
</event>
<event>
 9    1  0.2423659E-006  0.1500870E+03  0.7546771E-02  0.1200963E+00
          2   -1    0    0  502    0  0.00000000000E+00  0.00000000000E+00  0.37088181610E+02  0.37088181610E+02  0.00000000000E+00 0. -1.
         -2   -1    0    0    0  501 -0.00000000000E+00 -0.00000000000E+00 -0.11993032632E+04  0.11993032632E+04  0.00000000000E+00 0.  1.
         23    2    1    2    0    0 -0.13392190955E+03 -0.87417098130E+02 -0.33865877611E+03  0.38489425815E+03  0.88752444575E+02 0.  0.
         23    2    1    2    0    0  0.68714512326E+02  0.39382460979E+02 -0.33558899341E+03  0.35685445835E+03  0.91937312941E+02 0.  0.
        -13    1    4    4    0    0  0.22583177539E+02 -0.30142521470E+02 -0.94118564283E+02  0.10137492615E+03  0.00000000000E+00 0.  1.
         13    1    4    4    0    0  0.46131334787E+02  0.69524982449E+02 -0.24147042913E+03  0.25547953221E+03  0.00000000000E+00 0. -1.
        -13    1    3    3    0    0 -0.22316192191E+02 -0.40795667078E+02 -0.17693751958E+03  0.18294585188E+03  0.00000000000E+00 0. -1.
         13    1    3    3    0    0 -0.11160571736E+03 -0.46621431052E+02 -0.16172125654E+03  0.20194840627E+03  0.00000000000E+00 0.  1.
         21    1    1    2  502  501  0.65207397223E+02  0.48034637151E+02 -0.48796731208E+03  0.49464272831E+03  0.00000000000E+00 0.  1.
<scales pt_clust_5="13000.00000" pt_clust_6="13000.00000" pt_clust_7="13000.00000" pt_clust_8="13000.00000" pt_clust_9="80.98970"></scales>
<clustering>
<clus scale="   80.990">  2  9  1 -1</clus>
<clus scale="   88.752">  7  8 -1 -1</clus>
<clus scale="   91.937">  5  6 -1 -1</clus>
<clus scale="  148.157">  2  7  1 -1</clus>
<clus scale="  150.087">  1  5  2 -1</clus>
</clustering>
</event>
<event>
 9    1  0.2423659E-006  0.1193077E+03  0.7546771E-02  0.1244964E+00
          1   -1    0    0  502    0  0.00000000000E+00  0.00000000000E+00  0.55573810339E+03  0.55573810339E+03  0.00000000000E+00 0. -1.
         -1   -1    0    0    0  501 -0.00000000000E+00 -0.00000000000E+00 -0.67715973131E+02  0.67715973131E+02  0.00000000000E+00 0.  1.
         23    2    1    2    0    0 -0.80722067423E+02 -0.74251847953E+01  0.43459950265E+02  0.13082155547E+03  0.93028633009E+02 0.  0.
         23    2    1    2    0    0  0.36056284777E+02  0.76072986632E+02  0.32424221206E+03  0.34708374050E+03  0.90812751701E+02 0.  0.
        -11    1    4    4    0    0 -0.30449274417E+02  0.29854868502E+02  0.10264582572E+03  0.11115141485E+03  0.00000000000E+00 0. -1.
         11    1    4    4    0    0  0.66505559194E+02  0.46218118130E+02  0.22159638634E+03  0.23593232565E+03  0.00000000000E+00 0.  1.
        -13    1    3    3    0    0 -0.19001192830E+02  0.22679592421E+02 -0.21279516825E+02  0.36444849810E+02  0.00000000000E+00 0.  1.
         13    1    3    3    0    0 -0.61720874593E+02 -0.30104777216E+02  0.64739467090E+02  0.94376705658E+02  0.00000000000E+00 0. -1.
         21    1    1    2  502  501  0.44665782646E+02 -0.68647801837E+02  0.12031996793E+03  0.14554878055E+03  0.00000000000E+00 0. -1.
<scales pt_clust_5="13000.00000" pt_clust_6="13000.00000" pt_clust_7="13000.00000" pt_clust_8="13000.00000" pt_clust_9="81.89965"></scales>
<clustering>
<clus scale="   81.900">  1  9  2 -1</clus>
<clus scale="   90.813">  5  6 -1 -1</clus>
<clus scale="   93.029">  7  8 -1 -1</clus>
<clus scale="  117.588">  1  5  2 -1</clus>
<clus scale="   81.900">  1  5  2 -1</clus>
</clustering>
</event>
<event>
 9    1  0.2423659E-006  0.1348430E+03  0.7546771E-02  0.1221352E+00
          2   -1    0    0  502    0  0.00000000000E+00  0.00000000000E+00  0.31500776166E+03  0.31500776166E+03  0.00000000000E+00 0. -1.
         -2   -1    0    0    0  501 -0.00000000000E+00 -0.00000000000E+00 -0.15385553770E+03  0.15385553770E+03  0.00000000000E+00 0.  1.
         23    2    1    2    0    0  0.78940643253E+02 -0.60597460056E+01  0.46766375122E+02  0.12760653973E+03  0.88475925888E+02 0.  0.
         23    2    1    2    0    0 -0.98278647378E+02 -0.88921217856E+02  0.16833605250E+03  0.23032449933E+03  0.84537996807E+02 0.  0.
        -11    1    3    3    0    0 -0.12337198720E+02  0.18770979631E+02  0.90501913743E+00  0.22480551777E+02  0.00000000000E+00 0.  1.
         11    1    3    3    0    0  0.91277841973E+02 -0.24830725637E+02  0.45861355984E+02  0.10512598796E+03  0.00000000000E+00 0. -1.
        -13    1    4    4    0    0 -0.20159918264E+02 -0.71396429470E+02  0.58881044498E+02  0.94714570404E+02  0.00000000000E+00 0. -1.
         13    1    4    4    0    0 -0.78118729114E+02 -0.17524788386E+02  0.10945500800E+03  0.13560992893E+03  0.00000000000E+00 0.  1.
         21    1    1    2  502  501  0.19338004125E+02  0.94980963862E+02 -0.53950203657E+02  0.11093226030E+03  0.00000000000E+00 0.  1.
<scales pt_clust_5="13000.00000" pt_clust_6="13000.00000" pt_clust_7="13000.00000" pt_clust_8="13000.00000" pt_clust_9="96.92957"></scales>
<clustering>
<clus scale="   84.538">  7  8 -1 -1</clus>
<clus scale="   88.476">  5  6 -1 -1</clus>
<clus scale="   96.930">  2  9  1 -1</clus>
<clus scale="  132.293">  1  7  2 -1</clus>
<clus scale="  132.293">  1  5  2 -1</clus>
</clustering>
</event>
<event>
 9    1  0.2423659E-006  0.1004377E+03  0.7546771E-02  0.1279663E+00
         -1   -1    0    0    0  501 -0.00000000000E+00  0.00000000000E+00  0.78062981040E+02  0.78062981040E+02  0.00000000000E+00 0.  1.
          1   -1    0    0  502    0  0.00000000000E+00 -0.00000000000E+00 -0.21441524959E+03  0.21441524959E+03  0.00000000000E+00 0. -1.
         23    2    1    2    0    0 -0.13426093869E+02 -0.58005196855E+02 -0.21167374878E+02  0.10990806271E+03  0.89926979433E+02 0.  0.
         23    2    1    2    0    0  0.24843418582E+02  0.12918319207E+02 -0.70895771751E+02  0.11834627704E+03  0.90529290393E+02 0.  0.
        -11    1    4    4    0    0  0.30376044362E+02  0.44915166123E+02 -0.19638813755E+02  0.57669395910E+02  0.00000000000E+00 0. -1.
         11    1    4    4    0    0 -0.55326257797E+01 -0.31996846916E+02 -0.51256957997E+02  0.60676881130E+02  0.00000000000E+00 0.  1.
        -11    1    3    3    0    0  0.10197189652E+02 -0.49484822745E+02 -0.50403581329E+02  0.71367018781E+02  0.00000000000E+00 0. -1.
         11    1    3    3    0    0 -0.23623283521E+02 -0.85203741100E+01  0.29236206450E+02  0.38541043926E+02  0.00000000000E+00 0.  1.
         21    1    1    2  502  501 -0.11417324713E+02  0.45086877648E+02 -0.44289121921E+02  0.64223890883E+02  0.00000000000E+00 0.  1.
<scales pt_clust_5="13000.00000" pt_clust_6="13000.00000" pt_clust_7="13000.00000" pt_clust_8="13000.00000" pt_clust_9="46.51002"></scales>
<clustering>
<clus scale="   46.510">  2  9  1 -1</clus>
<clus scale="   89.927">  7  8 -1 -1</clus>
<clus scale="   90.529">  5  6 -1 -1</clus>
<clus scale="   99.895">  1  7  2 -1</clus>
<clus scale="   46.510">  2  5  1 -1</clus>
</clustering>
</event>
<event>
 9    1  0.2423659E-006  0.1111342E+03  0.7546771E-02  0.1265185E+00
          3   -1    0    0  502    0  0.00000000000E+00  0.00000000000E+00  0.29453258107E+03  0.29453258107E+03  0.00000000000E+00 0. -1.
         -3   -1    0    0    0  501 -0.00000000000E+00 -0.00000000000E+00 -0.76174815529E+02  0.76174815529E+02  0.00000000000E+00 0.  1.
         23    2    1    2    0    0 -0.65288013827E+02 -0.29305046702E+02 -0.50379820024E+01  0.10385977022E+03  0.75100999301E+02 0.  0.
         23    2    1    2    0    0  0.60781741675E+02  0.15363037566E+01  0.20613971734E+03  0.23384489692E+03  0.92157866718E+02 0.  0.
        -11    1    3    3    0    0 -0.33596649774E+02  0.30408199750E+01  0.31131992702E+02  0.45904056811E+02  0.00000000000E+00 0. -1.
         11    1    3    3    0    0 -0.31691364053E+02 -0.32345866677E+02 -0.36169974705E+02  0.57955713409E+02  0.00000000000E+00 0.  1.
        -13    1    4    4    0    0  0.59357974534E+01  0.24723811863E+02  0.75553999187E+01  0.26525169790E+02  0.00000000000E+00 0.  1.
         13    1    4    4    0    0  0.54845944221E+02 -0.23187508106E+02  0.19858431742E+03  0.20731972713E+03  0.00000000000E+00 0. -1.
         21    1    1    2  502  501  0.45062721523E+01  0.27768742945E+02  0.17256030199E+02  0.33002729458E+02  0.00000000000E+00 0. -1.
<scales pt_clust_5="13000.00000" pt_clust_6="13000.00000" pt_clust_7="13000.00000" pt_clust_8="13000.00000" pt_clust_9="28.13200"></scales>
<clustering>
<clus scale="   28.132">  2  9  1 -1</clus>
<clus scale="   75.101">  5  6 -1 -1</clus>
<clus scale="   92.158">  7  8 -1 -1</clus>
<clus scale="   97.457">  2  5  1 -1</clus>
<clus scale="  111.134">  1  5  2 -1</clus>
</clustering>
</event>
<event>
 9    1  0.2423659E-006  0.1442136E+03  0.7546771E-02  0.1224756E+00
          2   -1    0    0  502    0  0.00000000000E+00  0.00000000000E+00  0.12869054480E+04  0.12869054480E+04  0.00000000000E+00 0. -1.
         -2   -1    0    0    0  501 -0.00000000000E+00 -0.00000000000E+00 -0.31082753433E+02  0.31082753433E+02  0.00000000000E+00 0.  1.
         23    2    1    2    0    0  0.97819176010E+02  0.47098823221E+02  0.26984521205E+03  0.30470996033E+03  0.90801052388E+02 0.  0.
         23    2    1    2    0    0  0.27811928958E+02 -0.37546620408E+02  0.31964897311E+03  0.33514248658E+03  0.89228740903E+02 0.  0.
        -11    1    4    4    0    0  0.58629536118E+02 -0.18065039785E+02  0.23695220943E+03  0.24476543408E+03  0.00000000000E+00 0.  1.
         11    1    4    4    0    0 -0.30817607160E+02 -0.19481580623E+02  0.82696763675E+02  0.90377052491E+02  0.00000000000E+00 0. -1.
        -13    1    3    3    0    0  0.93164978497E+02  0.67971826995E+02  0.25091762831E+03  0.27615129672E+03  0.00000000000E+00 0.  1.
         13    1    3    3    0    0  0.46541975122E+01 -0.20873003774E+02  0.18927583739E+02  0.28558663611E+02  0.00000000000E+00 0. -1.
         21    1    1    2  502  501 -0.12563110497E+03 -0.95522028131E+01  0.66632850939E+03  0.67813575451E+03  0.00000000000E+00 0. -1.
<scales pt_clust_5="13000.00000" pt_clust_6="13000.00000" pt_clust_7="13000.00000" pt_clust_8="13000.00000" pt_clust_9="112.03901"></scales>
<clustering>
<clus scale="   89.229">  5  6 -1 -1</clus>
<clus scale="   90.801">  7  8 -1 -1</clus>
<clus scale="  100.722">  1  5  2 -1</clus>
<clus scale="  112.039">  1  9  2 -1</clus>
<clus scale="  100.722">  1  5  2 -1</clus>
</clustering>
</event>
<event>
 9    1  0.2423659E-006  0.1671582E+03  0.7546771E-02  0.1184761E+00
          2   -1    0    0  502    0  0.00000000000E+00  0.00000000000E+00  0.46541049165E+03  0.46541049165E+03  0.00000000000E+00 0. -1.
         -2   -1    0    0    0  501 -0.00000000000E+00 -0.00000000000E+00 -0.16904161051E+03  0.16904161051E+03  0.00000000000E+00 0.  1.
         23    2    1    2    0    0  0.34886014116E+02  0.10730396085E+03 -0.46667397714E+02  0.16008801865E+03  0.10353334588E+03 0.  0.
         23    2    1    2    0    0  0.12181685335E+03 -0.61367332750E+02  0.16509951670E+03  0.23285330984E+03  0.91419462903E+02 0.  0.
        -11    1    3    3    0    0  0.15381855702E+02 -0.17189714924E+02 -0.21610770166E+02  0.31608751496E+02  0.00000000000E+00 0. -1.
         11    1    3    3    0    0  0.19504158414E+02  0.12449367578E+03 -0.25056627548E+02  0.12847926715E+03  0.00000000000E+00 0.  1.
        -13    1    4    4    0    0  0.84027270165E+02 -0.77689192687E+02  0.15073668743E+03  0.18925575745E+03  0.00000000000E+00 0. -1.
         13    1    4    4    0    0  0.37789583184E+02  0.16321859937E+02  0.14362829271E+02  0.43597552382E+02  0.00000000000E+00 0.  1.
         21    1    1    2  502  501 -0.15670286747E+03 -0.45936628102E+02  0.17793676215E+03  0.24151077367E+03  0.00000000000E+00 0. -1.
<scales pt_clust_5="13000.00000" pt_clust_6="13000.00000" pt_clust_7="13000.00000" pt_clust_8="13000.00000" pt_clust_9="139.94404"></scales>
<clustering>
<clus scale="   91.419">  7  8 -1 -1</clus>
<clus scale="  103.533">  5  6 -1 -1</clus>
<clus scale="  153.135">  2  5  1 -1</clus>
<clus scale="  139.944">  2  9  1 -1</clus>
<clus scale="  167.158">  1  5  2 -1</clus>
</clustering>
</event>
<event>
 9    1  0.2423659E-006  0.1473232E+03  0.7546771E-02  0.1205741E+00
          2   -1    0    0  502    0  0.00000000000E+00  0.00000000000E+00  0.45271294929E+03  0.45271294929E+03  0.00000000000E+00 0.  1.
         -2   -1    0    0    0  501 -0.00000000000E+00 -0.00000000000E+00 -0.48205401573E+03  0.48205401573E+03  0.00000000000E+00 0. -1.
         23    2    1    2    0    0  0.91906501876E+02  0.59571371710E+02 -0.38324042473E+03  0.40745786067E+03  0.84576188457E+02 0.  0.
         23    2    1    2    0    0 -0.70189564070E+02 -0.17550286077E+03  0.74423275820E+02  0.22396340021E+03  0.94302447523E+02 0.  0.
        -11    1    3    3    0    0  0.89290522269E+02  0.11283482017E+02 -0.24601923905E+03  0.26196484557E+03  0.00000000000E+00 0. -1.
         11    1    3    3    0    0  0.26159796064E+01  0.48287889693E+02 -0.13722118568E+03  0.14549301509E+03  0.00000000000E+00 0.  1.
        -13    1    4    4    0    0 -0.25293191363E+02 -0.12335664069E+02 -0.15706721337E+02  0.32227553933E+02  0.00000000000E+00 0. -1.
         13    1    4    4    0    0 -0.44896372707E+02 -0.16316719670E+03  0.90129997157E+02  0.19173584628E+03  0.00000000000E+00 0.  1.
         21    1    1    2  502  501 -0.21716937805E+02  0.11593148906E+03  0.27947608248E+03  0.30334570414E+03  0.00000000000E+00 0. -1.
<scales pt_clust_5="13000.00000" pt_clust_6="13000.00000" pt_clust_7="13000.00000" pt_clust_8="13000.00000" pt_clust_9="117.94802"></scales>
<clustering>
<clus scale="   84.576">  5  6 -1 -1</clus>
<clus scale="   94.302">  7  8 -1 -1</clus>
<clus scale="  117.948">  1  9  2 -1</clus>
<clus scale="  141.295">  2  5  1 -1</clus>
<clus scale="  117.948">  1  5  2 -1</clus>
</clustering>
</event>
<event>
 9    1  0.2423659E-006  0.1528620E+03  0.7546771E-02  0.1209402E+00
         -1   -1    0    0    0  501 -0.00000000000E+00  0.00000000000E+00  0.40480607055E+03  0.40480607055E+03  0.00000000000E+00 0.  1.
          1   -1    0    0  502    0  0.00000000000E+00 -0.00000000000E+00 -0.20214736474E+03  0.20214736474E+03  0.00000000000E+00 0. -1.
         23    2    1    2    0    0  0.12355468206E+03 -0.91955836855E+01  0.31012232464E+03  0.34712972688E+03  0.94725249127E+02 0.  0.
         23    2    1    2    0    0 -0.31443103690E+02 -0.66943739060E+02 -0.57215226487E+02  0.13018328157E+03  0.90575778711E+02 0.  0.
        -11    1    4    4    0    0 -0.27049405619E+02 -0.30371961597E+01  0.17042196487E+02  0.32114348288E+02  0.00000000000E+00 0.  1.
         11    1    4    4    0    0 -0.43936980710E+01 -0.63906542901E+02 -0.74257422974E+02  0.98068933281E+02  0.00000000000E+00 0. -1.
        -11    1    3    3    0    0  0.42322920693E+02  0.25541314622E+02  0.42129045909E+02  0.64949556410E+02  0.00000000000E+00 0. -1.
         11    1    3    3    0    0  0.81231761362E+02 -0.34736898307E+02  0.26799327873E+03  0.28218017047E+03  0.00000000000E+00 0.  1.
         21    1    1    2  502  501 -0.92111578365E+02  0.76139322746E+02 -0.50248392346E+02  0.12964042684E+03  0.00000000000E+00 0. -1.
<scales pt_clust_5="13000.00000" pt_clust_6="13000.00000" pt_clust_7="13000.00000" pt_clust_8="13000.00000" pt_clust_9="119.97463"></scales>
<clustering>
<clus scale="   90.576">  5  6 -1 -1</clus>
<clus scale="   94.725">  7  8 -1 -1</clus>
<clus scale="  116.936">  2  5  1 -1</clus>
<clus scale="  119.975">  2  9  1 -1</clus>
<clus scale="  116.936">  2  5  1 -1</clus>
</clustering>
</event>
<event>
 9    1  0.2423659E-006  0.1046819E+03  0.7546771E-02  0.1271935E+00
          2   -1    0    0  502    0  0.00000000000E+00  0.00000000000E+00  0.67400952836E+02  0.67400952836E+02  0.00000000000E+00 0. -1.
         -2   -1    0    0    0  501 -0.00000000000E+00 -0.00000000000E+00 -0.29832888956E+03  0.29832888956E+03  0.00000000000E+00 0.  1.
         23    2    1    2    0    0 -0.28322294829E+02 -0.54936591727E+02 -0.19109536845E+03  0.22138059043E+03  0.93122201876E+02 0.  0.
         23    2    1    2    0    0  0.54439207779E+01  0.13956833631E+02 -0.23365773622E+02  0.94610776927E+02  0.90447831679E+02 0.  0.
        -11    1    4    4    0    0 -0.17663652641E+02  0.43909274988E+02  0.46205743505E+01  0.47553956322E+02  0.00000000000E+00 0. -1.
         11    1    4    4    0    0  0.23107573419E+02 -0.29952441357E+02 -0.27986347973E+02  0.47056820605E+02  0.00000000000E+00 0.  1.
        -13    1    3    3    0    0 -0.43888892721E+02 -0.74658782717E+02 -0.14566284993E+03  0.16946337242E+03  0.00000000000E+00 0.  1.
         13    1    3    3    0    0  0.15566597892E+02  0.19722190990E+02 -0.45432518517E+02  0.51917218013E+02  0.00000000000E+00 0. -1.
         21    1    1    2  502  501  0.22878374051E+02  0.40979758096E+02 -0.16466794650E+02  0.49738475036E+02  0.00000000000E+00 0. -1.
<scales pt_clust_5="13000.00000" pt_clust_6="13000.00000" pt_clust_7="13000.00000" pt_clust_8="13000.00000" pt_clust_9="46.93358"></scales>
<clustering>
<clus scale="   46.934">  1  9  2 -1</clus>
<clus scale="   90.448">  5  6 -1 -1</clus>
<clus scale="   93.122">  7  8 -1 -1</clus>
<clus scale="  102.310">  1  5  2 -1</clus>
<clus scale="   46.934">  1  5  2 -1</clus>
</clustering>
</event>
<event>
 9    1  0.2423659E-006  0.9417871E+02  0.7546771E-02  0.1293752E+00
         -3   -1    0    0    0  501 -0.00000000000E+00  0.00000000000E+00  0.50455444554E+03  0.50455444554E+03  0.00000000000E+00 0.  1.
          3   -1    0    0  502    0  0.00000000000E+00 -0.00000000000E+00 -0.40532381655E+02  0.40532381655E+02  0.00000000000E+00 0. -1.
         23    2    1    2    0    0  0.41382932909E+02 -0.33852717671E+02  0.16872743628E+03  0.19886525999E+03  0.90663610387E+02 0.  0.
         23    2    1    2    0    0 -0.11462356098E+02 -0.38559028953E+02  0.12558720668E+03  0.15930096726E+03  0.89367037362E+02 0.  0.
        -11    1    3    3    0    0  0.69925669466E+02 -0.30551049620E+02  0.11678262969E+03  0.13950322032E+03  0.00000000000E+00 0.  1.
         11    1    3    3    0    0 -0.28542736557E+02 -0.33016680514E+01  0.51944806593E+02  0.59362039672E+02  0.00000000000E+00 0. -1.
        -13    1    4    4    0    0  0.15963607704E+02  0.19548574440E+02  0.10184562425E+02  0.27215966735E+02  0.00000000000E+00 0.  1.
         13    1    4    4    0    0 -0.27425963802E+02 -0.58107603393E+02  0.11540264425E+03  0.13208500052E+03  0.00000000000E+00 0. -1.
         21    1    1    2  502  501 -0.29920576811E+02  0.72411746624E+02  0.16970742093E+03  0.18692059995E+03  0.00000000000E+00 0. -1.
<scales pt_clust_5="13000.00000" pt_clust_6="13000.00000" pt_clust_7="13000.00000" pt_clust_8="13000.00000" pt_clust_9="78.34987"></scales>
<clustering>
<clus scale="   78.350">  1  9  2 -1</clus>
<clus scale="   89.367">  7  8 -1 -1</clus>
<clus scale="   90.664">  5  6 -1 -1</clus>
<clus scale="   92.931">  2  7  1 -1</clus>
<clus scale="   92.931">  2  5  1 -1</clus>
</clustering>
</event>
<event>
 9    1  0.2423659E-006  0.1131570E+03  0.7546771E-02  0.1265344E+00
         -1   -1    0    0    0  501 -0.00000000000E+00  0.00000000000E+00  0.23900662807E+02  0.23900662807E+02  0.00000000000E+00 0.  1.
          1   -1    0    0  502    0  0.00000000000E+00 -0.00000000000E+00 -0.82877127812E+03  0.82877127812E+03  0.00000000000E+00 0. -1.
         23    2    1    2    0    0 -0.49364982898E+02  0.30932026226E+02 -0.33918737666E+03  0.36086056366E+03  0.10852915798E+03 0.  0.
         23    2    1    2    0    0 -0.13162214891E+02 -0.30067369416E+02 -0.32497988830E+03  0.33783790263E+03  0.86285746479E+02 0.  0.
        -11    1    4    4    0    0  0.34825322643E+02 -0.24607595997E+02 -0.12365816749E+03  0.13080397266E+03  0.00000000000E+00 0.  1.
         11    1    4    4    0    0 -0.47987537534E+02 -0.54597734187E+01 -0.20132172082E+03  0.20703392996E+03  0.00000000000E+00 0. -1.
        -13    1    3    3    0    0  0.14866062426E+02  0.36521782504E+02 -0.23538416645E+03  0.23866408659E+03  0.00000000000E+00 0.  1.
         13    1    3    3    0    0 -0.64231045324E+02 -0.55897562777E+01 -0.10380321021E+03  0.12219647707E+03  0.00000000000E+00 0. -1.
         21    1    1    2  502  501  0.62527197789E+02 -0.86465681055E+00 -0.14070335035E+03  0.15397347464E+03  0.00000000000E+00 0.  1.
<scales pt_clust_5="13000.00000" pt_clust_6="13000.00000" pt_clust_7="13000.00000" pt_clust_8="13000.00000" pt_clust_9="62.53318"></scales>
<clustering>
<clus scale="   62.533">  1  9  2 -1</clus>
<clus scale="   86.286">  5  6 -1 -1</clus>
<clus scale="   92.039">  2  5  1 -1</clus>
<clus scale="  108.529">  7  8 -1 -1</clus>
<clus scale="   92.039">  2  5  1 -1</clus>
</clustering>
</event>
<event>
 9    1  0.2423659E-006  0.1077562E+03  0.7546771E-02  0.1265448E+00
          1   -1    0    0  502    0  0.00000000000E+00  0.00000000000E+00  0.67488641112E+02  0.67488641112E+02  0.00000000000E+00 0. -1.
         -1   -1    0    0    0  501 -0.00000000000E+00 -0.00000000000E+00 -0.25462028793E+03  0.25462028793E+03  0.00000000000E+00 0.  1.
         23    2    1    2    0    0  0.31323938428E+02  0.58748145825E+01 -0.13790898339E+03  0.17355357608E+03  0.10043034156E+03 0.  0.
         23    2    1    2    0    0 -0.43907366357E+02  0.17257286089E+02 -0.30871340593E+02  0.11645850281E+03  0.10190128784E+03 0.  0.
        -11    1    3    3    0    0  0.50803945982E+02  0.40579179859E+02 -0.93950944046E+02  0.11425624995E+03  0.00000000000E+00 0. -1.
         11    1    3    3    0    0 -0.19480007554E+02 -0.34704365276E+02 -0.43958039339E+02  0.59297326129E+02  0.00000000000E+00 0.  1.
        -13    1    4    4    0    0 -0.72220812011E+02  0.29222277537E+02 -0.83540054513E+01  0.78355450347E+02  0.00000000000E+00 0.  1.
         13    1    4    4    0    0  0.28313445654E+02 -0.11964991448E+02 -0.22517335142E+02  0.38103052463E+02  0.00000000000E+00 0. -1.
         21    1    1    2  502  501  0.12583427929E+02 -0.23132100671E+02 -0.18351322844E+02  0.32096850157E+02  0.00000000000E+00 0.  1.
<scales pt_clust_5="13000.00000" pt_clust_6="13000.00000" pt_clust_7="13000.00000" pt_clust_8="13000.00000" pt_clust_9="26.33319"></scales>
<clustering>
<clus scale="   26.333">  1  9  2 -1</clus>
<clus scale="  100.430">  5  6 -1 -1</clus>
<clus scale="  101.901">  7  8 -1 -1</clus>
<clus scale="  106.366">  2  5  1 -1</clus>
<clus scale="   26.333">  1  5  2 -1</clus>
</clustering>
</event>
<event>
 9    1  0.2423659E-006  0.1373858E+03  0.7546771E-02  0.1218296E+00
         -1   -1    0    0    0  501 -0.00000000000E+00  0.00000000000E+00  0.19599709347E+03  0.19599709347E+03  0.00000000000E+00 0.  1.
          1   -1    0    0  502    0  0.00000000000E+00 -0.00000000000E+00 -0.29102015058E+03  0.29102015058E+03  0.00000000000E+00 0. -1.
         23    2    1    2    0    0 -0.13370847696E+03  0.57939312939E+02 -0.92808219532E+02  0.19389246510E+03  0.88011372086E+02 0.  0.
         23    2    1    2    0    0  0.76907221861E+02 -0.84700917055E+01 -0.10835778394E+03  0.16297136374E+03  0.93977618787E+02 0.  0.
        -13    1    4    4    0    0  0.50260122749E+02  0.41189930604E+02 -0.64509349704E+02  0.91564985236E+02  0.00000000000E+00 0.  1.
         13    1    4    4    0    0  0.26647099111E+02 -0.49660022310E+02 -0.43848434231E+02  0.71406378507E+02  0.00000000000E+00 0. -1.
        -13    1    3    3    0    0 -0.13157508846E+02 -0.17779317522E+02 -0.32440919239E+02  0.39263690754E+02  0.00000000000E+00 0. -1.
         13    1    3    3    0    0 -0.12055096811E+03  0.75718630461E+02 -0.60367300293E+02  0.15462877435E+03  0.00000000000E+00 0.  1.
         21    1    1    2  502  501  0.56801255095E+02 -0.49469221233E+02  0.10614294636E+03  0.13015341521E+03  0.00000000000E+00 0.  1.
<scales pt_clust_5="13000.00000" pt_clust_6="13000.00000" pt_clust_7="13000.00000" pt_clust_8="13000.00000" pt_clust_9="75.32321"></scales>
<clustering>
<clus scale="   75.323">  1  9  2 -1</clus>
<clus scale="   88.011">  7  8 -1 -1</clus>
<clus scale="   93.978">  5  6 -1 -1</clus>
<clus scale="  133.376">  1  7  2 -1</clus>
<clus scale="  137.386">  2  5  1 -1</clus>
</clustering>
</event>
<event>
 9    1  0.2423659E-006  0.1785336E+03  0.7546771E-02  0.1174934E+00
         -2   -1    0    0    0  501 -0.00000000000E+00  0.00000000000E+00  0.70168520480E+02  0.70168520480E+02  0.00000000000E+00 0.  1.
          2   -1    0    0  502    0  0.00000000000E+00 -0.00000000000E+00 -0.79705506880E+03  0.79705506880E+03  0.00000000000E+00 0. -1.
         23    2    1    2    0    0 -0.21559195432E+02  0.17236403282E+03 -0.28839064890E+03  0.34850182787E+03  0.90056642936E+02 0.  0.
         23    2    1    2    0    0 -0.14963990490E+01 -0.10537122204E+03 -0.41212291158E+03  0.44312327186E+03  0.12412737882E+03 0.  0.
        -11    1    3    3    0    0 -0.25309394821E+02  0.32691552204E+01 -0.50897093831E+02  0.56936517302E+02  0.00000000000E+00 0. -1.
         11    1    3    3    0    0  0.37501993893E+01  0.16909487760E+03 -0.23749355507E+03  0.29156531057E+03  0.00000000000E+00 0.  1.
        -13    1    4    4    0    0  0.27215053250E+02 -0.71149677235E+02 -0.38133808663E+03  0.38887230810E+03  0.00000000000E+00 0. -1.
         13    1    4    4    0    0 -0.28711452299E+02 -0.34221544803E+02 -0.30784824956E+02  0.54250963765E+02  0.00000000000E+00 0.  1.
         21    1    1    2  502  501  0.23055594481E+02 -0.66992810786E+02 -0.26372987834E+02  0.75598489543E+02  0.00000000000E+00 0.  1.
<scales pt_clust_5="13000.00000" pt_clust_6="13000.00000" pt_clust_7="13000.00000" pt_clust_8="13000.00000" pt_clust_9="70.84912"></scales>
<clustering>
<clus scale="   70.849">  1  9  2 -1</clus>
<clus scale="   90.057">  5  6 -1 -1</clus>
<clus scale="  124.127">  7  8 -1 -1</clus>
<clus scale="  156.770">  1  5  2 -1</clus>
<clus scale="  178.534">  2  5  1 -1</clus>
</clustering>
</event>
<event>
 9    1  0.2423659E-006  0.1019336E+03  0.7546771E-02  0.1276348E+00
         -1   -1    0    0    0  501 -0.00000000000E+00  0.00000000000E+00  0.11483017741E+03  0.11483017741E+03  0.00000000000E+00 0.  1.
          1   -1    0    0  502    0  0.00000000000E+00 -0.00000000000E+00 -0.36962427041E+03  0.36962427041E+03  0.00000000000E+00 0. -1.
         23    2    1    2    0    0 -0.57065205354E+02 -0.14584389758E+02  0.35250494965E+02  0.11467997578E+03  0.91868152056E+02 0.  0.
         23    2    1    2    0    0  0.31341979833E+02 -0.32577233480E+02 -0.29829870649E+03  0.31542345080E+03  0.92012168675E+02 0.  0.
        -13    1    4    4    0    0 -0.23428411565E+02 -0.72726830811E+01 -0.23123494664E+02  0.33711695199E+02  0.00000000000E+00 0.  1.
         13    1    4    4    0    0  0.54770391398E+02 -0.25304550399E+02 -0.27517521182E+03  0.28171175561E+03  0.00000000000E+00 0. -1.
        -13    1    3    3    0    0 -0.54187546887E+02  0.13999619703E+02  0.56053555561E+02  0.79210357153E+02  0.00000000000E+00 0.  1.
         13    1    3    3    0    0 -0.28776584672E+01 -0.28584009461E+02 -0.20803060595E+02  0.35469618623E+02  0.00000000000E+00 0. -1.
         21    1    1    2  502  501  0.25723225520E+02  0.47161623238E+02  0.82541185213E+01  0.54351021243E+02  0.00000000000E+00 0. -1.
<scales pt_clust_5="13000.00000" pt_clust_6="13000.00000" pt_clust_7="13000.00000" pt_clust_8="13000.00000" pt_clust_9="53.72060"></scales>
<clustering>
<clus scale="   53.721">  1  9  2 -1</clus>
<clus scale="   91.868">  7  8 -1 -1</clus>
<clus scale="   92.012">  5  6 -1 -1</clus>
<clus scale="  101.804">  1  7  2 -1</clus>
<clus scale="  101.934">  2  5  1 -1</clus>
</clustering>
</event>
<event>
 9    1  0.2423659E-006  0.1033617E+03  0.7546771E-02  0.1274126E+00
          1   -1    0    0  502    0  0.00000000000E+00  0.00000000000E+00  0.57712192807E+02  0.57712192807E+02  0.00000000000E+00 0. -1.
         -1   -1    0    0    0  501 -0.00000000000E+00 -0.00000000000E+00 -0.41346847657E+03  0.41346847657E+03  0.00000000000E+00 0.  1.
         23    2    1    2    0    0 -0.11793064943E+02 -0.81481189896E+02 -0.11181374615E+03  0.16526534600E+03  0.89621761160E+02 0.  0.
         23    2    1    2    0    0 -0.36950750168E+02  0.13723964247E+02 -0.11182913147E+03  0.14964327462E+03  0.91288826595E+02 0.  0.
        -11    1    4    4    0    0 -0.66756482405E+02  0.15200467382E+02 -0.67032414940E+02  0.95816631148E+02  0.00000000000E+00 0. -1.
         11    1    4    4    0    0  0.29805732238E+02 -0.14765031342E+01 -0.44796716525E+02  0.53826643469E+02  0.00000000000E+00 0.  1.
        -13    1    3    3    0    0 -0.44282856786E+02 -0.48913140545E+02 -0.32440430830E+02  0.73524473990E+02  0.00000000000E+00 0. -1.
         13    1    3    3    0    0  0.32489791843E+02 -0.32568049352E+02 -0.79373315323E+02  0.91740872014E+02  0.00000000000E+00 0.  1.
         21    1    1    2  502  501  0.48743815111E+02  0.67757225649E+02 -0.13211340614E+03  0.15627204875E+03  0.00000000000E+00 0.  1.
<scales pt_clust_5="13000.00000" pt_clust_6="13000.00000" pt_clust_7="13000.00000" pt_clust_8="13000.00000" pt_clust_9="83.46856"></scales>
<clustering>
<clus scale="   83.469">  2  9  1 -1</clus>
<clus scale="   89.622">  7  8 -1 -1</clus>
<clus scale="   91.289">  5  6 -1 -1</clus>
<clus scale="  101.892">  2  7  1 -1</clus>
<clus scale="  103.362">  1  5  2 -1</clus>
</clustering>
</event>
<event>
 9    1  0.2423659E-006  0.1052972E+03  0.7546771E-02  0.1277788E+00
         -1   -1    0    0    0  501 -0.00000000000E+00  0.00000000000E+00  0.12414776271E+03  0.12414776271E+03  0.00000000000E+00 0.  1.
          1   -1    0    0  502    0  0.00000000000E+00 -0.00000000000E+00 -0.23318124315E+03  0.23318124315E+03  0.00000000000E+00 0. -1.
         23    2    1    2    0    0  0.25846140226E+02 -0.47650858083E+02  0.21561794397E+02  0.10639997502E+03  0.88979865505E+02 0.  0.
         23    2    1    2    0    0  0.23939446277E+02 -0.19596278818E+02 -0.12671231340E+03  0.16716830356E+03  0.10455677938E+03 0.  0.
        -11    1    4    4    0    0 -0.40809959890E+02  0.17823896412E+01 -0.47881733727E+02  0.62938781080E+02  0.00000000000E+00 0. -1.
         11    1    4    4    0    0  0.64749406168E+02 -0.21378668459E+02 -0.78830579675E+02  0.10422952248E+03  0.00000000000E+00 0.  1.
        -13    1    3    3    0    0 -0.28625117982E+02 -0.25577578099E+02  0.27654194052E+02  0.47311355186E+02  0.00000000000E+00 0. -1.
         13    1    3    3    0    0  0.54471258207E+02 -0.22073279984E+02 -0.60923996552E+01  0.59088619831E+02  0.00000000000E+00 0.  1.
         21    1    1    2  502  501 -0.49785586503E+02  0.67247136901E+02 -0.38829614349E+01  0.83760727279E+02  0.00000000000E+00 0. -1.
<scales pt_clust_5="13000.00000" pt_clust_6="13000.00000" pt_clust_7="13000.00000" pt_clust_8="13000.00000" pt_clust_9="83.67068"></scales>
<clustering>
<clus scale="   83.671">  1  9  2 -1</clus>
<clus scale="   88.980">  7  8 -1 -1</clus>
<clus scale="   89.849">  1  7  2 -1</clus>
<clus scale="  104.557">  5  6 -1 -1</clus>
<clus scale="  105.297">  2  5  1 -1</clus>
</clustering>
</event>
<event>
 9    1  0.2423659E-006  0.1783122E+03  0.7546771E-02  0.1187086E+00
         -1   -1    0    0    0  501 -0.00000000000E+00  0.00000000000E+00  0.12404768513E+03  0.12404768513E+03  0.00000000000E+00 0.  1.
          1   -1    0    0  502    0  0.00000000000E+00 -0.00000000000E+00 -0.43261174561E+03  0.43261174561E+03  0.00000000000E+00 0. -1.
         23    2    1    2    0    0 -0.31487964676E+02  0.11191640754E+03 -0.13488107857E+03  0.19900507706E+03  0.88844477276E+02 0.  0.
         23    2    1    2    0    0  0.27356273562E+02  0.79629790734E+02 -0.82604985609E+02  0.14551709069E+03  0.85219544475E+02 0.  0.
        -11    1    4    4    0    0  0.91684103673E+01  0.24165748088E+02  0.16382799907E+02  0.30601295105E+02  0.00000000000E+00 0. -1.
         11    1    4    4    0    0  0.18187863194E+02  0.55464042646E+02 -0.98987785516E+02  0.11491579559E+03  0.00000000000E+00 0.  1.
        -11    1    3    3    0    0  0.54239485752E+01  0.92384779075E+02 -0.51888696364E+02  0.10609808402E+03  0.00000000000E+00 0.  1.
         11    1    3    3    0    0 -0.36911913251E+02  0.19531628461E+02 -0.82992382207E+02  0.92906993034E+02  0.00000000000E+00 0. -1.
         21    1    1    2  502  501  0.41316911145E+01 -0.19154619827E+03 -0.91077996299E+02  0.21213726300E+03  0.00000000000E+00 0. -1.
<scales pt_clust_5="13000.00000" pt_clust_6="13000.00000" pt_clust_7="13000.00000" pt_clust_8="13000.00000" pt_clust_9="154.60236"></scales>
<clustering>
<clus scale="   85.220">  5  6 -1 -1</clus>
<clus scale="   88.844">  7  8 -1 -1</clus>
<clus scale="  119.798">  2  5  1 -1</clus>
<clus scale="  154.602">  2  9  1 -1</clus>
<clus scale="  119.798">  2  5  1 -1</clus>
</clustering>
</event>
<event>
 9    1  0.2423659E-006  0.1039233E+03  0.7546771E-02  0.1272969E+00
         -1   -1    0    0    0  501 -0.00000000000E+00  0.00000000000E+00  0.11162549445E+03  0.11162549445E+03  0.00000000000E+00 0.  1.
          1   -1    0    0  502    0  0.00000000000E+00 -0.00000000000E+00 -0.25837435634E+03  0.25837435634E+03  0.00000000000E+00 0. -1.
         23    2    1    2    0    0  0.45919116250E+02  0.21641257279E+02  0.57655721955E+01  0.10543945987E+03  0.92235181036E+02 0.  0.
         23    2    1    2    0    0 -0.48880382885E+02  0.59501646445E+02 -0.39331542979E+02  0.12526463807E+03  0.90633997572E+02 0.  0.
        -11    1    3    3    0    0  0.55792253882E+01 -0.33777729515E+02 -0.88318628075E+01  0.35356252174E+02  0.00000000000E+00 0.  1.
         11    1    3    3    0    0  0.40339890861E+02  0.55418986794E+02  0.14597435003E+02  0.70083207694E+02  0.00000000000E+00 0. -1.
        -13    1    4    4    0    0 -0.39587581108E+02  0.22103904166E+02  0.23871366312E+02  0.51240621454E+02  0.00000000000E+00 0.  1.
         13    1    4    4    0    0 -0.92928017768E+01  0.37397742279E+02 -0.63202909291E+02  0.74024016611E+02  0.00000000000E+00 0. -1.
         21    1    1    2  502  501  0.29612666353E+01 -0.81142903723E+02 -0.11318289110E+03  0.13929575285E+03  0.00000000000E+00 0. -1.
<scales pt_clust_5="13000.00000" pt_clust_6="13000.00000" pt_clust_7="13000.00000" pt_clust_8="13000.00000" pt_clust_9="81.19692"></scales>
<clustering>
<clus scale="   81.197">  2  9  1 -1</clus>
<clus scale="   90.634">  7  8 -1 -1</clus>
<clus scale="   92.235">  5  6 -1 -1</clus>
<clus scale="  102.505">  2  7  1 -1</clus>
<clus scale="   81.197">  2  5  1 -1</clus>
</clustering>
</event>
<event>
 9    1  0.2423659E-006  0.2409430E+03  0.7546771E-02  0.1145978E+00
          4   -1    0    0  502    0  0.00000000000E+00  0.00000000000E+00  0.90032382971E+02  0.90032382971E+02  0.00000000000E+00 0. -1.
         -4   -1    0    0    0  501 -0.00000000000E+00 -0.00000000000E+00 -0.10789804809E+04  0.10789804809E+04  0.00000000000E+00 0.  1.
         23    2    1    2    0    0  0.11324516349E+03  0.25540664933E+03 -0.43743393103E+03  0.52700345151E+03  0.91253330423E+02 0.  0.
         23    2    1    2    0    0 -0.41918747357E+02 -0.73927981626E+02 -0.14750097254E+03  0.19340198300E+03  0.91789227466E+02 0.  0.
        -11    1    4    4    0    0 -0.54906862795E+02 -0.32161333648E+02 -0.34835431284E+02  0.72543933149E+02  0.00000000000E+00 0. -1.
         11    1    4    4    0    0  0.12988115438E+02 -0.41766647979E+02 -0.11266554126E+03  0.12085804985E+03  0.00000000000E+00 0.  1.
        -13    1    3    3    0    0  0.73763533774E+02  0.12884589004E+03 -0.15301845178E+03  0.21320639972E+03  0.00000000000E+00 0. -1.
         13    1    3    3    0    0  0.39481629711E+02  0.12656075928E+03 -0.28441547925E+03  0.31379705179E+03  0.00000000000E+00 0.  1.
         21    1    1    2  502  501 -0.71326416128E+02 -0.18147866770E+03 -0.40401319437E+03  0.44860742938E+03  0.00000000000E+00 0. -1.
<scales pt_clust_5="13000.00000" pt_clust_6="13000.00000" pt_clust_7="13000.00000" pt_clust_8="13000.00000" pt_clust_9="222.99408"></scales>
<clustering>
<clus scale="   91.253">  7  8 -1 -1</clus>
<clus scale="   91.789">  5  6 -1 -1</clus>
<clus scale="  125.091">  1  5  2 -1</clus>
<clus scale="  222.994">  2  9  1 -1</clus>
<clus scale="  125.091">  1  5  2 -1</clus>
</clustering>
</event>
<event>
 9    1  0.2423659E-006  0.3555725E+03  0.7546771E-02  0.1076055E+00
         -2   -1    0    0    0  501 -0.00000000000E+00  0.00000000000E+00  0.16376547215E+03  0.16376547215E+03  0.00000000000E+00 0.  1.
          2   -1    0    0  502    0  0.00000000000E+00 -0.00000000000E+00 -0.15088493608E+04  0.15088493608E+04  0.00000000000E+00 0. -1.
         23    2    1    2    0    0  0.39868251204E+03 -0.22151189804E+03 -0.61929196388E+03  0.77434855323E+03  0.89877021505E+02 0.  0.
         23    2    1    2    0    0 -0.11020209390E+03  0.18135688845E+03 -0.39577881638E+03  0.45810491368E+03  0.90467772989E+02 0.  0.
        -13    1    4    4    0    0 -0.11986427920E+03  0.12877096949E+03 -0.28174461329E+03  0.33215874989E+03  0.00000000000E+00 0.  1.
         13    1    4    4    0    0  0.96621852968E+01  0.52585918961E+02 -0.11403420309E+03  0.12594616379E+03  0.00000000000E+00 0. -1.
        -13    1    3    3    0    0  0.29897976252E+03 -0.15917212453E+03 -0.51928132289E+03  0.61998206097E+03  0.00000000000E+00 0. -1.
         13    1    3    3    0    0  0.99702749526E+02 -0.62339773509E+02 -0.10001064099E+03  0.15436649227E+03  0.00000000000E+00 0.  1.
         21    1    1    2  502  501 -0.28848041814E+03  0.40155009588E+02 -0.33001310838E+03  0.44016136603E+03  0.00000000000E+00 0.  1.
<scales pt_clust_5="13000.00000" pt_clust_6="13000.00000" pt_clust_7="13000.00000" pt_clust_8="13000.00000" pt_clust_9="344.02609"></scales>
<clustering>
<clus scale="   89.877">  7  8 -1 -1</clus>
<clus scale="   90.468">  5  6 -1 -1</clus>
<clus scale="  230.693">  2  5  1 -1</clus>
<clus scale="  344.026">  1  9  2 -1</clus>
<clus scale="  230.693">  2  5  1 -1</clus>
</clustering>
</event>
<event>
 9    1  0.2423659E-006  0.9293870E+02  0.7546771E-02  0.1296156E+00
          1   -1    0    0  502    0  0.00000000000E+00  0.00000000000E+00  0.87882900118E+02  0.87882900118E+02  0.00000000000E+00 0. -1.
         -1   -1    0    0    0  501 -0.00000000000E+00 -0.00000000000E+00 -0.25701130472E+03  0.25701130472E+03  0.00000000000E+00 0.  1.
         23    2    1    2    0    0  0.61876493643E-01  0.25352721098E+02 -0.19870227569E+03  0.21974990894E+03  0.90358529317E+02 0.  0.
         23    2    1    2    0    0  0.16600473414E+02 -0.27692859477E+01  0.12505474378E+02  0.92296531683E+02  0.89883358910E+02 0.  0.
        -11    1    4    4    0    0  0.39645870922E+02 -0.29056083471E+02 -0.10742766235E+02  0.50313597508E+02  0.00000000000E+00 0. -1.
         11    1    4    4    0    0 -0.23045397507E+02  0.26286797523E+02  0.23248240613E+02  0.41982934175E+02  0.00000000000E+00 0.  1.
        -13    1    3    3    0    0 -0.38258960596E+01 -0.28579002675E+02 -0.26156676643E+02  0.38930304489E+02  0.00000000000E+00 0. -1.
         13    1    3    3    0    0  0.38877725532E+01  0.53931723774E+02 -0.17254559905E+03  0.18081960445E+03  0.00000000000E+00 0.  1.
         21    1    1    2  502  501 -0.16662349908E+02 -0.22583435151E+02  0.17068396708E+02  0.32847764214E+02  0.00000000000E+00 0. -1.
<scales pt_clust_5="13000.00000" pt_clust_6="13000.00000" pt_clust_7="13000.00000" pt_clust_8="13000.00000" pt_clust_9="28.06502"></scales>
<clustering>
<clus scale="   28.065">  1  9  2 -1</clus>
<clus scale="   89.883">  5  6 -1 -1</clus>
<clus scale="   90.359">  7  8 -1 -1</clus>
<clus scale="   92.477">  1  5  2 -1</clus>
<clus scale="   28.065">  1  5  2 -1</clus>
</clustering>
</event>
<event>
 9    1  0.2423659E-006  0.9871147E+02  0.7546771E-02  0.1285822E+00
          2   -1    0    0  502    0  0.00000000000E+00  0.00000000000E+00  0.31884744677E+03  0.31884744677E+03  0.00000000000E+00 0. -1.
         -2   -1    0    0    0  501 -0.00000000000E+00 -0.00000000000E+00 -0.86561337354E+02  0.86561337354E+02  0.00000000000E+00 0.  1.
         23    2    1    2    0    0  0.89561669812E+01 -0.42275304038E+02 -0.32499035269E+02  0.10690436492E+03  0.92222240741E+02 0.  0.
         23    2    1    2    0    0  0.11574547251E+02 -0.32391242238E+01  0.17781133680E+03  0.19821724822E+03  0.86768334809E+02 0.  0.
        -11    1    4    4    0    0  0.31056615252E+02  0.33648855368E+02  0.97519417068E+02  0.10773483895E+03  0.00000000000E+00 0. -1.
         11    1    4    4    0    0 -0.19482068001E+02 -0.36887979592E+02  0.80291919734E+02  0.90482409266E+02  0.00000000000E+00 0.  1.
        -11    1    3    3    0    0  0.33887477146E+02 -0.32625568829E+02  0.17513791566E+02  0.50194837819E+02  0.00000000000E+00 0.  1.
         11    1    3    3    0    0 -0.24931310164E+02 -0.96497352090E+01 -0.50012826834E+02  0.56709527101E+02  0.00000000000E+00 0. -1.
         21    1    1    2  502  501 -0.20530714232E+02  0.45514428262E+02  0.86973807879E+02  0.10028717098E+03  0.00000000000E+00 0. -1.
<scales pt_clust_5="13000.00000" pt_clust_6="13000.00000" pt_clust_7="13000.00000" pt_clust_8="13000.00000" pt_clust_9="49.93069"></scales>
<clustering>
<clus scale="   49.931">  1  9  2 -1</clus>
<clus scale="   86.768">  5  6 -1 -1</clus>
<clus scale="   92.222">  7  8 -1 -1</clus>
<clus scale="   93.636">  1  5  2 -1</clus>
<clus scale="   49.931">  1  5  2 -1</clus>
</clustering>
</event>
<event>
 9    1  0.2423659E-006  0.1379859E+03  0.7546771E-02  0.1216281E+00
          1   -1    0    0  502    0  0.00000000000E+00  0.00000000000E+00  0.11866293560E+03  0.11866293560E+03  0.00000000000E+00 0. -1.
         -1   -1    0    0    0  501 -0.00000000000E+00 -0.00000000000E+00 -0.31002338015E+03  0.31002338015E+03  0.00000000000E+00 0.  1.
         23    2    1    2    0    0 -0.11111847538E+03  0.28557727362E+02 -0.17208442669E+03  0.22617312557E+03  0.91533455401E+02 0.  0.
         23    2    1    2    0    0  0.82531673275E+02  0.37599881682E+02 -0.12320552595E+02  0.13010868076E+03  0.92472939801E+02 0.  0.
        -11    1    3    3    0    0 -0.30149096205E+02  0.53232491809E+02 -0.59716511618E+02  0.85491098636E+02  0.00000000000E+00 0. -1.
         11    1    3    3    0    0 -0.80969379174E+02 -0.24674764447E+02 -0.11236791507E+03  0.14068202693E+03  0.00000000000E+00 0.  1.
        -11    1    4    4    0    0  0.40980152947E+02  0.24664922685E+02  0.39789510117E+02  0.62216850306E+02  0.00000000000E+00 0. -1.
         11    1    4    4    0    0  0.41551520328E+02  0.12934958997E+02 -0.52110062712E+02  0.67891830449E+02  0.00000000000E+00 0.  1.
         21    1    1    2  502  501  0.28586802104E+02 -0.66157609044E+02 -0.69554652664E+01  0.72404509432E+02  0.00000000000E+00 0.  1.
<scales pt_clust_5="13000.00000" pt_clust_6="13000.00000" pt_clust_7="13000.00000" pt_clust_8="13000.00000" pt_clust_9="72.06965"></scales>
<clustering>
<clus scale="   72.070">  1  9  2 -1</clus>
<clus scale="   91.533">  5  6 -1 -1</clus>
<clus scale="   92.473">  7  8 -1 -1</clus>
<clus scale="  137.358">  2  5  1 -1</clus>
<clus scale="   72.070">  1  5  2 -1</clus>
</clustering>
</event>
<event>
 9    1  0.2423659E-006  0.1263081E+03  0.7546771E-02  0.1242907E+00
          1   -1    0    0  502    0  0.00000000000E+00  0.00000000000E+00  0.11532812105E+04  0.11532812105E+04  0.00000000000E+00 0. -1.
         -1   -1    0    0    0  501 -0.00000000000E+00 -0.00000000000E+00 -0.26634627029E+03  0.26634627029E+03  0.00000000000E+00 0.  1.
         23    2    1    2    0    0  0.19139606598E+02  0.84695789222E+02 -0.23068577827E+03  0.26285245397E+03  0.91300509381E+02 0.  0.
         23    2    1    2    0    0  0.48218632149E+02  0.17101387739E+02  0.15389519137E+03  0.18534994521E+03  0.89740616857E+02 0.  0.
        -11    1    4    4    0    0  0.54531570345E+02 -0.95018047195E+01  0.40193106840E+02  0.68406595403E+02  0.00000000000E+00 0. -1.
         11    1    4    4    0    0 -0.63129381959E+01  0.26603192459E+02  0.11370208453E+03  0.11694334981E+03  0.00000000000E+00 0.  1.
        -13    1    3    3    0    0  0.82194798928E+01  0.55739589388E+02 -0.22428103156E+03  0.23124974117E+03  0.00000000000E+00 0.  1.
         13    1    3    3    0    0  0.10920126705E+02  0.28956199834E+02 -0.64047467075E+01  0.31602712802E+02  0.00000000000E+00 0. -1.
         21    1    1    2  502  501 -0.67358238747E+02 -0.10179717696E+03  0.96372552712E+03  0.97142508162E+03  0.00000000000E+00 0. -1.
<scales pt_clust_5="13000.00000" pt_clust_6="13000.00000" pt_clust_7="13000.00000" pt_clust_8="13000.00000" pt_clust_9="87.28084"></scales>
<clustering>
<clus scale="   89.741">  5  6 -1 -1</clus>
<clus scale="   91.301">  7  8 -1 -1</clus>
<clus scale="  103.300">  1  5  2 -1</clus>
<clus scale="   87.281">  1  9  2 -1</clus>
<clus scale="  103.300">  1  5  2 -1</clus>
</clustering>
</event>
<event>
 9    1  0.2423659E-006  0.2690012E+03  0.7546771E-02  0.1140150E+00
         -1   -1    0    0    0  501 -0.00000000000E+00  0.00000000000E+00  0.97993044639E+02  0.97993044639E+02  0.00000000000E+00 0.  1.
          1   -1    0    0  502    0  0.00000000000E+00 -0.00000000000E+00 -0.20000970748E+04  0.20000970748E+04  0.00000000000E+00 0. -1.
         23    2    1    2    0    0 -0.35790329836E+02  0.31620691594E+02 -0.62874685907E+02  0.12099600865E+03  0.91684197845E+02 0.  0.
         23    2    1    2    0    0 -0.22014977825E+03 -0.54871148415E+02 -0.19633151807E+03  0.31421732944E+03  0.93325759261E+02 0.  0.
        -13    1    3    3    0    0  0.66741766902E+01  0.38993687783E+02  0.57327388206E+01  0.39973949214E+02  0.00000000000E+00 0.  1.
         13    1    3    3    0    0 -0.42464506526E+02 -0.73729961886E+01 -0.68607424728E+02  0.81022059435E+02  0.00000000000E+00 0. -1.
        -13    1    4    4    0    0 -0.52225078062E+02 -0.56655155065E+02 -0.69548419096E+02  0.10379907501E+03  0.00000000000E+00 0.  1.
         13    1    4    4    0    0 -0.16792470019E+03  0.17840066493E+01 -0.12678309897E+03  0.21041825443E+03  0.00000000000E+00 0. -1.
         21    1    1    2  502  501  0.25594010808E+03  0.23250456821E+02 -0.16428978262E+04  0.16628767813E+04  0.00000000000E+00 0. -1.
<scales pt_clust_5="13000.00000" pt_clust_6="13000.00000" pt_clust_7="13000.00000" pt_clust_8="13000.00000" pt_clust_9="252.29343"></scales>
<clustering>
<clus scale="   91.684">  5  6 -1 -1</clus>
<clus scale="   93.326">  7  8 -1 -1</clus>
<clus scale="  103.377">  1  5  2 -1</clus>
<clus scale="  252.293">  2  9  1 -1</clus>
<clus scale="  252.293">  2  5  1 -1</clus>
</clustering>
</event>
<event>
 9    1  0.2423659E-006  0.9302607E+02  0.7546771E-02  0.1295984E+00
          2   -1    0    0  502    0  0.00000000000E+00  0.00000000000E+00  0.57341709932E+03  0.57341709932E+03  0.00000000000E+00 0. -1.
         -2   -1    0    0    0  501 -0.00000000000E+00 -0.00000000000E+00 -0.29550855667E+02  0.29550855667E+02  0.00000000000E+00 0.  1.
         23    2    1    2    0    0 -0.36186605592E+02 -0.81939091144E+01  0.18882994723E+03  0.21357764071E+03  0.92639349473E+02 0.  0.
         23    2    1    2    0    0 -0.24509685822E+02  0.86426401083E+01  0.25508612650E+03  0.27245324736E+03  0.92121767986E+02 0.  0.
        -11    1    3    3    0    0 -0.36627335918E+02 -0.45553468688E+02  0.14275127867E+03  0.15425500902E+03  0.00000000000E+00 0. -1.
         11    1    3    3    0    0  0.44073032590E+00  0.37359559574E+02  0.46078668564E+02  0.59322631696E+02  0.00000000000E+00 0.  1.
        -11    1    4    4    0    0 -0.26839457671E+02  0.47002167482E+02  0.18202057615E+03  0.18989747333E+03  0.00000000000E+00 0.  1.
         11    1    4    4    0    0  0.23297718483E+01 -0.38359527374E+02  0.73065550350E+02  0.82555774027E+02  0.00000000000E+00 0. -1.
         21    1    1    2  502  501  0.60696291415E+02 -0.44873099386E+00  0.99950169923E+02  0.11693706692E+03  0.00000000000E+00 0. -1.
<scales pt_clust_5="13000.00000" pt_clust_6="13000.00000" pt_clust_7="13000.00000" pt_clust_8="13000.00000" pt_clust_9="60.69795"></scales>
<clustering>
<clus scale="   60.698">  2  9  1 -1</clus>
<clus scale="   92.122">  7  8 -1 -1</clus>
<clus scale="   92.511">  1  7  2 -1</clus>
<clus scale="   92.639">  5  6 -1 -1</clus>
<clus scale="   92.511">  1  5  2 -1</clus>
</clustering>
</event>
<event>
 9    1  0.2423659E-006  0.1387110E+03  0.7546771E-02  0.1220285E+00
          1   -1    0    0  502    0  0.00000000000E+00  0.00000000000E+00  0.27011022179E+02  0.27011022179E+02  0.00000000000E+00 0. -1.
         -1   -1    0    0    0  501 -0.00000000000E+00 -0.00000000000E+00 -0.14063896217E+04  0.14063896217E+04  0.00000000000E+00 0.  1.
         23    2    1    2    0    0 -0.86029778383E+02 -0.10444461401E+02 -0.56503200876E+03  0.57853876154E+03  0.89082647827E+02 0.  0.
         23    2    1    2    0    0 -0.30644983891E+01 -0.88396933660E+02 -0.42064271725E+03  0.43927777346E+03  0.90560795339E+02 0.  0.
        -11    1    3    3    0    0 -0.17420821957E+02 -0.43448369434E+02 -0.25768855967E+03  0.26190578388E+03  0.00000000000E+00 0.  1.
         11    1    3    3    0    0 -0.68608956426E+02  0.33003908033E+02 -0.30734344908E+03  0.31663297766E+03  0.00000000000E+00 0. -1.
        -13    1    4    4    0    0  0.30097406738E+02 -0.10168252335E+01 -0.14881905359E+03  0.15183543242E+03  0.00000000000E+00 0.  1.
         13    1    4    4    0    0 -0.33161905127E+02 -0.87380108427E+02 -0.27182366366E+03  0.28744234104E+03  0.00000000000E+00 0. -1.
         21    1    1    2  502  501  0.89094276772E+02  0.98841395061E+02 -0.39370387356E+03  0.41558410892E+03  0.00000000000E+00 0.  1.
<scales pt_clust_5="13000.00000" pt_clust_6="13000.00000" pt_clust_7="13000.00000" pt_clust_8="13000.00000" pt_clust_9="105.06899"></scales>
<clustering>
<clus scale="   89.083">  5  6 -1 -1</clus>
<clus scale="   90.561">  7  8 -1 -1</clus>
<clus scale="  124.282">  2  5  1 -1</clus>
<clus scale="  105.069">  2  9  1 -1</clus>
<clus scale="  138.711">  1  5  2 -1</clus>
</clustering>
</event>
<event>
 9    1  0.2423659E-006  0.2061589E+03  0.7546771E-02  0.1165365E+00
          1   -1    0    0  502    0  0.00000000000E+00  0.00000000000E+00  0.13974402358E+04  0.13974402358E+04  0.00000000000E+00 0. -1.
         -1   -1    0    0    0  501 -0.00000000000E+00 -0.00000000000E+00 -0.52852701170E+03  0.52852701170E+03  0.00000000000E+00 0.  1.
         23    2    1    2    0    0  0.35333352665E+02 -0.79566514494E+02 -0.48642397709E+03  0.50265964449E+03  0.92082336339E+02 0.  0.
         23    2    1    2    0    0  0.54323717771E+02 -0.10663821496E+03  0.21135652157E+03  0.26080926456E+03  0.95011147069E+02 0.  0.
        -11    1    3    3    0    0  0.56916971806E+02 -0.66771623080E+02 -0.44972214489E+03  0.45820082817E+03  0.00000000000E+00 0.  1.
         11    1    3    3    0    0 -0.21583619141E+02 -0.12794891413E+02 -0.36701832202E+02  0.44458816319E+02  0.00000000000E+00 0. -1.
        -13    1    4    4    0    0 -0.21663176083E+02 -0.59143992102E+02  0.80538158257E+02  0.10224333687E+03  0.00000000000E+00 0.  1.
         13    1    4    4    0    0  0.75986893854E+02 -0.47494222855E+02  0.13081836332E+03  0.15856592769E+03  0.00000000000E+00 0. -1.
         21    1    1    2  502  501 -0.89657070436E+02  0.18620472945E+03  0.11439806796E+04  0.11624983385E+04  0.00000000000E+00 0. -1.
<scales pt_clust_5="13000.00000" pt_clust_6="13000.00000" pt_clust_7="13000.00000" pt_clust_8="13000.00000" pt_clust_9="182.96002"></scales>
<clustering>
<clus scale="   92.082">  5  6 -1 -1</clus>
<clus scale="   95.011">  7  8 -1 -1</clus>
<clus scale="  126.722">  2  5  1 -1</clus>
<clus scale="  182.960">  1  9  2 -1</clus>
<clus scale="  182.960">  1  5  2 -1</clus>
</clustering>
</event>
<event>
 9    1  0.2423659E-006  0.9136220E+02  0.7546771E-02  0.1299769E+00
         -2   -1    0    0    0  501 -0.00000000000E+00  0.00000000000E+00  0.25572035521E+02  0.25572035521E+02  0.00000000000E+00 0.  1.
          2   -1    0    0  502    0  0.00000000000E+00 -0.00000000000E+00 -0.63859365978E+03  0.63859365978E+03  0.00000000000E+00 0. -1.
         23    2    1    2    0    0  0.16119526480E+02 -0.20129007121E+02 -0.12149560467E+03  0.15368023009E+03  0.90506436809E+02 0.  0.
         23    2    1    2    0    0  0.46588364014E+01 -0.14358614451E+02 -0.26315313716E+03  0.27859042466E+03  0.90195213557E+02 0.  0.
        -11    1    3    3    0    0  0.18697973025E+01 -0.39065692835E+02 -0.12383647244E+03  0.12986568602E+03  0.00000000000E+00 0. -1.
         11    1    3    3    0    0  0.14249729177E+02  0.18936685713E+02  0.23408677667E+01  0.23814544071E+02  0.00000000000E+00 0.  1.
        -13    1    4    4    0    0  0.22704332773E+02 -0.44907632228E+02 -0.19916583299E+03  0.20542446590E+03  0.00000000000E+00 0. -1.
         13    1    4    4    0    0 -0.18045496371E+02  0.30549017777E+02 -0.63987304174E+02  0.73165958764E+02  0.00000000000E+00 0.  1.
         21    1    1    2  502  501 -0.20778362881E+02  0.34487621573E+02 -0.22837288242E+03  0.23189504055E+03  0.00000000000E+00 0. -1.
<scales pt_clust_5="13000.00000" pt_clust_6="13000.00000" pt_clust_7="13000.00000" pt_clust_8="13000.00000" pt_clust_9="40.26334"></scales>
<clustering>
<clus scale="   40.263">  2  9  1 -1</clus>
<clus scale="   90.195">  7  8 -1 -1</clus>
<clus scale="   90.506">  5  6 -1 -1</clus>
<clus scale="   91.054">  2  7  1 -1</clus>
<clus scale="   40.263">  2  5  1 -1</clus>
</clustering>
</event>
<event>
 9    1  0.2423659E-006  0.9576614E+02  0.7546771E-02  0.1294179E+00
          1   -1    0    0  502    0  0.00000000000E+00  0.00000000000E+00  0.10086217779E+03  0.10086217779E+03  0.00000000000E+00 0. -1.
         -1   -1    0    0    0  501 -0.00000000000E+00 -0.00000000000E+00 -0.27615416053E+03  0.27615416053E+03  0.00000000000E+00 0.  1.
         23    2    1    2    0    0 -0.56350003286E+02 -0.11174470093E+02 -0.15984006463E+03  0.18844095493E+03  0.81614677478E+02 0.  0.
         23    2    1    2    0    0 -0.28938728301E+02 -0.92919028802E+01 -0.29637502764E+02  0.99725673368E+02  0.90238788245E+02 0.  0.
        -11    1    4    4    0    0 -0.82568883371E+01 -0.40557336425E+02  0.12587810331E+02  0.43261145521E+02  0.00000000000E+00 0. -1.
         11    1    4    4    0    0 -0.20681839964E+02  0.31265433545E+02 -0.42225313095E+02  0.56464527847E+02  0.00000000000E+00 0.  1.
        -11    1    3    3    0    0  0.14753811393E+02 -0.15310227404E+02 -0.12186969296E+02  0.24507146599E+02  0.00000000000E+00 0. -1.
         11    1    3    3    0    0 -0.71103814680E+02  0.41357573108E+01 -0.14765309534E+03  0.16393380833E+03  0.00000000000E+00 0.  1.
         21    1    1    2  502  501  0.85288731587E+02  0.20466372974E+02  0.14185584654E+02  0.88849710019E+02  0.00000000000E+00 0. -1.
<scales pt_clust_5="13000.00000" pt_clust_6="13000.00000" pt_clust_7="13000.00000" pt_clust_8="13000.00000" pt_clust_9="87.70998"></scales>
<clustering>
<clus scale="   81.615">  7  8 -1 -1</clus>
<clus scale="   87.710">  1  9  2 -1</clus>
<clus scale="   87.687">  2  7  1 -1</clus>
<clus scale="   90.239">  5  6 -1 -1</clus>
<clus scale="   87.710">  1  5  2 -1</clus>
</clustering>
</event>
<event>
 9    1  0.2423659E-006  0.1075077E+03  0.7546771E-02  0.1265893E+00
         -1   -1    0    0    0  501 -0.00000000000E+00  0.00000000000E+00  0.41645928832E+02  0.41645928832E+02  0.00000000000E+00 0.  1.
          1   -1    0    0  502    0  0.00000000000E+00 -0.00000000000E+00 -0.79619986373E+03  0.79619986373E+03  0.00000000000E+00 0. -1.
         23    2    1    2    0    0  0.35294415843E+02  0.27598323173E+02 -0.11252023160E+03  0.15047318286E+03  0.89297329234E+02 0.  0.
         23    2    1    2    0    0 -0.62725935597E+02  0.79293144311E+00 -0.63822989365E+03  0.64771128620E+03  0.90869914613E+02 0.  0.
        -11    1    3    3    0    0  0.34117829845E+02 -0.19543252052E+02 -0.90003194436E+02  0.98216801123E+02  0.00000000000E+00 0. -1.
         11    1    3    3    0    0  0.11765859978E+01  0.47141575226E+02 -0.22517037164E+02  0.52256381735E+02  0.00000000000E+00 0.  1.
        -13    1    4    4    0    0 -0.24255753591E+02  0.45384689795E+02 -0.30889683523E+03  0.31315390220E+03  0.00000000000E+00 0.  1.
         13    1    4    4    0    0 -0.38470182006E+02 -0.44591758352E+02 -0.32933305842E+03  0.33455738400E+03  0.00000000000E+00 0. -1.
         21    1    1    2  502  501  0.27431519754E+02 -0.28391254616E+02 -0.38038096504E+01  0.39661323510E+02  0.00000000000E+00 0.  1.
<scales pt_clust_5="13000.00000" pt_clust_6="13000.00000" pt_clust_7="13000.00000" pt_clust_8="13000.00000" pt_clust_9="39.47850"></scales>
<clustering>
<clus scale="   39.478">  1  9  2 -1</clus>
<clus scale="   89.297">  5  6 -1 -1</clus>
<clus scale="   90.870">  7  8 -1 -1</clus>
<clus scale="  106.182">  1  5  2 -1</clus>
<clus scale="  107.508">  2  5  1 -1</clus>
</clustering>
</event>
<event>
 9    1  0.2423659E-006  0.1556227E+03  0.7546771E-02  0.1198898E+00
          1   -1    0    0  502    0  0.00000000000E+00  0.00000000000E+00  0.19730748795E+03  0.19730748795E+03  0.00000000000E+00 0. -1.
         -1   -1    0    0    0  501 -0.00000000000E+00 -0.00000000000E+00 -0.59659729432E+03  0.59659729432E+03  0.00000000000E+00 0.  1.
         23    2    1    2    0    0  0.86669193315E+02  0.11267856793E+03 -0.51697904271E+03  0.54826289003E+03  0.11452884896E+03 0.  0.
         23    2    1    2    0    0 -0.71749596292E+02 -0.74572296653E+02  0.14226506530E+03  0.19790664681E+03  0.90656825733E+02 0.  0.
        -11    1    4    4    0    0  0.21793663066E+02 -0.17613979236E+02  0.30840667403E+02  0.41669686587E+02  0.00000000000E+00 0.  1.
         11    1    4    4    0    0 -0.93543259358E+02 -0.56958317416E+02  0.11142439790E+03  0.15623696023E+03  0.00000000000E+00 0. -1.
        -13    1    3    3    0    0  0.31024400282E+02  0.12129039067E+03 -0.38264223166E+03  0.40260271948E+03  0.00000000000E+00 0.  1.
         13    1    3    3    0    0  0.55644793033E+02 -0.86118227388E+01 -0.13433681105E+03  0.14566017055E+03  0.00000000000E+00 0. -1.
         21    1    1    2  502  501 -0.14919597023E+02 -0.38106271280E+02 -0.24575828967E+02  0.47735245423E+02  0.00000000000E+00 0.  1.
<scales pt_clust_5="13000.00000" pt_clust_6="13000.00000" pt_clust_7="13000.00000" pt_clust_8="13000.00000" pt_clust_9="40.92288"></scales>
<clustering>
<clus scale="   40.923">  2  9  1 -1</clus>
<clus scale="   90.657">  5  6 -1 -1</clus>
<clus scale="  114.529">  7  8 -1 -1</clus>
<clus scale="  138.997">  1  5  2 -1</clus>
<clus scale="  138.997">  1  5  2 -1</clus>
</clustering>
</event>
<event>
 9    1  0.2423659E-006  0.2969275E+03  0.7546771E-02  0.1110381E+00
          3   -1    0    0  502    0  0.00000000000E+00  0.00000000000E+00  0.61690146554E+02  0.61690146554E+02  0.00000000000E+00 0. -1.
         -3   -1    0    0    0  501 -0.00000000000E+00 -0.00000000000E+00 -0.23796036827E+04  0.23796036827E+04  0.00000000000E+00 0.  1.
         23    2    1    2    0    0 -0.10736216599E+03  0.79507741141E+02 -0.56478334483E+03  0.58720398207E+03  0.89331821722E+02 0.  0.
         23    2    1    2    0    0  0.30833866967E+03 -0.13835625959E+03 -0.72739730524E+03  0.80719794410E+03  0.90810195003E+02 0.  0.
        -11    1    4    4    0    0  0.59966648625E+02 -0.28681239311E+02 -0.24267670941E+03  0.25161597272E+03  0.00000000000E+00 0.  1.
         11    1    4    4    0    0  0.24837202105E+03 -0.10967502028E+03 -0.48472059583E+03  0.55558197139E+03  0.00000000000E+00 0. -1.
        -11    1    3    3    0    0 -0.12306971572E+03  0.64631429384E+02 -0.48265903631E+03  0.50227793294E+03  0.00000000000E+00 0.  1.
         11    1    3    3    0    0  0.15707549728E+02  0.14876311756E+02 -0.82124308518E+02  0.84926049122E+02  0.00000000000E+00 0. -1.
         21    1    1    2  502  501 -0.20097650369E+03  0.58848518448E+02 -0.10257328861E+04  0.10468919031E+04  0.00000000000E+00 0.  1.
<scales pt_clust_5="13000.00000" pt_clust_6="13000.00000" pt_clust_7="13000.00000" pt_clust_8="13000.00000" pt_clust_9="282.70027"></scales>
<clustering>
<clus scale="   89.332">  7  8 -1 -1</clus>
<clus scale="   90.810">  5  6 -1 -1</clus>
<clus scale="  160.712">  2  7  1 -1</clus>
<clus scale="  282.700">  2  9  1 -1</clus>
<clus scale="  296.927">  1  5  2 -1</clus>
</clustering>
</event>
<event>
 9    1  0.2423659E-006  0.9297837E+02  0.7546771E-02  0.1296498E+00
          1   -1    0    0  502    0  0.00000000000E+00  0.00000000000E+00  0.64393821813E+02  0.64393821813E+02  0.00000000000E+00 0. -1.
         -1   -1    0    0    0  501 -0.00000000000E+00 -0.00000000000E+00 -0.21094616306E+03  0.21094616306E+03  0.00000000000E+00 0.  1.
         23    2    1    2    0    0 -0.20671746870E+02 -0.29748533397E+02 -0.68978004554E+02  0.11904420466E+03  0.90007006359E+02 0.  0.
         23    2    1    2    0    0 -0.14501659844E+02  0.48205865716E+01 -0.55231971938E+02  0.10773908824E+03  0.91233788790E+02 0.  0.
        -13    1    4    4    0    0  0.91749867872E+00 -0.27518716348E+02 -0.65011007903E+02  0.70601364731E+02  0.00000000000E+00 0. -1.
         13    1    4    4    0    0 -0.15419158523E+02  0.32339302919E+02  0.97790359649E+01  0.37137723507E+02  0.00000000000E+00 0.  1.
        -13    1    3    3    0    0 -0.27251013332E+02 -0.77902534387E+01 -0.85962768620E+02  0.90514658289E+02  0.00000000000E+00 0.  1.
         13    1    3    3    0    0  0.65792664627E+01 -0.21958279958E+02  0.16984764066E+02  0.28529546374E+02  0.00000000000E+00 0. -1.
         21    1    1    2  502  501  0.35173406714E+02  0.24927946825E+02 -0.22342364758E+02  0.48556691977E+02  0.00000000000E+00 0.  1.
<scales pt_clust_5="13000.00000" pt_clust_6="13000.00000" pt_clust_7="13000.00000" pt_clust_8="13000.00000" pt_clust_9="43.11115"></scales>
<clustering>
<clus scale="   43.111">  1  9  2 -1</clus>
<clus scale="   90.007">  7  8 -1 -1</clus>
<clus scale="   91.234">  5  6 -1 -1</clus>
<clus scale="   91.775">  2  7  1 -1</clus>
<clus scale="   43.111">  1  5  2 -1</clus>
</clustering>
</event>
<event>
 9    1  0.2423659E-006  0.9765406E+02  0.7546771E-02  0.1288505E+00
         -1   -1    0    0    0  501 -0.00000000000E+00  0.00000000000E+00  0.26468230654E+03  0.26468230654E+03  0.00000000000E+00 0.  1.
          1   -1    0    0  502    0  0.00000000000E+00 -0.00000000000E+00 -0.12079525604E+03  0.12079525604E+03  0.00000000000E+00 0. -1.
         23    2    1    2    0    0  0.37297180951E+01  0.59550695392E+02  0.17481335794E+03  0.20535344735E+03  0.89722528417E+02 0.  0.
         23    2    1    2    0    0  0.99262106168E+01  0.47902028481E+00  0.33970009401E+02  0.90672546817E+02  0.83479279405E+02 0.  0.
        -11    1    3    3    0    0  0.10748173133E+02 -0.22200683582E+02  0.53309348166E+02  0.58739085617E+02  0.00000000000E+00 0.  1.
         11    1    3    3    0    0 -0.70184550379E+01  0.81751378974E+02  0.12150400977E+03  0.14661436173E+03  0.00000000000E+00 0. -1.
        -13    1    4    4    0    0  0.45195174779E+02  0.12342732576E+02  0.19538125248E+02  0.50761059967E+02  0.00000000000E+00 0.  1.
         13    1    4    4    0    0 -0.35268964162E+02 -0.11863712291E+02  0.14431884154E+02  0.39911486851E+02  0.00000000000E+00 0. -1.
         21    1    1    2  502  501 -0.13655928712E+02 -0.60029715676E+02 -0.64896316837E+02  0.89451568416E+02  0.00000000000E+00 0. -1.
<scales pt_clust_5="13000.00000" pt_clust_6="13000.00000" pt_clust_7="13000.00000" pt_clust_8="13000.00000" pt_clust_9="61.56339"></scales>
<clustering>
<clus scale="   61.563">  2  9  1 -1</clus>
<clus scale="   83.479">  7  8 -1 -1</clus>
<clus scale="   89.723">  5  6 -1 -1</clus>
<clus scale="   91.951">  2  7  1 -1</clus>
<clus scale="   61.563">  2  5  1 -1</clus>
</clustering>
</event>
<event>
 9    1  0.2423659E-006  0.2471397E+03  0.7546771E-02  0.1115196E+00
          2   -1    0    0  502    0  0.00000000000E+00  0.00000000000E+00  0.19779900988E+04  0.19779900988E+04  0.00000000000E+00 0. -1.
         -2   -1    0    0    0  501 -0.00000000000E+00 -0.00000000000E+00 -0.55220272312E+02  0.55220272312E+02  0.00000000000E+00 0.  1.
         23    2    1    2    0    0  0.10276995801E+03 -0.15888894940E+03  0.52637307962E+03  0.56697944634E+03  0.92680694366E+02 0.  0.
         23    2    1    2    0    0 -0.92192356383E+02  0.27593578709E+03  0.75707138999E+03  0.81619341831E+03  0.91512935561E+02 0.  0.
        -13    1    3    3    0    0  0.35505973707E+02 -0.72560561191E+02  0.11007494294E+03  0.13653645034E+03  0.00000000000E+00 0.  1.
         13    1    3    3    0    0  0.67263984308E+02 -0.86328388204E+02  0.41629813668E+03  0.43044299600E+03  0.00000000000E+00 0. -1.
        -13    1    4    4    0    0 -0.23247673504E+02  0.20291869895E+03  0.48987136628E+03  0.53074514431E+03  0.00000000000E+00 0.  1.
         13    1    4    4    0    0 -0.68944682879E+02  0.73017088136E+02  0.26720002371E+03  0.28544827400E+03  0.00000000000E+00 0. -1.
         21    1    1    2  502  501 -0.10577601631E+02 -0.11704683769E+03  0.63932535690E+03  0.65003750649E+03  0.00000000000E+00 0.  1.
<scales pt_clust_5="13000.00000" pt_clust_6="13000.00000" pt_clust_7="13000.00000" pt_clust_8="13000.00000" pt_clust_9="117.52382"></scales>
<clustering>
<clus scale="   91.513">  7  8 -1 -1</clus>
<clus scale="   92.681">  5  6 -1 -1</clus>
<clus scale="  117.524">  1  9  2 -1</clus>
<clus scale="  246.704">  1  7  2 -1</clus>
<clus scale="  117.524">  1  5  2 -1</clus>
</clustering>
</event>
<event>
 9    1  0.2423659E-006  0.1204624E+03  0.7546771E-02  0.1255569E+00
          1   -1    0    0  502    0  0.00000000000E+00  0.00000000000E+00  0.78412859716E+03  0.78412859716E+03  0.00000000000E+00 0. -1.
         -1   -1    0    0    0  501 -0.00000000000E+00 -0.00000000000E+00 -0.26269049065E+02  0.26269049065E+02  0.00000000000E+00 0.  1.
         23    2    1    2    0    0  0.32418071259E+02 -0.69618254699E+01  0.22738022937E+03  0.24696905532E+03  0.90512690927E+02 0.  0.
         23    2    1    2    0    0 -0.99603265172E+00 -0.26036102934E+02  0.48091495189E+03  0.49610226434E+03  0.11899325609E+03 0.  0.
        -11    1    3    3    0    0  0.40466257385E+02  0.34731672958E+02  0.14013953517E+03  0.14994297720E+03  0.00000000000E+00 0.  1.
         11    1    3    3    0    0 -0.80481861261E+01 -0.41693498428E+02  0.87240694192E+02  0.97026078114E+02  0.00000000000E+00 0. -1.
        -11    1    4    4    0    0 -0.18792783753E+02  0.44440462241E+02  0.22160234362E+03  0.22679444902E+03  0.00000000000E+00 0.  1.
         11    1    4    4    0    0  0.17796751102E+02 -0.70476565175E+02  0.25931260827E+03  0.26930781532E+03  0.00000000000E+00 0. -1.
         21    1    1    2  502  501 -0.31422038607E+02  0.32997928404E+02  0.49564366844E+02  0.67326326573E+02  0.00000000000E+00 0.  1.
<scales pt_clust_5="13000.00000" pt_clust_6="13000.00000" pt_clust_7="13000.00000" pt_clust_8="13000.00000" pt_clust_9="45.56542"></scales>
<clustering>
<clus scale="   45.565">  2  9  1 -1</clus>
<clus scale="   90.513">  5  6 -1 -1</clus>
<clus scale="   92.436">  2  5  1 -1</clus>
<clus scale="  118.993">  7  8 -1 -1</clus>
<clus scale="  120.462">  1  5  2 -1</clus>
</clustering>
</event>
<event>
 9    1  0.2423659E-006  0.1100964E+03  0.7546771E-02  0.1262217E+00
         -1   -1    0    0    0  501 -0.00000000000E+00  0.00000000000E+00  0.14164349717E+03  0.14164349717E+03  0.00000000000E+00 0.  1.
          1   -1    0    0  502    0  0.00000000000E+00 -0.00000000000E+00 -0.27852801793E+03  0.27852801793E+03  0.00000000000E+00 0. -1.
         23    2    1    2    0    0 -0.17025412877E+02 -0.17282013676E+02  0.33795264010E+02  0.98747242653E+02  0.89556492684E+02 0.  0.
         23    2    1    2    0    0 -0.72829947118E+02  0.17502293156E+02 -0.19429703333E+03  0.22851674492E+03  0.94117129609E+02 0.  0.
        -11    1    3    3    0    0  0.30821051740E+02 -0.24789556747E+02  0.30965655503E+02  0.50232769930E+02  0.00000000000E+00 0.  1.
         11    1    3    3    0    0 -0.47846464617E+02  0.75075430713E+01  0.28296085070E+01  0.48514472724E+02  0.00000000000E+00 0. -1.
        -11    1    4    4    0    0 -0.33299810759E+02 -0.15428959657E+02 -0.11264351445E+02  0.38390308753E+02  0.00000000000E+00 0.  1.
         11    1    4    4    0    0 -0.39530136360E+02  0.32931252813E+02 -0.18303268188E+03  0.19012643617E+03  0.00000000000E+00 0. -1.
         21    1    1    2  502  501  0.89855359995E+02 -0.22027948061E+00  0.23617248560E+02  0.92907527534E+02  0.00000000000E+00 0.  1.
<scales pt_clust_5="13000.00000" pt_clust_6="13000.00000" pt_clust_7="13000.00000" pt_clust_8="13000.00000" pt_clust_9="89.85563"></scales>
<clustering>
<clus scale="   89.556">  5  6 -1 -1</clus>
<clus scale="   89.856">  1  9  2 -1</clus>
<clus scale="   94.117">  7  8 -1 -1</clus>
<clus scale="  106.224">  1  5  2 -1</clus>
<clus scale="  110.096">  2  5  1 -1</clus>
</clustering>
</event>
<event>
 9    1  0.2423659E-006  0.9777968E+02  0.7546771E-02  0.1287379E+00
          1   -1    0    0  502    0  0.00000000000E+00  0.00000000000E+00  0.62948085241E+03  0.62948085241E+03  0.00000000000E+00 0. -1.
         -1   -1    0    0    0  501 -0.00000000000E+00 -0.00000000000E+00 -0.14219445346E+03  0.14219445346E+03  0.00000000000E+00 0.  1.
         23    2    1    2    0    0 -0.32219758304E+02  0.89052132005E+00 -0.11507240240E+03  0.15119338395E+03  0.92622220351E+02 0.  0.
         23    2    1    2    0    0  0.87016494955E+01 -0.44639722392E+02  0.39858703017E+03  0.41074392162E+03  0.88150581457E+02 0.  0.
        -11    1    4    4    0    0 -0.21535387247E+02 -0.61017269716E+02  0.25146607761E+03  0.25965759818E+03  0.00000000000E+00 0.  1.
         11    1    4    4    0    0  0.30237036743E+02  0.16377547324E+02  0.14712095256E+03  0.15108632344E+03  0.00000000000E+00 0. -1.
        -13    1    3    3    0    0 -0.10509203137E+02  0.46420934883E+02 -0.57824653927E+02  0.74893505377E+02  0.00000000000E+00 0.  1.
         13    1    3    3    0    0 -0.21710555167E+02 -0.45530413563E+02 -0.57247748475E+02  0.76299878573E+02  0.00000000000E+00 0. -1.
         21    1    1    2  502  501  0.23518108808E+02  0.43749201072E+02  0.20377177118E+03  0.20973800029E+03  0.00000000000E+00 0. -1.
<scales pt_clust_5="13000.00000" pt_clust_6="13000.00000" pt_clust_7="13000.00000" pt_clust_8="13000.00000" pt_clust_9="49.66985"></scales>
<clustering>
<clus scale="   49.670">  1  9  2 -1</clus>
<clus scale="   88.151">  5  6 -1 -1</clus>
<clus scale="   92.622">  7  8 -1 -1</clus>
<clus scale="   93.555">  1  5  2 -1</clus>
<clus scale="   49.670">  1  5  2 -1</clus>
</clustering>
</event>
<event>
 9    1  0.2423659E-006  0.9708008E+02  0.7546771E-02  0.1289644E+00
          2   -1    0    0  502    0  0.00000000000E+00  0.00000000000E+00  0.49830865332E+03  0.49830865332E+03  0.00000000000E+00 0. -1.
         -2   -1    0    0    0  501 -0.00000000000E+00 -0.00000000000E+00 -0.73012900445E+02  0.73012900445E+02  0.00000000000E+00 0.  1.
         23    2    1    2    0    0  0.27883493332E+02  0.38047510510E+02  0.34109975707E+02  0.10948046742E+03  0.92722058047E+02 0.  0.
         23    2    1    2    0    0 -0.15425571437E+01  0.58353406193E+02  0.77313645961E+02  0.13244361153E+03  0.90312850068E+02 0.  0.
        -13    1    4    4    0    0  0.31656418062E+02  0.58561929431E+02  0.26298374655E+02  0.71576762239E+02  0.00000000000E+00 0.  1.
         13    1    4    4    0    0 -0.33198975205E+02 -0.20852323771E+00  0.51015271306E+02  0.60866849294E+02  0.00000000000E+00 0. -1.
        -13    1    3    3    0    0 -0.34111861996E+02  0.78006829719E+01  0.13218533262E+02  0.37405873941E+02  0.00000000000E+00 0. -1.
         13    1    3    3    0    0  0.61995355329E+02  0.30246827538E+02  0.20891442445E+02  0.72074593484E+02  0.00000000000E+00 0.  1.
         21    1    1    2  502  501 -0.26340936189E+02 -0.96400916703E+02  0.31387213121E+03  0.32939747481E+03  0.00000000000E+00 0. -1.
<scales pt_clust_5="13000.00000" pt_clust_6="13000.00000" pt_clust_7="13000.00000" pt_clust_8="13000.00000" pt_clust_9="99.93489"></scales>
<clustering>
<clus scale="   90.313">  5  6 -1 -1</clus>
<clus scale="   92.722">  7  8 -1 -1</clus>
<clus scale="   99.935">  1  9  2 -1</clus>
<clus scale="   99.935">  1  5  2 -1</clus>
<clus scale="   97.080">  1  5  2 -1</clus>
</clustering>
</event>
<event>
 9    1  0.2423659E-006  0.2346427E+03  0.7546771E-02  0.1153385E+00
         -2   -1    0    0    0  501 -0.00000000000E+00  0.00000000000E+00  0.89946994670E+02  0.89946994670E+02  0.00000000000E+00 0.  1.
          2   -1    0    0  502    0  0.00000000000E+00 -0.00000000000E+00 -0.12376119995E+04  0.12376119995E+04  0.00000000000E+00 0. -1.
         23    2    1    2    0    0  0.18740903286E+02  0.42502946937E+02 -0.78960692154E+02  0.13836919019E+03  0.10369918000E+03 0.  0.
         23    2    1    2    0    0  0.11596680554E+03 -0.20322340206E+03 -0.29831043936E+03  0.39076388284E+03  0.94653276585E+02 0.  0.
        -11    1    4    4    0    0  0.12940510727E+03 -0.16541577785E+03 -0.22936559641E+03  0.31099298733E+03  0.00000000000E+00 0.  1.
         11    1    4    4    0    0 -0.13438301727E+02 -0.37807624210E+02 -0.68944842949E+02  0.79770895513E+02  0.00000000000E+00 0. -1.
        -13    1    3    3    0    0 -0.38728388543E+02  0.33710878879E+02 -0.18724011615E+02  0.54652539235E+02  0.00000000000E+00 0. -1.
         13    1    3    3    0    0  0.57469291828E+02  0.87920680584E+01 -0.60236680539E+02  0.83716650950E+02  0.00000000000E+00 0.  1.
         21    1    1    2  502  501 -0.13470770883E+03  0.16072045512E+03 -0.77039387329E+03  0.79842592111E+03  0.00000000000E+00 0. -1.
<scales pt_clust_5="13000.00000" pt_clust_6="13000.00000" pt_clust_7="13000.00000" pt_clust_8="13000.00000" pt_clust_9="214.70432"></scales>
<clustering>
<clus scale="   94.653">  5  6 -1 -1</clus>
<clus scale="  103.699">  7  8 -1 -1</clus>
<clus scale="  113.628">  1  7  2 -1</clus>
<clus scale="  214.704">  2  9  1 -1</clus>
<clus scale="  214.704">  2  5  1 -1</clus>
</clustering>
</event>
<event>
 9    1  0.2423659E-006  0.9555601E+02  0.7546771E-02  0.1292696E+00
          3   -1    0    0  502    0  0.00000000000E+00  0.00000000000E+00  0.10923333659E+03  0.10923333659E+03  0.00000000000E+00 0. -1.
         -3   -1    0    0    0  501 -0.00000000000E+00 -0.00000000000E+00 -0.13517347249E+03  0.13517347249E+03  0.00000000000E+00 0.  1.
         23    2    1    2    0    0 -0.34100242421E+02 -0.23887558147E+02 -0.64875741926E+02  0.11607621416E+03  0.86783544729E+02 0.  0.
         23    2    1    2    0    0  0.20659814024E+02  0.73314443639E+01  0.47110860986E+02  0.10549236354E+03  0.91807557158E+02 0.  0.
        -11    1    3    3    0    0  0.20529292654E+02 -0.27584213503E+02 -0.46784710965E+01  0.34701999701E+02  0.00000000000E+00 0.  1.
         11    1    3    3    0    0 -0.54629535075E+02  0.36966553562E+01 -0.60197270829E+02  0.81374214457E+02  0.00000000000E+00 0. -1.
        -13    1    4    4    0    0  0.35912842170E+02  0.41406840811E+02  0.16578099044E+02  0.57263357102E+02  0.00000000000E+00 0.  1.
         13    1    4    4    0    0 -0.15253028146E+02 -0.34075396447E+02  0.30532761942E+02  0.48229006443E+02  0.00000000000E+00 0. -1.
         21    1    1    2  502  501  0.13440428397E+02  0.16556113783E+02 -0.81752549580E+01  0.22838231383E+02  0.00000000000E+00 0.  1.
<scales pt_clust_5="13000.00000" pt_clust_6="13000.00000" pt_clust_7="13000.00000" pt_clust_8="13000.00000" pt_clust_9="21.32487"></scales>
<clustering>
<clus scale="   21.325">  2  9  1 -1</clus>
<clus scale="   86.784">  5  6 -1 -1</clus>
<clus scale="   90.740">  2  5  1 -1</clus>
<clus scale="   91.808">  7  8 -1 -1</clus>
<clus scale="   95.556">  1  5  2 -1</clus>
</clustering>
</event>
<event>
 9    1  0.2423659E-006  0.1399091E+03  0.7546771E-02  0.1229574E+00
         -2   -1    0    0    0  501 -0.00000000000E+00  0.00000000000E+00  0.80930597276E+03  0.80930597276E+03  0.00000000000E+00 0.  1.
          2   -1    0    0  502    0  0.00000000000E+00 -0.00000000000E+00 -0.65409565336E+02  0.65409565336E+02  0.00000000000E+00 0. -1.
         23    2    1    2    0    0 -0.41842968941E+02  0.65789947110E+02  0.54202352727E+02  0.13157453663E+03  0.91075860999E+02 0.  0.
         23    2    1    2    0    0  0.95201285945E+01  0.39591790782E+02  0.93247446524E+02  0.13659452090E+03  0.91130862560E+02 0.  0.
        -11    1    4    4    0    0 -0.35216508370E+02  0.41950996581E+02  0.46533946175E+02  0.71871390153E+02  0.00000000000E+00 0. -1.
         11    1    4    4    0    0  0.44736636964E+02 -0.23592057994E+01  0.46713500348E+02  0.64723130747E+02  0.00000000000E+00 0.  1.
        -13    1    3    3    0    0 -0.11429659240E+02  0.67921702913E+02 -0.58087746565E+00  0.68879113347E+02  0.00000000000E+00 0. -1.
         13    1    3    3    0    0 -0.30413309701E+02 -0.21317558025E+01  0.54783230193E+02  0.62695423279E+02  0.00000000000E+00 0.  1.
         21    1    1    2  502  501  0.32322840346E+02 -0.10538173789E+03  0.59644660817E+03  0.60654648057E+03  0.00000000000E+00 0.  1.
<scales pt_clust_5="13000.00000" pt_clust_6="13000.00000" pt_clust_7="13000.00000" pt_clust_8="13000.00000" pt_clust_9="106.20619"></scales>
<clustering>
<clus scale="   91.076">  7  8 -1 -1</clus>
<clus scale="   91.131">  5  6 -1 -1</clus>
<clus scale="   99.815">  2  5  1 -1</clus>
<clus scale="  106.206">  1  9  2 -1</clus>
<clus scale="   99.815">  2  5  1 -1</clus>
</clustering>
</event>
<event>
 9    1  0.2423659E-006  0.1006163E+03  0.7546771E-02  0.1279150E+00
         -2   -1    0    0    0  501 -0.00000000000E+00  0.00000000000E+00  0.12227492158E+03  0.12227492158E+03  0.00000000000E+00 0.  1.
          2   -1    0    0  502    0  0.00000000000E+00 -0.00000000000E+00 -0.15551588309E+03  0.15551588309E+03  0.00000000000E+00 0. -1.
         23    2    1    2    0    0  0.21217005538E+02  0.29030646751E+02  0.58855666131E+02  0.11450966230E+03  0.91408607639E+02 0.  0.
         23    2    1    2    0    0 -0.57672985626E+01 -0.43253770870E+02 -0.98340415604E+02  0.14137279708E+03  0.91713030621E+02 0.  0.
        -11    1    3    3    0    0 -0.17086978736E+02 -0.25607459078E+02  0.25153812473E+02  0.39754510243E+02  0.00000000000E+00 0. -1.
         11    1    3    3    0    0  0.38303984274E+02  0.54638105828E+02  0.33701853658E+02  0.74755152061E+02  0.00000000000E+00 0.  1.
        -11    1    4    4    0    0 -0.47679165610E+02 -0.20318260471E+02 -0.37284826436E+02  0.63845852052E+02  0.00000000000E+00 0.  1.
         11    1    4    4    0    0  0.41911867048E+02 -0.22935510399E+02 -0.61055589168E+02  0.77526945028E+02  0.00000000000E+00 0. -1.
         21    1    1    2  502  501 -0.15449706975E+02  0.14223124119E+02  0.62437879662E+01  0.21908345293E+02  0.00000000000E+00 0.  1.
<scales pt_clust_5="13000.00000" pt_clust_6="13000.00000" pt_clust_7="13000.00000" pt_clust_8="13000.00000" pt_clust_9="20.99978"></scales>
<clustering>
<clus scale="   21.000">  1  9  2 -1</clus>
<clus scale="   91.409">  5  6 -1 -1</clus>
<clus scale="   91.713">  7  8 -1 -1</clus>
<clus scale="  100.339">  1  5  2 -1</clus>
<clus scale="  100.616">  2  5  1 -1</clus>
</clustering>
</event>
<event>
 9    1  0.2423659E-006  0.1634595E+03  0.7546771E-02  0.1191239E+00
         -1   -1    0    0    0  501 -0.00000000000E+00  0.00000000000E+00  0.38282167443E+03  0.38282167443E+03  0.00000000000E+00 0.  1.
          1   -1    0    0  502    0  0.00000000000E+00 -0.00000000000E+00 -0.19886991598E+03  0.19886991598E+03  0.00000000000E+00 0. -1.
         23    2    1    2    0    0  0.99703504324E+01  0.14184945742E+03  0.21848107866E+03  0.27565112807E+03  0.89604052461E+02 0.  0.
         23    2    1    2    0    0  0.10383407997E+03 -0.38339671048E+02 -0.52275063708E+02  0.15118363921E+03  0.88726342988E+02 0.  0.
        -11    1    3    3    0    0 -0.31382192556E+02  0.85065499037E+02  0.82443200275E+02  0.12254738842E+03  0.00000000000E+00 0. -1.
         11    1    3    3    0    0  0.41352542989E+02  0.56783958382E+02  0.13603787839E+03  0.15310373966E+03  0.00000000000E+00 0.  1.
        -11    1    4    4    0    0 -0.59435800398E+00 -0.28161831204E+02  0.91324706726E+01  0.29611552117E+02  0.00000000000E+00 0. -1.
         11    1    4    4    0    0  0.10442843798E+03 -0.10177839844E+02 -0.61407534381E+02  0.12157208710E+03  0.00000000000E+00 0.  1.
         21    1    1    2  502  501 -0.11380443040E+03 -0.10350978637E+03  0.17745743497E+02  0.15485682312E+03  0.00000000000E+00 0. -1.
<scales pt_clust_5="13000.00000" pt_clust_6="13000.00000" pt_clust_7="13000.00000" pt_clust_8="13000.00000" pt_clust_9="136.71188"></scales>
<clustering>
<clus scale="   88.726">  7  8 -1 -1</clus>
<clus scale="   89.604">  5  6 -1 -1</clus>
<clus scale="  141.858">  2  7  1 -1</clus>
<clus scale="  136.712">  2  9  1 -1</clus>
<clus scale="  141.858">  2  5  1 -1</clus>
</clustering>
</event>
<event>
 9    1  0.2423659E-006  0.1233872E+03  0.7546771E-02  0.1240101E+00
          1   -1    0    0  502    0  0.00000000000E+00  0.00000000000E+00  0.44855067094E+03  0.44855067094E+03  0.00000000000E+00 0. -1.
         -1   -1    0    0    0  501 -0.00000000000E+00 -0.00000000000E+00 -0.86997845583E+02  0.86997845583E+02  0.00000000000E+00 0.  1.
         23    2    1    2    0    0 -0.56819264706E+02  0.50710035586E+02  0.17076921052E+02  0.11919785504E+03  0.90092013316E+02 0.  0.
         23    2    1    2    0    0 -0.31134465807E+01 -0.80276721090E+02  0.32172991558E+03  0.34575676105E+03  0.97895626739E+02 0.  0.
        -11    1    4    4    0    0 -0.34965733612E+02  0.33790922203E+01  0.12048249588E+03  0.12549921356E+03  0.00000000000E+00 0.  1.
         11    1    4    4    0    0  0.31852287032E+02 -0.83655813311E+02  0.20124741971E+03  0.22025754749E+03  0.00000000000E+00 0. -1.
        -13    1    3    3    0    0  0.78686268423E+01  0.27034649360E+02 -0.25691798585E+02  0.38116349103E+02  0.00000000000E+00 0.  1.
         13    1    3    3    0    0 -0.64687891549E+02  0.23675386226E+02  0.42768719638E+02  0.81081505939E+02  0.00000000000E+00 0. -1.
         21    1    1    2  502  501  0.59932711287E+02  0.29566685505E+02  0.22745988717E+02  0.70593900421E+02  0.00000000000E+00 0.  1.
<scales pt_clust_5="13000.00000" pt_clust_6="13000.00000" pt_clust_7="13000.00000" pt_clust_8="13000.00000" pt_clust_9="66.82903"></scales>
<clustering>
<clus scale="   66.829">  2  9  1 -1</clus>
<clus scale="   90.092">  7  8 -1 -1</clus>
<clus scale="   97.896">  5  6 -1 -1</clus>
<clus scale="  117.292">  2  7  1 -1</clus>
<clus scale="  123.387">  1  5  2 -1</clus>
</clustering>
</event>
<event>
 9    1  0.2423659E-006  0.1447116E+03  0.7546771E-02  0.1219353E+00
          1   -1    0    0  502    0  0.00000000000E+00  0.00000000000E+00  0.48612380429E+03  0.48612380429E+03  0.00000000000E+00 0. -1.
         -1   -1    0    0    0  501 -0.00000000000E+00 -0.00000000000E+00 -0.13098078005E+03  0.13098078005E+03  0.00000000000E+00 0.  1.
         23    2    1    2    0    0  0.32056653559E+02  0.52527606922E+02  0.44603082058E+02  0.12020027918E+03  0.93123002845E+02 0.  0.
         23    2    1    2    0    0  0.10016202101E+03 -0.46330849617E+02  0.33303305450E+03  0.36264292648E+03  0.91760005760E+02 0.  0.
        -13    1    4    4    0    0  0.90756412808E+02  0.53995437022E+01  0.20755622492E+03  0.22659538398E+03  0.00000000000E+00 0.  1.
         13    1    4    4    0    0  0.94056081995E+01 -0.51730393320E+02  0.12547682957E+03  0.13604754249E+03  0.00000000000E+00 0. -1.
        -13    1    3    3    0    0 -0.32076024527E+02  0.19926838598E+02  0.50406235480E+01  0.38096694499E+02  0.00000000000E+00 0. -1.
         13    1    3    3    0    0  0.64132678086E+02  0.32600768324E+02  0.39562458510E+02  0.82103584679E+02  0.00000000000E+00 0.  1.
         21    1    1    2  502  501 -0.13221867457E+03 -0.61967573050E+01 -0.22493112321E+02  0.13426137869E+03  0.00000000000E+00 0. -1.
<scales pt_clust_5="13000.00000" pt_clust_6="13000.00000" pt_clust_7="13000.00000" pt_clust_8="13000.00000" pt_clust_9="111.89968"></scales>
<clustering>
<clus scale="   91.760">  5  6 -1 -1</clus>
<clus scale="   93.123">  7  8 -1 -1</clus>
<clus scale="  111.618">  2  7  1 -1</clus>
<clus scale="  111.900">  2  9  1 -1</clus>
<clus scale="  144.712">  1  5  2 -1</clus>
</clustering>
</event>
<event>
 9    1  0.2423659E-006  0.1021271E+03  0.7546771E-02  0.1275946E+00
          4   -1    0    0  502    0  0.00000000000E+00  0.00000000000E+00  0.13782253092E+03  0.13782253092E+03  0.00000000000E+00 0. -1.
         -4   -1    0    0    0  501 -0.00000000000E+00 -0.00000000000E+00 -0.12704105219E+03  0.12704105219E+03  0.00000000000E+00 0.  1.
         23    2    1    2    0    0 -0.15300896016E+02  0.31061388501E+02 -0.96212824840E+01  0.98729477659E+02  0.91956584363E+02 0.  0.
         23    2    1    2    0    0 -0.28804546330E+02 -0.51726155488E+02  0.35585767119E+02  0.11511600761E+03  0.92087194204E+02 0.  0.
        -13    1    3    3    0    0  0.35114235089E+02  0.26651572491E+02 -0.17657202635E+02  0.47487815564E+02  0.00000000000E+00 0.  1.
         13    1    3    3    0    0 -0.50415131105E+02  0.44098160093E+01  0.80359201507E+01  0.51241662095E+02  0.00000000000E+00 0. -1.
        -13    1    4    4    0    0  0.28525690139E+02  0.25338664057E+01  0.26833398752E+00  0.28639264655E+02  0.00000000000E+00 0. -1.
         13    1    4    4    0    0 -0.57330236469E+02 -0.54260021894E+02  0.35317433131E+02  0.86476742958E+02  0.00000000000E+00 0.  1.
         21    1    1    2  502  501  0.44105442347E+02  0.20664766988E+02 -0.15183005902E+02  0.51018097842E+02  0.00000000000E+00 0.  1.
<scales pt_clust_5="13000.00000" pt_clust_6="13000.00000" pt_clust_7="13000.00000" pt_clust_8="13000.00000" pt_clust_9="48.70649"></scales>
<clustering>
<clus scale="   48.706">  2  9  1 -1</clus>
<clus scale="   91.957">  5  6 -1 -1</clus>
<clus scale="   92.087">  7  8 -1 -1</clus>
<clus scale="  102.009">  2  5  1 -1</clus>
<clus scale="  102.127">  1  5  2 -1</clus>
</clustering>
</event>
<event>
 9    1  0.2423659E-006  0.9348930E+02  0.7546771E-02  0.1295513E+00
         -1   -1    0    0    0  501 -0.00000000000E+00  0.00000000000E+00  0.64192607136E+02  0.64192607136E+02  0.00000000000E+00 0.  1.
          1   -1    0    0  502    0  0.00000000000E+00 -0.00000000000E+00 -0.45871820730E+03  0.45871820730E+03  0.00000000000E+00 0. -1.
         23    2    1    2    0    0 -0.14505319454E+02  0.36268212268E+01 -0.25004253059E+01  0.92361550401E+02  0.91108977280E+02 0.  0.
         23    2    1    2    0    0 -0.31714345330E+02 -0.40893153810E+02 -0.16742522376E+03  0.19823444533E+03  0.92669520536E+02 0.  0.
        -11    1    4    4    0    0 -0.26779001666E+02  0.42182714195E+01 -0.25511090588E+01  0.27228971729E+02  0.00000000000E+00 0.  1.
         11    1    4    4    0    0 -0.49353436637E+01 -0.45111425230E+02 -0.16487411470E+03  0.17100547360E+03  0.00000000000E+00 0. -1.
        -13    1    3    3    0    0 -0.31460563874E+02 -0.92730046892E+01  0.35788519265E+02  0.48544554858E+02  0.00000000000E+00 0.  1.
         13    1    3    3    0    0  0.16955244420E+02  0.12899825916E+02 -0.38288944571E+02  0.43816995542E+02  0.00000000000E+00 0. -1.
         21    1    1    2  502  501  0.46219664783E+02  0.37266332584E+02 -0.22459995110E+03  0.23231481871E+03  0.00000000000E+00 0. -1.
<scales pt_clust_5="13000.00000" pt_clust_6="13000.00000" pt_clust_7="13000.00000" pt_clust_8="13000.00000" pt_clust_9="59.37202"></scales>
<clustering>
<clus scale="   59.372">  2  9  1 -1</clus>
<clus scale="   91.109">  7  8 -1 -1</clus>
<clus scale="   91.943">  1  7  2 -1</clus>
<clus scale="   92.670">  5  6 -1 -1</clus>
<clus scale="   59.372">  2  5  1 -1</clus>
</clustering>
</event>
<event>
 9    1  0.2423659E-006  0.1256659E+03  0.7546771E-02  0.1235354E+00
         -2   -1    0    0    0  501 -0.00000000000E+00  0.00000000000E+00  0.70426130278E+02  0.70426130278E+02  0.00000000000E+00 0.  1.
          2   -1    0    0  502    0  0.00000000000E+00 -0.00000000000E+00 -0.33552571507E+03  0.33552571507E+03  0.00000000000E+00 0. -1.
         23    2    1    2    0    0  0.94203944643E+02  0.91160884426E+01 -0.88826135900E+02  0.15834035209E+03  0.90686815056E+02 0.  0.
         23    2    1    2    0    0 -0.70822613485E+02  0.34541972233E+02 -0.13631145982E+03  0.18397444839E+03  0.95167185298E+02 0.  0.
        -11    1    3    3    0    0  0.10414225260E+03  0.28642132873E+02 -0.65404827428E+02  0.12626865012E+03  0.00000000000E+00 0. -1.
         11    1    3    3    0    0 -0.99383079619E+01 -0.19526044430E+02 -0.23421308472E+02  0.32071701962E+02  0.00000000000E+00 0.  1.
        -13    1    4    4    0    0 -0.45107427272E+02  0.88065750967E+01 -0.14005339800E+03  0.14740145878E+03  0.00000000000E+00 0. -1.
         13    1    4    4    0    0 -0.25715186212E+02  0.25735397136E+02  0.37419381825E+01  0.36572989611E+02  0.00000000000E+00 0.  1.
         21    1    1    2  502  501 -0.23381331158E+02 -0.43658060676E+02 -0.39961989074E+02  0.63637044867E+02  0.00000000000E+00 0.  1.
<scales pt_clust_5="13000.00000" pt_clust_6="13000.00000" pt_clust_7="13000.00000" pt_clust_8="13000.00000" pt_clust_9="49.52487"></scales>
<clustering>
<clus scale="   49.525">  1  9  2 -1</clus>
<clus scale="   90.687">  5  6 -1 -1</clus>
<clus scale="   95.167">  7  8 -1 -1</clus>
<clus scale="  122.308">  1  5  2 -1</clus>
<clus scale="  125.666">  2  5  1 -1</clus>
</clustering>
</event>
<event>
 9    1  0.2423659E-006  0.3639592E+03  0.7546771E-02  0.1101284E+00
          1   -1    0    0  502    0  0.00000000000E+00  0.00000000000E+00  0.10269881832E+04  0.10269881832E+04  0.00000000000E+00 0. -1.
         -1   -1    0    0    0  501 -0.00000000000E+00 -0.00000000000E+00 -0.38912250582E+03  0.38912250582E+03  0.00000000000E+00 0.  1.
         23    2    1    2    0    0  0.59789355158E+02  0.51325731002E+01 -0.24786713767E+03  0.27126657971E+03  0.92446357615E+02 0.  0.
         23    2    1    2    0    0 -0.69049636739E+02  0.34611464491E+03  0.53719883550E+03  0.64993371754E+03  0.96270704673E+02 0.  0.
        -13    1    4    4    0    0 -0.39804785494E+02  0.26453575369E+03  0.32642437328E+03  0.42203845489E+03  0.00000000000E+00 0. -1.
         13    1    4    4    0    0 -0.29244851245E+02  0.81578891213E+02  0.21077446222E+03  0.22789526265E+03  0.00000000000E+00 0.  1.
        -13    1    3    3    0    0  0.63217017080E+02 -0.32709066129E+02 -0.17862792368E+03  0.19228678939E+03  0.00000000000E+00 0.  1.
         13    1    3    3    0    0 -0.34276619213E+01  0.37841639229E+02 -0.69239213993E+02  0.78979790328E+02  0.00000000000E+00 0. -1.
         21    1    1    2  502  501  0.92602815811E+01 -0.35124721801E+03  0.34853397951E+03  0.49491039173E+03  0.00000000000E+00 0.  1.
<scales pt_clust_5="13000.00000" pt_clust_6="13000.00000" pt_clust_7="13000.00000" pt_clust_8="13000.00000" pt_clust_9="350.99611"></scales>
<clustering>
<clus scale="   92.446">  7  8 -1 -1</clus>
<clus scale="   96.271">  5  6 -1 -1</clus>
<clus scale="  110.215">  2  7  1 -1</clus>
<clus scale="  350.996">  2  9  1 -1</clus>
<clus scale="  363.959">  1  5  2 -1</clus>
</clustering>
</event>
<event>
 9    1  0.2423659E-006  0.1775792E+03  0.7546771E-02  0.1198853E+00
         -1   -1    0    0    0  501 -0.00000000000E+00  0.00000000000E+00  0.58518125552E+02  0.58518125552E+02  0.00000000000E+00 0.  1.
          1   -1    0    0  502    0  0.00000000000E+00 -0.00000000000E+00 -0.96318677809E+03  0.96318677809E+03  0.00000000000E+00 0. -1.
         23    2    1    2    0    0  0.28245073533E+02  0.15080490140E+01 -0.10235508139E+03  0.13872851752E+03  0.89269146396E+02 0.  0.
         23    2    1    2    0    0 -0.12724078563E+03 -0.89097717575E+02 -0.67468247069E+03  0.69923254579E+03  0.97985182731E+02 0.  0.
        -11    1    4    4    0    0 -0.23564867991E+02 -0.54157942140E+02 -0.11863357986E+03  0.13252287339E+03  0.00000000000E+00 0.  1.
         11    1    4    4    0    0 -0.10367591764E+03 -0.34939775435E+02 -0.55604889082E+03  0.56670967240E+03  0.00000000000E+00 0. -1.
        -11    1    3    3    0    0 -0.72179133128E+01  0.26121849922E+02 -0.89758222439E+02  0.93760267765E+02  0.00000000000E+00 0. -1.
         11    1    3    3    0    0  0.35462986845E+02 -0.24613800908E+02 -0.12596858948E+02  0.44968249760E+02  0.00000000000E+00 0.  1.
         21    1    1    2  502  501  0.98995712101E+02  0.87589668560E+02 -0.12763110047E+03  0.18374384033E+03  0.00000000000E+00 0. -1.
<scales pt_clust_5="13000.00000" pt_clust_6="13000.00000" pt_clust_7="13000.00000" pt_clust_8="13000.00000" pt_clust_9="148.09892"></scales>
<clustering>
<clus scale="   89.269">  7  8 -1 -1</clus>
<clus scale="   93.643">  1  7  2 -1</clus>
<clus scale="   97.985">  5  6 -1 -1</clus>
<clus scale="  148.099">  1  9  2 -1</clus>
<clus scale="  177.579">  2  5  1 -1</clus>
</clustering>
</event>
<event>
 9    1  0.2423659E-006  0.9085692E+02  0.7546771E-02  0.1301600E+00
         -1   -1    0    0    0  501 -0.00000000000E+00  0.00000000000E+00  0.49466938543E+02  0.49466938543E+02  0.00000000000E+00 0.  1.
          1   -1    0    0  502    0  0.00000000000E+00 -0.00000000000E+00 -0.43843543926E+03  0.43843543926E+03  0.00000000000E+00 0. -1.
         23    2    1    2    0    0  0.16016611772E+02 -0.46005413189E+02 -0.70375606620E+02  0.12345628422E+03  0.88970209689E+02 0.  0.
         23    2    1    2    0    0  0.14808203443E+02 -0.30296229359E+02 -0.15221018493E+03  0.17882466217E+03  0.87596660898E+02 0.  0.
        -13    1    4    4    0    0  0.44045250239E+02 -0.21559036119E+02 -0.13535488320E+03  0.14396430291E+03  0.00000000000E+00 0.  1.
         13    1    4    4    0    0 -0.29237046797E+02 -0.87371932403E+01 -0.16855301733E+02  0.34860359258E+02  0.00000000000E+00 0. -1.
        -13    1    3    3    0    0  0.21263348818E+02 -0.71244905296E+02 -0.60482280283E+02  0.95844002221E+02  0.00000000000E+00 0.  1.
         13    1    3    3    0    0 -0.52467370454E+01  0.25239492107E+02 -0.98933263376E+01  0.27612282004E+02  0.00000000000E+00 0. -1.
         21    1    1    2  502  501 -0.30824815215E+02  0.76301642548E+02 -0.16638270916E+03  0.18562143141E+03  0.00000000000E+00 0. -1.
<scales pt_clust_5="13000.00000" pt_clust_6="13000.00000" pt_clust_7="13000.00000" pt_clust_8="13000.00000" pt_clust_9="82.29283"></scales>
<clustering>
<clus scale="   82.293">  2  9  1 -1</clus>
<clus scale="   87.597">  5  6 -1 -1</clus>
<clus scale="   88.970">  7  8 -1 -1</clus>
<clus scale="   89.512">  2  5  1 -1</clus>
<clus scale="   82.293">  2  5  1 -1</clus>
</clustering>
</event>
<event>
 9    1  0.2423659E-006  0.9253170E+02  0.7546771E-02  0.1297504E+00
         -2   -1    0    0    0  501 -0.00000000000E+00  0.00000000000E+00  0.33137865368E+02  0.33137865368E+02  0.00000000000E+00 0.  1.
          2   -1    0    0  502    0  0.00000000000E+00 -0.00000000000E+00 -0.46601172593E+03  0.46601172593E+03  0.00000000000E+00 0. -1.
         23    2    1    2    0    0 -0.53241664808E+01 -0.24651933983E+02 -0.90454005617E+02  0.13074947857E+03  0.90980406767E+02 0.  0.
         23    2    1    2    0    0  0.23015154871E+02 -0.11079576941E+02 -0.20408513112E+03  0.22443411759E+03  0.89819140568E+02 0.  0.
        -11    1    4    4    0    0 -0.25677133060E+02  0.20899718987E+02 -0.52809433481E+02  0.62329364512E+02  0.00000000000E+00 0.  1.
         11    1    4    4    0    0  0.48692287931E+02 -0.31979295928E+02 -0.15127569764E+03  0.16210475308E+03  0.00000000000E+00 0. -1.
        -11    1    3    3    0    0 -0.38281878093E+02 -0.24015550004E+02 -0.13709441725E+02  0.47224968235E+02  0.00000000000E+00 0.  1.
         11    1    3    3    0    0  0.32957711613E+02 -0.63638397923E+00 -0.76744563892E+02  0.83524510332E+02  0.00000000000E+00 0. -1.
         21    1    1    2  502  501 -0.17690988390E+02  0.35731510924E+02 -0.13833472382E+03  0.14396599515E+03  0.00000000000E+00 0. -1.
<scales pt_clust_5="13000.00000" pt_clust_6="13000.00000" pt_clust_7="13000.00000" pt_clust_8="13000.00000" pt_clust_9="39.87119"></scales>
<clustering>
<clus scale="   39.871">  2  9  1 -1</clus>
<clus scale="   89.819">  5  6 -1 -1</clus>
<clus scale="   90.980">  7  8 -1 -1</clus>
<clus scale="   91.390">  2  5  1 -1</clus>
<clus scale="   39.871">  2  5  1 -1</clus>
</clustering>
</event>
<event>
 9    1  0.2423659E-006  0.1016561E+03  0.7546771E-02  0.1279025E+00
         -3   -1    0    0    0  501 -0.00000000000E+00  0.00000000000E+00  0.22400311234E+02  0.22400311234E+02  0.00000000000E+00 0.  1.
          3   -1    0    0  502    0  0.00000000000E+00 -0.00000000000E+00 -0.72920837865E+03  0.72920837865E+03  0.00000000000E+00 0. -1.
         23    2    1    2    0    0  0.21486363641E+02 -0.52297657492E+02 -0.22059918715E+03  0.24382343039E+03  0.87115756507E+02 0.  0.
         23    2    1    2    0    0  0.12851054291E+02  0.33429923480E+02 -0.25631941270E+03  0.27458102079E+03  0.91719061637E+02 0.  0.
        -11    1    3    3    0    0 -0.92105485322E+01  0.20832827863E+02 -0.70052506271E+02  0.73662708041E+02  0.00000000000E+00 0.  1.
         11    1    3    3    0    0  0.30696912174E+02 -0.73130485354E+02 -0.15054668088E+03  0.17016072235E+03  0.00000000000E+00 0. -1.
        -13    1    4    4    0    0  0.47138686895E+02  0.41959444221E+02 -0.16146929122E+03  0.17336372968E+03  0.00000000000E+00 0.  1.
         13    1    4    4    0    0 -0.34287632604E+02 -0.85295207401E+01 -0.94850121480E+02  0.10121729110E+03  0.00000000000E+00 0. -1.
         21    1    1    2  502  501 -0.34337417932E+02  0.18867734011E+02 -0.22988946756E+03  0.23320423870E+03  0.00000000000E+00 0.  1.
<scales pt_clust_5="13000.00000" pt_clust_6="13000.00000" pt_clust_7="13000.00000" pt_clust_8="13000.00000" pt_clust_9="39.17971"></scales>
<clustering>
<clus scale="   39.180">  2  9  1 -1</clus>
<clus scale="   87.116">  5  6 -1 -1</clus>
<clus scale="   91.719">  7  8 -1 -1</clus>
<clus scale="   97.523">  1  5  2 -1</clus>
<clus scale="   39.180">  2  5  1 -1</clus>
</clustering>
</event>
<event>
 9    1  0.2423659E-006  0.9796296E+02  0.7546771E-02  0.1288037E+00
         -3   -1    0    0    0  501 -0.00000000000E+00  0.00000000000E+00  0.39675238779E+03  0.39675238779E+03  0.00000000000E+00 0.  1.
          3   -1    0    0  502    0  0.00000000000E+00 -0.00000000000E+00 -0.96458522175E+02  0.96458522175E+02  0.00000000000E+00 0. -1.
         23    2    1    2    0    0  0.53676233893E+01  0.42380081767E+02  0.23226968640E+03  0.25258787412E+03  0.89590982915E+02 0.  0.
         23    2    1    2    0    0 -0.24021018560E+02  0.37165878840E+02  0.10683221552E+03  0.15017098953E+03  0.95811752634E+02 0.  0.
        -11    1    3    3    0    0  0.45605060429E+02  0.81204647956E+01  0.10328464511E+03  0.11319664924E+03  0.00000000000E+00 0.  1.
         11    1    3    3    0    0 -0.40237437039E+02  0.34259616971E+02  0.12898504130E+03  0.13939122488E+03  0.00000000000E+00 0. -1.
        -13    1    4    4    0    0  0.26064013495E+02  0.32061990918E+02  0.86525973870E+02  0.95885599624E+02  0.00000000000E+00 0.  1.
         13    1    4    4    0    0 -0.50085032055E+02  0.51038879221E+01  0.20306241646E+02  0.54285389909E+02  0.00000000000E+00 0. -1.
         21    1    1    2  502  501  0.18653395170E+02 -0.79545960607E+02 -0.38808036304E+02  0.90452046312E+02  0.00000000000E+00 0. -1.
<scales pt_clust_5="13000.00000" pt_clust_6="13000.00000" pt_clust_7="13000.00000" pt_clust_8="13000.00000" pt_clust_9="81.70379"></scales>
<clustering>
<clus scale="   81.704">  2  9  1 -1</clus>
<clus scale="   89.591">  5  6 -1 -1</clus>
<clus scale="   91.888">  1  5  2 -1</clus>
<clus scale="   95.812">  7  8 -1 -1</clus>
<clus scale="   81.704">  2  5  1 -1</clus>
</clustering>
</event>
<event>
 9    1  0.2423659E-006  0.9894268E+02  0.7546771E-02  0.1282733E+00
         -2   -1    0    0    0  501 -0.00000000000E+00  0.00000000000E+00  0.39484959228E+02  0.39484959228E+02  0.00000000000E+00 0.  1.
          2   -1    0    0  502    0  0.00000000000E+00 -0.00000000000E+00 -0.55600740852E+03  0.55600740852E+03  0.00000000000E+00 0. -1.
         23    2    1    2    0    0  0.29701889788E+02 -0.49366075063E+02 -0.25758219825E+03  0.27943509768E+03  0.91739704251E+02 0.  0.
         23    2    1    2    0    0  0.29681253520E+02  0.24989904581E+02 -0.21904780710E+03  0.24047974378E+03  0.91340534435E+02 0.  0.
        -11    1    4    4    0    0  0.55385710952E+02  0.34014286696E+02 -0.18927593454E+03  0.20012478125E+03  0.00000000000E+00 0. -1.
         11    1    4    4    0    0 -0.25704457432E+02 -0.90243821150E+01 -0.29771872565E+02  0.40354962526E+02  0.00000000000E+00 0.  1.
        -11    1    3    3    0    0 -0.27173370892E+02 -0.31643547228E+02 -0.60042932810E+02  0.73108549071E+02  0.00000000000E+00 0.  1.
         11    1    3    3    0    0  0.56875260680E+02 -0.17722527835E+02 -0.19753926544E+03  0.20632654861E+03  0.00000000000E+00 0. -1.
         21    1    1    2  502  501 -0.59383143307E+02  0.24376170483E+02 -0.39892443941E+02  0.75577526289E+02  0.00000000000E+00 0.  1.
<scales pt_clust_5="13000.00000" pt_clust_6="13000.00000" pt_clust_7="13000.00000" pt_clust_8="13000.00000" pt_clust_9="64.19155"></scales>
<clustering>
<clus scale="   64.192">  1  9  2 -1</clus>
<clus scale="   91.341">  5  6 -1 -1</clus>
<clus scale="   91.740">  7  8 -1 -1</clus>
<clus scale="   98.573">  2  5  1 -1</clus>
<clus scale="   98.573">  2  5  1 -1</clus>
</clustering>
</event>
<event>
 9    1  0.2423659E-006  0.1771922E+03  0.7546771E-02  0.1190925E+00
          2   -1    0    0  502    0  0.00000000000E+00  0.00000000000E+00  0.44860231413E+03  0.44860231413E+03  0.00000000000E+00 0. -1.
         -2   -1    0    0    0  501 -0.00000000000E+00 -0.00000000000E+00 -0.12476677884E+03  0.12476677884E+03  0.00000000000E+00 0.  1.
         23    2    1    2    0    0  0.25325032694E+02  0.53613870807E+02  0.47253618423E+02  0.12168981329E+03  0.95182465725E+02 0.  0.
         23    2    1    2    0    0  0.13926047527E+03 -0.13465820385E+02  0.49952259439E+02  0.16872829981E+03  0.79995016360E+02 0.  0.
        -11    1    3    3    0    0  0.21572023613E+02 -0.24606900502E+02  0.63288458142E+01  0.33330257191E+02  0.00000000000E+00 0.  1.
         11    1    3    3    0    0  0.37530090806E+01  0.78220771310E+02  0.40924772609E+02  0.88359556102E+02  0.00000000000E+00 0. -1.
        -13    1    4    4    0    0  0.12509407266E+03 -0.31184013694E+02  0.18942362781E+02  0.13030649574E+03  0.00000000000E+00 0.  1.
         13    1    4    4    0    0  0.14166402609E+02  0.17718193309E+02  0.31009896658E+02  0.38421804067E+02  0.00000000000E+00 0. -1.
         21    1    1    2  502  501 -0.16458550796E+03 -0.40148050423E+02  0.22662965743E+03  0.28295097987E+03  0.00000000000E+00 0. -1.
<scales pt_clust_5="13000.00000" pt_clust_6="13000.00000" pt_clust_7="13000.00000" pt_clust_8="13000.00000" pt_clust_9="158.10713"></scales>
<clustering>
<clus scale="   79.995">  7  8 -1 -1</clus>
<clus scale="   95.182">  5  6 -1 -1</clus>
<clus scale="  112.141">  2  5  1 -1</clus>
<clus scale="  158.107">  1  9  2 -1</clus>
<clus scale="  158.107">  1  5  2 -1</clus>
</clustering>
</event>
<event>
 9    1  0.2423659E-006  0.1108261E+03  0.7546771E-02  0.1260131E+00
         -1   -1    0    0    0  501 -0.00000000000E+00  0.00000000000E+00  0.42246739830E+03  0.42246739830E+03  0.00000000000E+00 0.  1.
          1   -1    0    0  502    0  0.00000000000E+00 -0.00000000000E+00 -0.75636908285E+02  0.75636908285E+02  0.00000000000E+00 0. -1.
         23    2    1    2    0    0 -0.98202011048E+01  0.86023987686E+02  0.25269227620E+03  0.28204495727E+03  0.90550586214E+02 0.  0.
         23    2    1    2    0    0  0.39930933280E+02 -0.35999969010E+01  0.74932863388E+02  0.12623053471E+03  0.93336886957E+02 0.  0.
        -11    1    3    3    0    0 -0.32451218669E+02  0.43440940781E+02  0.21237615276E+03  0.21918902160E+03  0.00000000000E+00 0.  1.
         11    1    3    3    0    0  0.22631017564E+02  0.42583046905E+02  0.40316123438E+02  0.62855935668E+02  0.00000000000E+00 0. -1.
        -13    1    4    4    0    0 -0.66300417204E+01 -0.20944649175E+02  0.73295321612E+02  0.76516925922E+02  0.00000000000E+00 0.  1.
         13    1    4    4    0    0  0.46560975001E+02  0.17344652274E+02  0.16375417760E+01  0.49713608786E+02  0.00000000000E+00 0. -1.
         21    1    1    2  502  501 -0.30110732175E+02 -0.82423990785E+02  0.19205350430E+02  0.89828814610E+02  0.00000000000E+00 0.  1.
<scales pt_clust_5="13000.00000" pt_clust_6="13000.00000" pt_clust_7="13000.00000" pt_clust_8="13000.00000" pt_clust_9="87.75175"></scales>
<clustering>
<clus scale="   87.752">  2  9  1 -1</clus>
<clus scale="   90.551">  5  6 -1 -1</clus>
<clus scale="   93.337">  7  8 -1 -1</clus>
<clus scale="  108.490">  1  5  2 -1</clus>
<clus scale="   87.752">  2  5  1 -1</clus>
</clustering>
</event>
<event>
 9    1  0.2423659E-006  0.1913619E+03  0.7546771E-02  0.1172414E+00
         -1   -1    0    0    0  501 -0.00000000000E+00  0.00000000000E+00  0.26004956306E+03  0.26004956306E+03  0.00000000000E+00 0.  1.
          1   -1    0    0  502    0  0.00000000000E+00 -0.00000000000E+00 -0.46502542434E+03  0.46502542434E+03  0.00000000000E+00 0. -1.
         23    2    1    2    0    0  0.13372172656E+03 -0.81003397921E+02  0.12223845170E+03  0.21921270664E+03  0.93107040833E+02 0.  0.
         23    2    1    2    0    0  0.36667378512E+02 -0.90606381111E+02 -0.66719969756E+02  0.15041936517E+03  0.92846206755E+02 0.  0.
        -11    1    3    3    0    0  0.25987398406E+02  0.79403027302E+01 -0.78851747320E+01  0.28294332718E+02  0.00000000000E+00 0. -1.
         11    1    3    3    0    0  0.10773432815E+03 -0.88943700651E+02  0.13012362643E+03  0.19091837393E+03  0.00000000000E+00 0.  1.
        -11    1    4    4    0    0  0.63773831882E+02 -0.53738378063E+02 -0.21582951196E+02  0.86143709533E+02  0.00000000000E+00 0. -1.
         11    1    4    4    0    0 -0.27106453370E+02 -0.36868003048E+02 -0.45137018561E+02  0.64275655637E+02  0.00000000000E+00 0.  1.
         21    1    1    2  502  501 -0.17038910507E+03  0.17160977903E+03 -0.26049434322E+03  0.35544291558E+03  0.00000000000E+00 0. -1.
<scales pt_clust_5="13000.00000" pt_clust_6="13000.00000" pt_clust_7="13000.00000" pt_clust_8="13000.00000" pt_clust_9="167.18390"></scales>
<clustering>
<clus scale="   92.846">  7  8 -1 -1</clus>
<clus scale="   93.107">  5  6 -1 -1</clus>
<clus scale="  134.813">  2  7  1 -1</clus>
<clus scale="  167.184">  2  9  1 -1</clus>
<clus scale="  134.813">  2  5  1 -1</clus>
</clustering>
</event>
<event>
 9    1  0.2423659E-006  0.1515936E+03  0.7546771E-02  0.1198928E+00
         -1   -1    0    0    0  501 -0.00000000000E+00  0.00000000000E+00  0.37652047090E+02  0.37652047090E+02  0.00000000000E+00 0.  1.
          1   -1    0    0  502    0  0.00000000000E+00 -0.00000000000E+00 -0.12647730255E+04  0.12647730255E+04  0.00000000000E+00 0. -1.
         23    2    1    2    0    0 -0.97088239548E+02  0.14414005469E+03 -0.73306753085E+03  0.75886803136E+03  0.91050549702E+02 0.  0.
         23    2    1    2    0    0  0.56783658967E+02 -0.42689358196E+02 -0.26937935985E+03  0.29376683181E+03  0.93203791398E+02 0.  0.
        -11    1    3    3    0    0 -0.39348974081E+02  0.12479520053E+03 -0.56933827485E+03  0.58418169695E+03  0.00000000000E+00 0.  1.
         11    1    3    3    0    0 -0.57739265467E+02  0.19344854162E+02 -0.16372925600E+03  0.17468633441E+03  0.00000000000E+00 0. -1.
        -11    1    4    4    0    0  0.50329749305E+02 -0.67490894342E+02 -0.15334937605E+03  0.17494037733E+03  0.00000000000E+00 0. -1.
         11    1    4    4    0    0  0.64539096619E+01  0.24801536146E+02 -0.11602998380E+03  0.11882645448E+03  0.00000000000E+00 0.  1.
         21    1    1    2  502  501  0.40304580581E+02 -0.10145069650E+03 -0.22467408772E+03  0.24979020943E+03  0.00000000000E+00 0. -1.
<scales pt_clust_5="13000.00000" pt_clust_6="13000.00000" pt_clust_7="13000.00000" pt_clust_8="13000.00000" pt_clust_9="109.16365"></scales>
<clustering>
<clus scale="   91.051">  5  6 -1 -1</clus>
<clus scale="   93.204">  7  8 -1 -1</clus>
<clus scale="  109.164">  1  9  2 -1</clus>
<clus scale="  150.279">  1  5  2 -1</clus>
<clus scale="  151.594">  2  5  1 -1</clus>
</clustering>
</event>
<event>
 9    1  0.2423659E-006  0.1231772E+03  0.7546771E-02  0.1238452E+00
          2   -1    0    0  502    0  0.00000000000E+00  0.00000000000E+00  0.35851601000E+03  0.35851601000E+03  0.00000000000E+00 0. -1.
         -2   -1    0    0    0  501 -0.00000000000E+00 -0.00000000000E+00 -0.89790886611E+02  0.89790886611E+02  0.00000000000E+00 0.  1.
         23    2    1    2    0    0  0.49390934006E+02 -0.11963736238E+03  0.11581192266E+03  0.19742555296E+03  0.93871639452E+02 0.  0.
         23    2    1    2    0    0 -0.37751385395E+02  0.43482396365E+02  0.13210050136E+03  0.17108017576E+03  0.92206280620E+02 0.  0.
        -11    1    3    3    0    0  0.55689555201E+02 -0.76285974561E+02  0.26737559053E+02  0.98161976026E+02  0.00000000000E+00 0.  1.
         11    1    3    3    0    0 -0.62986211950E+01 -0.43351387822E+02  0.89074363602E+02  0.99263576937E+02  0.00000000000E+00 0. -1.
        -13    1    4    4    0    0 -0.58148454109E+01  0.66277347944E+02  0.63056003502E+02  0.91665472537E+02  0.00000000000E+00 0.  1.
         13    1    4    4    0    0 -0.31936539984E+02 -0.22794951580E+02  0.69044497857E+02  0.79414703223E+02  0.00000000000E+00 0. -1.
         21    1    1    2  502  501 -0.11639548612E+02  0.76154966018E+02  0.20812699374E+02  0.79801167889E+02  0.00000000000E+00 0.  1.
<scales pt_clust_5="13000.00000" pt_clust_6="13000.00000" pt_clust_7="13000.00000" pt_clust_8="13000.00000" pt_clust_9="77.03933"></scales>
<clustering>
<clus scale="   77.039">  2  9  1 -1</clus>
<clus scale="   92.206">  7  8 -1 -1</clus>
<clus scale="   93.872">  5  6 -1 -1</clus>
<clus scale="  121.913">  1  7  2 -1</clus>
<clus scale="  121.913">  1  5  2 -1</clus>
</clustering>
</event>
<event>
 9    1  0.2423659E-006  0.9544674E+02  0.7546771E-02  0.1292892E+00
          2   -1    0    0  502    0  0.00000000000E+00  0.00000000000E+00  0.51520644385E+02  0.51520644385E+02  0.00000000000E+00 0. -1.
         -2   -1    0    0    0  501 -0.00000000000E+00 -0.00000000000E+00 -0.33238424506E+03  0.33238424506E+03  0.00000000000E+00 0.  1.
         23    2    1    2    0    0 -0.63610902998E+01 -0.18862541784E+01 -0.21932764120E+03  0.23743656061E+03  0.90705483253E+02 0.  0.
         23    2    1    2    0    0 -0.26270698178E+02  0.19312593486E+00 -0.37268886983E+02  0.10576708672E+03  0.95433326552E+02 0.  0.
        -11    1    3    3    0    0 -0.39888118570E+02  0.10619040650E+02 -0.17821357140E+03  0.18293141627E+03  0.00000000000E+00 0.  1.
         11    1    3    3    0    0  0.33527028270E+02 -0.12505294829E+02 -0.41114069805E+02  0.54505144338E+02  0.00000000000E+00 0. -1.
        -13    1    4    4    0    0 -0.33805504935E+02 -0.36318787631E+02 -0.45797847802E+02  0.67522658139E+02  0.00000000000E+00 0.  1.
         13    1    4    4    0    0  0.75348067574E+01  0.36511913566E+02  0.85289608185E+01  0.38244428585E+02  0.00000000000E+00 0. -1.
         21    1    1    2  502  501  0.32631788478E+02  0.16931282435E+01 -0.24267072489E+02  0.40701242115E+02  0.00000000000E+00 0. -1.
<scales pt_clust_5="13000.00000" pt_clust_6="13000.00000" pt_clust_7="13000.00000" pt_clust_8="13000.00000" pt_clust_9="32.67568"></scales>
<clustering>
<clus scale="   32.676">  1  9  2 -1</clus>
<clus scale="   90.705">  5  6 -1 -1</clus>
<clus scale="   90.720">  2  5  1 -1</clus>
<clus scale="   95.433">  7  8 -1 -1</clus>
<clus scale="   32.676">  1  5  2 -1</clus>
</clustering>
</event>
<event>
 9    1  0.2423659E-006  0.9759791E+02  0.7546771E-02  0.1285608E+00
         -1   -1    0    0    0  501 -0.00000000000E+00  0.00000000000E+00  0.20767231309E+03  0.20767231309E+03  0.00000000000E+00 0.  1.
          1   -1    0    0  502    0  0.00000000000E+00 -0.00000000000E+00 -0.65832580922E+02  0.65832580922E+02  0.00000000000E+00 0. -1.
         23    2    1    2    0    0  0.10940851245E+02  0.11241518200E+02  0.70091668620E+02  0.11635458555E+03  0.91539464780E+02 0.  0.
         23    2    1    2    0    0 -0.20021099427E+02 -0.42529933316E+02  0.37325218241E+02  0.10975465352E+03  0.91887280966E+02 0.  0.
        -11    1    3    3    0    0 -0.15373206022E+02 -0.29220228470E+02  0.22481245656E+01  0.33093976481E+02  0.00000000000E+00 0. -1.
         11    1    3    3    0    0  0.26314057267E+02  0.40461746670E+02  0.67843544054E+02  0.83260609073E+02  0.00000000000E+00 0.  1.
        -13    1    4    4    0    0 -0.42179213610E+02 -0.36259918845E+02  0.56870970209E+02  0.79549827327E+02  0.00000000000E+00 0.  1.
         13    1    4    4    0    0  0.22158114183E+02 -0.62700144714E+01 -0.19545751967E+02  0.30204826197E+02  0.00000000000E+00 0. -1.
         21    1    1    2  502  501  0.90802481822E+01  0.31288415116E+02  0.34422845305E+02  0.47395654932E+02  0.00000000000E+00 0.  1.
<scales pt_clust_5="13000.00000" pt_clust_6="13000.00000" pt_clust_7="13000.00000" pt_clust_8="13000.00000" pt_clust_9="32.57938"></scales>
<clustering>
<clus scale="   32.579">  1  9  2 -1</clus>
<clus scale="   91.539">  5  6 -1 -1</clus>
<clus scale="   91.887">  7  8 -1 -1</clus>
<clus scale="   97.271">  1  5  2 -1</clus>
<clus scale="   97.598">  2  5  1 -1</clus>
</clustering>
</event>
<event>
 9    1  0.2423659E-006  0.1068082E+03  0.7546771E-02  0.1266603E+00
          1   -1    0    0  502    0  0.00000000000E+00  0.00000000000E+00  0.56702271504E+02  0.56702271504E+02  0.00000000000E+00 0. -1.
         -1   -1    0    0    0  501 -0.00000000000E+00 -0.00000000000E+00 -0.59005158597E+03  0.59005158597E+03  0.00000000000E+00 0.  1.
         23    2    1    2    0    0  0.17962951245E+02  0.53816751973E+02 -0.49296627918E+03  0.50431467566E+03  0.89992384476E+02 0.  0.
         23    2    1    2    0    0 -0.42247175451E+02 -0.52011901000E+02 -0.34715002229E+02  0.11743702929E+03  0.89979235327E+02 0.  0.
        -11    1    3    3    0    0  0.98729083277E+01 -0.24705882305E+02 -0.15372526209E+03  0.15601061228E+03  0.00000000000E+00 0. -1.
         11    1    3    3    0    0  0.80900429176E+01  0.78522634278E+02 -0.33924101709E+03  0.34830406338E+03  0.00000000000E+00 0.  1.
        -13    1    4    4    0    0  0.18811003004E+01 -0.22506015533E+02 -0.55893871413E+02  0.60284194736E+02  0.00000000000E+00 0.  1.
         13    1    4    4    0    0 -0.44128275751E+02 -0.29505885467E+02  0.21178869183E+02  0.57152834557E+02  0.00000000000E+00 0. -1.
         21    1    1    2  502  501  0.24284224206E+02 -0.18048509732E+01 -0.56680330605E+01  0.25002152529E+02  0.00000000000E+00 0. -1.
<scales pt_clust_5="13000.00000" pt_clust_6="13000.00000" pt_clust_7="13000.00000" pt_clust_8="13000.00000" pt_clust_9="24.35120"></scales>
<clustering>
<clus scale="   24.351">  1  9  2 -1</clus>
<clus scale="   89.979">  7  8 -1 -1</clus>
<clus scale="   89.992">  5  6 -1 -1</clus>
<clus scale="  106.797">  1  7  2 -1</clus>
<clus scale="   24.351">  1  5  2 -1</clus>
</clustering>
</event>
<event>
 9    1  0.2423659E-006  0.1115716E+03  0.7546771E-02  0.1258441E+00
         -3   -1    0    0    0  501 -0.00000000000E+00  0.00000000000E+00  0.47604055308E+02  0.47604055308E+02  0.00000000000E+00 0.  1.
          3   -1    0    0  502    0  0.00000000000E+00 -0.00000000000E+00 -0.56218462479E+03  0.56218462479E+03  0.00000000000E+00 0. -1.
         23    2    1    2    0    0 -0.38092537818E+02  0.79800258102E+02 -0.19732084794E+03  0.23563213355E+03  0.93636866127E+02 0.  0.
         23    2    1    2    0    0 -0.18435669693E+02 -0.50962904770E+02 -0.28227251881E+03  0.30169182723E+03  0.91668381473E+02 0.  0.
        -13    1    3    3    0    0 -0.12948366718E+01  0.84680264545E+02 -0.97571585886E+02  0.12919999295E+03  0.00000000000E+00 0.  1.
         13    1    3    3    0    0 -0.36797701146E+02 -0.48800064423E+01 -0.99749262055E+02  0.10643214060E+03  0.00000000000E+00 0. -1.
        -13    1    4    4    0    0  0.33169151698E+02 -0.30534996594E+02 -0.17739260526E+03  0.18303200552E+03  0.00000000000E+00 0.  1.
         13    1    4    4    0    0 -0.51604821391E+02 -0.20427908176E+02 -0.10487991354E+03  0.11865982171E+03  0.00000000000E+00 0. -1.
         21    1    1    2  502  501  0.56528207510E+02 -0.28837353332E+02 -0.34987202736E+02  0.72464719325E+02  0.00000000000E+00 0.  1.
<scales pt_clust_5="13000.00000" pt_clust_6="13000.00000" pt_clust_7="13000.00000" pt_clust_8="13000.00000" pt_clust_9="63.45889"></scales>
<clustering>
<clus scale="   63.459">  1  9  2 -1</clus>
<clus scale="   91.668">  7  8 -1 -1</clus>
<clus scale="   93.637">  5  6 -1 -1</clus>
<clus scale="  109.925">  2  7  1 -1</clus>
<clus scale="  109.925">  2  5  1 -1</clus>
</clustering>
</event>
<event>
 9    1  0.2423659E-006  0.9354519E+02  0.7546771E-02  0.1314065E+00
         -1   -1    0    0    0  501 -0.00000000000E+00  0.00000000000E+00  0.70459475946E+02  0.70459475946E+02  0.00000000000E+00 0.  1.
          1   -1    0    0  502    0  0.00000000000E+00 -0.00000000000E+00 -0.12975568115E+03  0.12975568115E+03  0.00000000000E+00 0. -1.
         23    2    1    2    0    0 -0.17652831582E+02 -0.23618554321E+01 -0.12893414568E+02  0.95280725342E+02  0.92709091564E+02 0.  0.
         23    2    1    2    0    0 -0.35823573746E+01  0.18156338036E+02 -0.26579472959E+02  0.71868393972E+02  0.64156930835E+02 0.  0.
        -11    1    3    3    0    0 -0.25091665750E+02  0.25307342179E+02  0.28018919075E+02  0.45333355098E+02  0.00000000000E+00 0.  1.
         11    1    3    3    0    0  0.74388341687E+01 -0.27669197611E+02 -0.40912333643E+02  0.49947370245E+02  0.00000000000E+00 0. -1.
        -11    1    4    4    0    0 -0.22809415462E+02 -0.96842462463E+01 -0.28760737455E+02  0.37963588845E+02  0.00000000000E+00 0. -1.
         11    1    4    4    0    0  0.19227058087E+02  0.27840584283E+02  0.21812644962E+01  0.33904805127E+02  0.00000000000E+00 0.  1.
         21    1    1    2  502  501  0.21235188956E+02 -0.15794482604E+02 -0.19823317673E+02  0.33066037777E+02  0.00000000000E+00 0. -1.
<scales pt_clust_5="13000.00000" pt_clust_6="13000.00000" pt_clust_7="13000.00000" pt_clust_8="13000.00000" pt_clust_9="26.46505"></scales>
<clustering>
<clus scale="   26.465">  2  9  1 -1</clus>
<clus scale="   64.157">  7  8 -1 -1</clus>
<clus scale="   65.359">  2  7  1 -1</clus>
<clus scale="   92.709">  5  6 -1 -1</clus>
<clus scale="   26.465">  2  5  1 -1</clus>
</clustering>
</event>
<event>
 9    1  0.2423659E-006  0.2076530E+03  0.7546771E-02  0.1174572E+00
          1   -1    0    0  502    0  0.00000000000E+00  0.00000000000E+00  0.11930023187E+03  0.11930023187E+03  0.00000000000E+00 0. -1.
         -1   -1    0    0    0  501 -0.00000000000E+00 -0.00000000000E+00 -0.62270238155E+03  0.62270238155E+03  0.00000000000E+00 0.  1.
         23    2    1    2    0    0 -0.88862017932E+02  0.17906270167E+03 -0.39185366304E+03  0.44920413119E+03  0.90967845324E+02 0.  0.
         23    2    1    2    0    0  0.44959924977E+02 -0.18669545530E+02 -0.18183597960E+02  0.10208833373E+03  0.87871712545E+02 0.  0.
        -11    1    4    4    0    0 -0.21080247160E+02 -0.17040961210E+02 -0.23417471627E+02  0.35821071407E+02  0.00000000000E+00 0.  1.
         11    1    4    4    0    0  0.66040172138E+02 -0.16285843192E+01  0.52338736676E+01  0.66267262328E+02  0.00000000000E+00 0. -1.
        -13    1    3    3    0    0 -0.54419396832E+02  0.27510732587E+02 -0.14756848345E+03  0.15967081282E+03  0.00000000000E+00 0. -1.
         13    1    3    3    0    0 -0.34442621100E+02  0.15155196908E+03 -0.24428517959E+03  0.28953331837E+03  0.00000000000E+00 0.  1.
         21    1    1    2  502  501  0.43902092955E+02 -0.16039315614E+03 -0.93364888687E+02  0.19071014850E+03  0.00000000000E+00 0. -1.
<scales pt_clust_5="13000.00000" pt_clust_6="13000.00000" pt_clust_7="13000.00000" pt_clust_8="13000.00000" pt_clust_9="186.66711"></scales>
<clustering>
<clus scale="   87.872">  5  6 -1 -1</clus>
<clus scale="   90.968">  7  8 -1 -1</clus>
<clus scale="  100.456">  1  5  2 -1</clus>
<clus scale="  186.667">  1  9  2 -1</clus>
<clus scale="  100.456">  1  5  2 -1</clus>
</clustering>
</event>
<event>
 9    1  0.2423659E-006  0.9932703E+02  0.7546771E-02  0.1284386E+00
         -2   -1    0    0    0  501 -0.00000000000E+00  0.00000000000E+00  0.16644331503E+03  0.16644331503E+03  0.00000000000E+00 0.  1.
          2   -1    0    0  502    0  0.00000000000E+00 -0.00000000000E+00 -0.16241785937E+03  0.16241785937E+03  0.00000000000E+00 0. -1.
         23    2    1    2    0    0 -0.49417644667E+02  0.62951664931E+00  0.77675930743E+02  0.13346579094E+03  0.96628501171E+02 0.  0.
         23    2    1    2    0    0  0.78871726608E+01 -0.21278900900E+02 -0.10364250752E+03  0.14016224863E+03  0.91589778139E+02 0.  0.
        -13    1    3    3    0    0 -0.32945783306E+01 -0.43852116145E+02  0.37839122887E+02  0.58014322004E+02  0.00000000000E+00 0.  1.
         13    1    3    3    0    0 -0.46123066337E+02  0.44481632794E+02  0.39836807856E+02  0.75451468935E+02  0.00000000000E+00 0. -1.
        -13    1    4    4    0    0  0.30670681669E+02 -0.49090323585E+02 -0.70966886975E+02  0.91579744653E+02  0.00000000000E+00 0.  1.
         13    1    4    4    0    0 -0.22783509008E+02  0.27811422685E+02 -0.32675620542E+02  0.48582503974E+02  0.00000000000E+00 0. -1.
         21    1    1    2  502  501  0.41530472007E+02  0.20649384251E+02  0.29992032431E+02  0.55233134841E+02  0.00000000000E+00 0.  1.
<scales pt_clust_5="13000.00000" pt_clust_6="13000.00000" pt_clust_7="13000.00000" pt_clust_8="13000.00000" pt_clust_9="46.38078"></scales>
<clustering>
<clus scale="   46.381">  1  9  2 -1</clus>
<clus scale="   91.590">  7  8 -1 -1</clus>
<clus scale="   94.432">  2  7  1 -1</clus>
<clus scale="   96.629">  5  6 -1 -1</clus>
<clus scale="   94.432">  2  5  1 -1</clus>
</clustering>
</event>
<event>
 9    1  0.2423659E-006  0.1007816E+03  0.7546771E-02  0.1279249E+00
          2   -1    0    0  502    0  0.00000000000E+00  0.00000000000E+00  0.82942903309E+02  0.82942903309E+02  0.00000000000E+00 0. -1.
         -2   -1    0    0    0  501 -0.00000000000E+00 -0.00000000000E+00 -0.28151422369E+03  0.28151422369E+03  0.00000000000E+00 0.  1.
         23    2    1    2    0    0 -0.28647045586E+02  0.52102234907E+02 -0.16068763803E+03  0.19408739402E+03  0.91181705408E+02 0.  0.
         23    2    1    2    0    0 -0.45039060144E+01  0.94801790790E+01 -0.51368150997E+01  0.93144499929E+02  0.92408614495E+02 0.  0.
        -11    1    3    3    0    0 -0.60100276501E+02  0.25014606684E+02 -0.11654522026E+03  0.13349367831E+03  0.00000000000E+00 0. -1.
         11    1    3    3    0    0  0.31453230915E+02  0.27087628223E+02 -0.44142417765E+02  0.60593715712E+02  0.00000000000E+00 0.  1.
        -13    1    4    4    0    0  0.38474642148E+02  0.23502324814E+02  0.85947929367E+01  0.45896926103E+02  0.00000000000E+00 0.  1.
         13    1    4    4    0    0 -0.42978548163E+02 -0.14022145735E+02 -0.13731608036E+02  0.47247573826E+02  0.00000000000E+00 0. -1.
         21    1    1    2  502  501  0.33150951600E+02 -0.61582413986E+02 -0.32746867257E+02  0.77225233049E+02  0.00000000000E+00 0. -1.
<scales pt_clust_5="13000.00000" pt_clust_6="13000.00000" pt_clust_7="13000.00000" pt_clust_8="13000.00000" pt_clust_9="69.93840"></scales>
<clustering>
<clus scale="   69.938">  1  9  2 -1</clus>
<clus scale="   91.182">  5  6 -1 -1</clus>
<clus scale="   92.409">  7  8 -1 -1</clus>
<clus scale="   99.658">  2  5  1 -1</clus>
<clus scale="   69.938">  1  5  2 -1</clus>
</clustering>
</event>
<event>
 9    1  0.2423659E-006  0.1680276E+03  0.7546771E-02  0.1203583E+00
          2   -1    0    0  502    0  0.00000000000E+00  0.00000000000E+00  0.55510790332E+03  0.55510790332E+03  0.00000000000E+00 0. -1.
         -2   -1    0    0    0  501 -0.00000000000E+00 -0.00000000000E+00 -0.12479761815E+03  0.12479761815E+03  0.00000000000E+00 0.  1.
         23    2    1    2    0    0 -0.25144148592E+02 -0.23905133658E+02 -0.50303666167E+01  0.99895183165E+02  0.93541752216E+02 0.  0.
         23    2    1    2    0    0 -0.84071655307E+02  0.10093585893E+03  0.41108050779E+03  0.44417816596E+03  0.10512358624E+03 0.  0.
        -11    1    4    4    0    0 -0.28340005189E+02  0.46199245166E+02  0.46775950234E+02  0.71592706809E+02  0.00000000000E+00 0.  1.
         11    1    4    4    0    0 -0.55731650118E+02  0.54736613761E+02  0.36430455756E+03  0.37258545915E+03  0.00000000000E+00 0. -1.
        -13    1    3    3    0    0 -0.50621101655E+02 -0.43575692659E+02  0.24961220924E+01  0.66839864968E+02  0.00000000000E+00 0. -1.
         13    1    3    3    0    0  0.25476953064E+02  0.19670559001E+02 -0.75264887091E+01  0.33055318197E+02  0.00000000000E+00 0.  1.
         21    1    1    2  502  501  0.10921580390E+03 -0.77030725269E+02  0.24260143996E+02  0.13583217234E+03  0.00000000000E+00 0.  1.
<scales pt_clust_5="13000.00000" pt_clust_6="13000.00000" pt_clust_7="13000.00000" pt_clust_8="13000.00000" pt_clust_9="131.08125"></scales>
<clustering>
<clus scale="   93.542">  7  8 -1 -1</clus>
<clus scale="   99.768">  2  7  1 -1</clus>
<clus scale="  105.124">  5  6 -1 -1</clus>
<clus scale="  131.081">  2  9  1 -1</clus>
<clus scale="  168.028">  1  5  2 -1</clus>
</clustering>
</event>
<event>
 9    1  0.2423659E-006  0.1553048E+03  0.7546771E-02  0.1194586E+00
         -2   -1    0    0    0  501 -0.00000000000E+00  0.00000000000E+00  0.50520102702E+02  0.50520102702E+02  0.00000000000E+00 0.  1.
          2   -1    0    0  502    0  0.00000000000E+00 -0.00000000000E+00 -0.71151676773E+03  0.71151676773E+03  0.00000000000E+00 0. -1.
         23    2    1    2    0    0  0.93037640078E+02 -0.54890584729E+02 -0.23756673284E+03  0.27730026678E+03  0.93747035375E+02 0.  0.
         23    2    1    2    0    0 -0.14009310274E+03  0.24112399953E+02 -0.37214731642E+03  0.40863522453E+03  0.91003496338E+02 0.  0.
        -11    1    4    4    0    0 -0.49296649767E+02  0.12616738547E+02 -0.25473043943E+03  0.25976323554E+03  0.00000000000E+00 0. -1.
         11    1    4    4    0    0 -0.90796452968E+02  0.11495661406E+02 -0.11741687699E+03  0.14887198899E+03  0.00000000000E+00 0.  1.
        -11    1    3    3    0    0  0.11018104453E+03 -0.34223948349E+02 -0.20341841305E+03  0.23385934230E+03  0.00000000000E+00 0. -1.
         11    1    3    3    0    0 -0.17143404447E+02 -0.20666636380E+02 -0.34148319788E+02  0.43440924480E+02  0.00000000000E+00 0.  1.
         21    1    1    2  502  501  0.47055462657E+02  0.30778184776E+02 -0.51282615778E+02  0.76101379127E+02  0.00000000000E+00 0.  1.
<scales pt_clust_5="13000.00000" pt_clust_6="13000.00000" pt_clust_7="13000.00000" pt_clust_8="13000.00000" pt_clust_9="56.22734"></scales>
<clustering>
<clus scale="   56.227">  1  9  2 -1</clus>
<clus scale="   91.003">  5  6 -1 -1</clus>
<clus scale="   93.747">  7  8 -1 -1</clus>
<clus scale="  153.664">  2  5  1 -1</clus>
<clus scale="  153.664">  2  5  1 -1</clus>
</clustering>
</event>
<event>
 9    1  0.2423659E-006  0.1391293E+03  0.7546771E-02  0.1215833E+00
          2   -1    0    0  502    0  0.00000000000E+00  0.00000000000E+00  0.21663048377E+03  0.21663048377E+03  0.00000000000E+00 0. -1.
         -2   -1    0    0    0  501 -0.00000000000E+00 -0.00000000000E+00 -0.23044467995E+03  0.23044467995E+03  0.00000000000E+00 0.  1.
         23    2    1    2    0    0  0.38659415065E+02 -0.95750427070E+02 -0.18629786995E+02  0.13822064427E+03  0.89973234253E+02 0.  0.
         23    2    1    2    0    0 -0.14298453576E+03  0.77404349027E+01 -0.14535781500E+01  0.17222073150E+03  0.95673275639E+02 0.  0.
        -13    1    3    3    0    0 -0.17070487623E+02 -0.51421042170E+02 -0.35837880751E+02  0.64960594381E+02  0.00000000000E+00 0. -1.
         13    1    3    3    0    0  0.55729902687E+02 -0.44329384899E+02  0.17208093756E+02  0.73260049889E+02  0.00000000000E+00 0.  1.
        -13    1    4    4    0    0 -0.58266010104E+02 -0.96952494932E+01  0.44801082455E+02  0.74135435423E+02  0.00000000000E+00 0. -1.
         13    1    4    4    0    0 -0.84718525656E+02  0.17435684396E+02 -0.46254660605E+02  0.98085296082E+02  0.00000000000E+00 0.  1.
         21    1    1    2  502  501  0.10432512070E+03  0.88009992167E+02  0.62691689706E+01  0.13663378795E+03  0.00000000000E+00 0. -1.
<scales pt_clust_5="13000.00000" pt_clust_6="13000.00000" pt_clust_7="13000.00000" pt_clust_8="13000.00000" pt_clust_9="136.48989"></scales>
<clustering>
<clus scale="   89.973">  5  6 -1 -1</clus>
<clus scale="   95.673">  7  8 -1 -1</clus>
<clus scale="  136.490">  1  9  2 -1</clus>
<clus scale="  135.273">  2  5  1 -1</clus>
<clus scale="  136.490">  1  5  2 -1</clus>
</clustering>
</event>
<event>
 9    1  0.2423659E-006  0.9547672E+02  0.7546771E-02  0.1292215E+00
          1   -1    0    0  502    0  0.00000000000E+00  0.00000000000E+00  0.99485919003E+03  0.99485919003E+03  0.00000000000E+00 0. -1.
         -1   -1    0    0    0  501 -0.00000000000E+00 -0.00000000000E+00 -0.21497556668E+02  0.21497556668E+02  0.00000000000E+00 0.  1.
         23    2    1    2    0    0  0.36182033664E+02 -0.11736260675E+02  0.26653016323E+03  0.28372147759E+03  0.89513516054E+02 0.  0.
         23    2    1    2    0    0  0.38577487396E+02  0.29391551797E+02  0.28307524695E+03  0.30197295131E+03  0.93295134038E+02 0.  0.
        -11    1    3    3    0    0  0.43347045842E+02  0.24576253113E+02  0.21226659555E+03  0.21803684594E+03  0.00000000000E+00 0.  1.
         11    1    3    3    0    0 -0.71650121779E+01 -0.36312513788E+02  0.54263567683E+02  0.65684631649E+02  0.00000000000E+00 0. -1.
        -13    1    4    4    0    0  0.62870792209E+02  0.95566173641E+01  0.11898929739E+03  0.13491670891E+03  0.00000000000E+00 0.  1.
         13    1    4    4    0    0 -0.24293304814E+02  0.19834934432E+02  0.16408594956E+03  0.16705624241E+03  0.00000000000E+00 0. -1.
         21    1    1    2  502  501 -0.74759521060E+02 -0.17655291122E+02  0.42375622317E+03  0.43066231779E+03  0.00000000000E+00 0. -1.
<scales pt_clust_5="13000.00000" pt_clust_6="13000.00000" pt_clust_7="13000.00000" pt_clust_8="13000.00000" pt_clust_9="76.81598"></scales>
<clustering>
<clus scale="   76.816">  1  9  2 -1</clus>
<clus scale="   89.514">  5  6 -1 -1</clus>
<clus scale="   91.785">  2  5  1 -1</clus>
<clus scale="   93.295">  7  8 -1 -1</clus>
<clus scale="   76.816">  1  5  2 -1</clus>
</clustering>
</event>
<event>
 9    1  0.2423659E-006  0.1462406E+03  0.7546771E-02  0.1206885E+00
         -1   -1    0    0    0  501 -0.00000000000E+00  0.00000000000E+00  0.22126005751E+03  0.22126005751E+03  0.00000000000E+00 0.  1.
          1   -1    0    0  502    0  0.00000000000E+00 -0.00000000000E+00 -0.16917179660E+03  0.16917179660E+03  0.00000000000E+00 0. -1.
         23    2    1    2    0    0  0.14724815507E+03 -0.47931621459E+02  0.51732735780E+02  0.19123999331E+03  0.99584133188E+02 0.  0.
         23    2    1    2    0    0 -0.75622501341E+02  0.39695666939E+02 -0.12749785113E+02  0.12591284351E+03  0.91635028554E+02 0.  0.
        -11    1    3    3    0    0  0.59833992840E+02  0.79215990968E+00  0.67194026324E+02  0.89976504656E+02  0.00000000000E+00 0.  1.
         11    1    3    3    0    0  0.87414162225E+02 -0.48723781369E+02 -0.15461290544E+02  0.10126348865E+03  0.00000000000E+00 0. -1.
        -13    1    4    4    0    0 -0.93662978735E+02  0.20548608149E+02 -0.21344240548E+02  0.98237342629E+02  0.00000000000E+00 0.  1.
         13    1    4    4    0    0  0.18040477394E+02  0.19147058790E+02  0.85944554348E+01  0.27675500883E+02  0.00000000000E+00 0. -1.
         21    1    1    2  502  501 -0.71625653724E+02  0.82359545204E+01  0.13105310238E+02  0.73279017288E+02  0.00000000000E+00 0.  1.
<scales pt_clust_5="13000.00000" pt_clust_6="13000.00000" pt_clust_7="13000.00000" pt_clust_8="13000.00000" pt_clust_9="72.09761"></scales>
<clustering>
<clus scale="   72.098">  1  9  2 -1</clus>
<clus scale="   91.635">  7  8 -1 -1</clus>
<clus scale="   99.584">  5  6 -1 -1</clus>
<clus scale="  140.948">  2  7  1 -1</clus>
<clus scale="  140.948">  2  5  1 -1</clus>
</clustering>
</event>
<event>
 9    1  0.2423659E-006  0.1109051E+03  0.7546771E-02  0.1258952E+00
          1   -1    0    0  502    0  0.00000000000E+00  0.00000000000E+00  0.46384033561E+03  0.46384033561E+03  0.00000000000E+00 0. -1.
         -1   -1    0    0    0  501 -0.00000000000E+00 -0.00000000000E+00 -0.74357119000E+02  0.74357119000E+02  0.00000000000E+00 0.  1.
         23    2    1    2    0    0 -0.11309139989E+02 -0.68710956124E+02 -0.13812997955E+01  0.11446804551E+03  0.90840152547E+02 0.  0.
         23    2    1    2    0    0  0.30215906331E+02  0.22125925435E+02  0.33258263616E+03  0.34675923006E+03  0.90709405129E+02 0.  0.
        -13    1    4    4    0    0  0.62532536837E+02  0.13703859172E+02  0.23776468914E+03  0.24623192588E+03  0.00000000000E+00 0. -1.
         13    1    4    4    0    0 -0.32316630506E+02  0.84220662631E+01  0.94817947020E+02  0.10052730417E+03  0.00000000000E+00 0.  1.
        -13    1    3    3    0    0  0.39110241148E+02 -0.38767024431E+02  0.58720978092E+01  0.55380273371E+02  0.00000000000E+00 0. -1.
         13    1    3    3    0    0 -0.50419381137E+02 -0.29943931693E+02 -0.72533976048E+01  0.59087772138E+02  0.00000000000E+00 0.  1.
         21    1    1    2  502  501 -0.18906766342E+02  0.46585030689E+02  0.58281880237E+02  0.76970179042E+02  0.00000000000E+00 0.  1.
<scales pt_clust_5="13000.00000" pt_clust_6="13000.00000" pt_clust_7="13000.00000" pt_clust_8="13000.00000" pt_clust_9="50.27555"></scales>
<clustering>
<clus scale="   50.276">  1  9  2 -1</clus>
<clus scale="   90.709">  5  6 -1 -1</clus>
<clus scale="   90.840">  7  8 -1 -1</clus>
<clus scale="  110.798">  1  5  2 -1</clus>
<clus scale="   50.276">  1  5  2 -1</clus>
</clustering>
</event>
<event>
 9    1  0.2423659E-006  0.9569451E+02  0.7546771E-02  0.1290521E+00
         -1   -1    0    0    0  501 -0.00000000000E+00  0.00000000000E+00  0.16984018752E+03  0.16984018752E+03  0.00000000000E+00 0.  1.
          1   -1    0    0  502    0  0.00000000000E+00 -0.00000000000E+00 -0.17676099497E+03  0.17676099497E+03  0.00000000000E+00 0. -1.
         23    2    1    2    0    0 -0.28571763115E+02 -0.21530007810E+02  0.10529572182E+03  0.14474112084E+03  0.92644029198E+02 0.  0.
         23    2    1    2    0    0  0.10914362813E+01 -0.19647167867E+02 -0.17123579849E+02  0.94652798879E+02  0.90987542611E+02 0.  0.
        -11    1    3    3    0    0 -0.36100341650E+02 -0.53886265772E+02  0.58450741821E+02  0.87312390447E+02  0.00000000000E+00 0.  1.
         11    1    3    3    0    0  0.75285785348E+01  0.32356257962E+02  0.46844979998E+02  0.57428730397E+02  0.00000000000E+00 0. -1.
        -13    1    4    4    0    0  0.28683247769E+02  0.16406715548E+02 -0.32861142363E+02  0.46602185518E+02  0.00000000000E+00 0. -1.
         13    1    4    4    0    0 -0.27591811487E+02 -0.36053883415E+02  0.15737562515E+02  0.48050613361E+02  0.00000000000E+00 0.  1.
         21    1    1    2  502  501  0.27480326834E+02  0.41177175676E+02 -0.95092949418E+02  0.10720726276E+03  0.00000000000E+00 0. -1.
<scales pt_clust_5="13000.00000" pt_clust_6="13000.00000" pt_clust_7="13000.00000" pt_clust_8="13000.00000" pt_clust_9="49.50483"></scales>
<clustering>
<clus scale="   49.505">  2  9  1 -1</clus>
<clus scale="   90.988">  7  8 -1 -1</clus>
<clus scale="   92.644">  5  6 -1 -1</clus>
<clus scale="   94.092">  2  7  1 -1</clus>
<clus scale="   49.505">  2  5  1 -1</clus>
</clustering>
</event>
<event>
 9    1  0.2423659E-006  0.1116017E+03  0.7546771E-02  0.1258128E+00
         -1   -1    0    0    0  501 -0.00000000000E+00  0.00000000000E+00  0.39945464503E+02  0.39945464503E+02  0.00000000000E+00 0.  1.
          1   -1    0    0  502    0  0.00000000000E+00 -0.00000000000E+00 -0.54930279643E+03  0.54930279643E+03  0.00000000000E+00 0. -1.
         23    2    1    2    0    0 -0.64831206134E+02 -0.35978854835E+02 -0.10872184381E+03  0.16019558528E+03  0.91348907697E+02 0.  0.
         23    2    1    2    0    0  0.49888008531E+02  0.92088331943E+01 -0.19074279398E+03  0.21693271840E+03  0.90018747230E+02 0.  0.
        -13    1    3    3    0    0 -0.50634026177E+02 -0.78946361462E+01 -0.46341046830E+01  0.51454881333E+02  0.00000000000E+00 0.  1.
         13    1    3    3    0    0 -0.14197179957E+02 -0.28084218689E+02 -0.10408773913E+03  0.10874070395E+03  0.00000000000E+00 0. -1.
        -13    1    4    4    0    0  0.12026528537E+01 -0.30016639586E+02 -0.22750119396E+02  0.37683059303E+02  0.00000000000E+00 0.  1.
         13    1    4    4    0    0  0.48685355677E+02  0.39225472780E+02 -0.16799267458E+03  0.17924965909E+03  0.00000000000E+00 0. -1.
         21    1    1    2  502  501  0.14943197603E+02  0.26770021641E+02 -0.20989269414E+03  0.21211995726E+03  0.00000000000E+00 0. -1.
<scales pt_clust_5="13000.00000" pt_clust_6="13000.00000" pt_clust_7="13000.00000" pt_clust_8="13000.00000" pt_clust_9="30.65833"></scales>
<clustering>
<clus scale="   30.658">  2  9  1 -1</clus>
<clus scale="   90.019">  7  8 -1 -1</clus>
<clus scale="   91.349">  5  6 -1 -1</clus>
<clus scale="  110.516">  2  7  1 -1</clus>
<clus scale="   30.658">  2  5  1 -1</clus>
</clustering>
</event>
<event>
 9    1  0.2423659E-006  0.1020016E+03  0.7546771E-02  0.1279696E+00
         -2   -1    0    0    0  501 -0.00000000000E+00  0.00000000000E+00  0.15747068298E+03  0.15747068298E+03  0.00000000000E+00 0.  1.
          2   -1    0    0  502    0  0.00000000000E+00 -0.00000000000E+00 -0.18726974358E+03  0.18726974358E+03  0.00000000000E+00 0. -1.
         23    2    1    2    0    0 -0.26786706026E+02 -0.46678605128E+02  0.42264555293E+02  0.11352370415E+03  0.90581007798E+02 0.  0.
         23    2    1    2    0    0  0.74040153917E+01 -0.53464504614E+02 -0.74858640356E+02  0.12917681214E+03  0.90385618661E+02 0.  0.
        -11    1    3    3    0    0  0.28745000568E+02  0.49279034806E+01  0.16184139160E+02  0.33353945055E+02  0.00000000000E+00 0.  1.
         11    1    3    3    0    0 -0.55531706594E+02 -0.51606508608E+02  0.26080416133E+02  0.80169759097E+02  0.00000000000E+00 0. -1.
        -11    1    4    4    0    0 -0.19669964282E+02  0.19098053561E+02 -0.24720974750E+02  0.36915711252E+02  0.00000000000E+00 0. -1.
         11    1    4    4    0    0  0.27073979674E+02 -0.72562558175E+02 -0.50137665606E+02  0.92261100886E+02  0.00000000000E+00 0.  1.
         21    1    1    2  502  501  0.19382690634E+02  0.10014310974E+03  0.27950244603E+01  0.10203991026E+03  0.00000000000E+00 0.  1.
<scales pt_clust_5="13000.00000" pt_clust_6="13000.00000" pt_clust_7="13000.00000" pt_clust_8="13000.00000" pt_clust_9="102.00162"></scales>
<clustering>
<clus scale="   90.386">  7  8 -1 -1</clus>
<clus scale="   90.581">  5  6 -1 -1</clus>
<clus scale="  102.002">  1  9  2 -1</clus>
<clus scale="   95.310">  2  7  1 -1</clus>
<clus scale="   95.310">  2  5  1 -1</clus>
</clustering>
</event>
<event>
 9    1  0.2423659E-006  0.1236219E+03  0.7546771E-02  0.1242888E+00
         -1   -1    0    0    0  501 -0.00000000000E+00  0.00000000000E+00  0.33661830251E+02  0.33661830251E+02  0.00000000000E+00 0.  1.
          1   -1    0    0  502    0  0.00000000000E+00 -0.00000000000E+00 -0.10184971367E+04  0.10184971367E+04  0.00000000000E+00 0. -1.
         23    2    1    2    0    0 -0.33914809941E+02 -0.51163372855E+02 -0.20907889516E+03  0.23635406256E+03  0.91549732030E+02 0.  0.
         23    2    1    2    0    0 -0.57493318907E+02 -0.29737814671E+02 -0.52283872891E+03  0.53497078569E+03  0.92970886589E+02 0.  0.
        -11    1    4    4    0    0  0.13114962908E+02 -0.34732769492E+02 -0.10970431470E+03  0.11581625185E+03  0.00000000000E+00 0.  1.
         11    1    4    4    0    0 -0.70608281814E+02  0.49949548212E+01 -0.41313441421E+03  0.41915453384E+03  0.00000000000E+00 0. -1.
        -13    1    3    3    0    0  0.17708737236E+02 -0.43890027986E+02 -0.49542738717E+02  0.68515814895E+02  0.00000000000E+00 0.  1.
         13    1    3    3    0    0 -0.51623547177E+02 -0.72733448683E+01 -0.15953615644E+03  0.16783824767E+03  0.00000000000E+00 0. -1.
         21    1    1    2  502  501  0.91408128848E+02  0.80901187525E+02 -0.25291768236E+03  0.28083411868E+03  0.00000000000E+00 0.  1.
<scales pt_clust_5="13000.00000" pt_clust_6="13000.00000" pt_clust_7="13000.00000" pt_clust_8="13000.00000" pt_clust_9="81.47874"></scales>
<clustering>
<clus scale="   91.550">  7  8 -1 -1</clus>
<clus scale="   92.971">  5  6 -1 -1</clus>
<clus scale="  110.224">  1  7  2 -1</clus>
<clus scale="   81.479">  1  9  2 -1</clus>
<clus scale="  123.622">  2  5  1 -1</clus>
</clustering>
</event>
<event>
 9    1  0.2423659E-006  0.1121545E+03  0.7546771E-02  0.1267834E+00
         -1   -1    0    0    0  501 -0.00000000000E+00  0.00000000000E+00  0.24091260518E+02  0.24091260518E+02  0.00000000000E+00 0.  1.
          1   -1    0    0  502    0  0.00000000000E+00 -0.00000000000E+00 -0.75089332007E+03  0.75089332007E+03  0.00000000000E+00 0. -1.
         23    2    1    2    0    0  0.69998973098E+02  0.14692866481E+02 -0.27157077363E+03  0.28754291319E+03  0.61761681293E+02 0.  0.
         23    2    1    2    0    0 -0.60181763098E+02  0.30385297444E+02 -0.39870167078E+03  0.41447581330E+03  0.91005860374E+02 0.  0.
        -11    1    4    4    0    0 -0.61808140108E+02  0.52067493274E+02 -0.36852191993E+03  0.37727930703E+03  0.00000000000E+00 0.  1.
         11    1    4    4    0    0  0.16263770095E+01 -0.21682195830E+02 -0.30179750846E+02  0.37196506278E+02  0.00000000000E+00 0. -1.
        -13    1    3    3    0    0  0.43588464972E+02 -0.15436500391E+02 -0.85459124572E+02  0.97167390597E+02  0.00000000000E+00 0. -1.
         13    1    3    3    0    0  0.26410508126E+02  0.30129366872E+02 -0.18611164906E+03  0.19037552260E+03  0.00000000000E+00 0.  1.
         21    1    1    2  502  501 -0.98172099994E+01 -0.45078163926E+02 -0.56529615139E+02  0.72965854088E+02  0.00000000000E+00 0. -1.
<scales pt_clust_5="13000.00000" pt_clust_6="13000.00000" pt_clust_7="13000.00000" pt_clust_8="13000.00000" pt_clust_9="46.13479"></scales>
<clustering>
<clus scale="   46.135">  1  9  2 -1</clus>
<clus scale="   61.762">  7  8 -1 -1</clus>
<clus scale="   90.061">  1  7  2 -1</clus>
<clus scale="   91.006">  5  6 -1 -1</clus>
<clus scale="  112.154">  2  5  1 -1</clus>
</clustering>
</event>
<event>
 9    1  0.2423659E-006  0.1502593E+03  0.7546771E-02  0.1216366E+00
         -2   -1    0    0    0  501 -0.00000000000E+00  0.00000000000E+00  0.17771039084E+03  0.17771039084E+03  0.00000000000E+00 0.  1.
          2   -1    0    0  502    0  0.00000000000E+00 -0.00000000000E+00 -0.35941872538E+03  0.35941872538E+03  0.00000000000E+00 0. -1.
         23    2    1    2    0    0 -0.19812492727E+02 -0.59736606626E+02  0.97287357310E+02  0.14401298478E+03  0.85521417506E+02 0.  0.
         23    2    1    2    0    0 -0.31113051277E+02 -0.73697791978E+02 -0.73592649467E+02  0.14293907498E+03  0.92824105699E+02 0.  0.
        -13    1    4    4    0    0 -0.55951409697E+02 -0.72562026046E+02 -0.74447133804E+02  0.11806008471E+03  0.00000000000E+00 0.  1.
         13    1    4    4    0    0  0.24838358421E+02 -0.11357659321E+01  0.85448433660E+00  0.24878990268E+02  0.00000000000E+00 0. -1.
        -13    1    3    3    0    0 -0.30956226868E+01 -0.76896744396E+02  0.91128267202E+02  0.11927721183E+03  0.00000000000E+00 0.  1.
         13    1    3    3    0    0 -0.16716870041E+02  0.17160137770E+02  0.61590901076E+01  0.24735772945E+02  0.00000000000E+00 0. -1.
         21    1    1    2  502  501  0.50925544004E+02  0.13343439860E+03 -0.20540304238E+03  0.25017705647E+03  0.00000000000E+00 0. -1.
<scales pt_clust_5="13000.00000" pt_clust_6="13000.00000" pt_clust_7="13000.00000" pt_clust_8="13000.00000" pt_clust_9="118.15894"></scales>
<clustering>
<clus scale="   85.521">  7  8 -1 -1</clus>
<clus scale="   92.824">  5  6 -1 -1</clus>
<clus scale="  106.183">  1  7  2 -1</clus>
<clus scale="  118.159">  2  9  1 -1</clus>
<clus scale="  118.159">  2  5  1 -1</clus>
</clustering>
</event>
<event>
 9    1  0.2423659E-006  0.9433591E+02  0.7546771E-02  0.1292795E+00
          1   -1    0    0  502    0  0.00000000000E+00  0.00000000000E+00  0.34616787512E+03  0.34616787512E+03  0.00000000000E+00 0. -1.
         -1   -1    0    0    0  501 -0.00000000000E+00 -0.00000000000E+00 -0.64467184737E+02  0.64467184737E+02  0.00000000000E+00 0.  1.
         23    2    1    2    0    0  0.18371754717E+02  0.11212838689E+02  0.26677423010E+02  0.96960818782E+02  0.90699869667E+02 0.  0.
         23    2    1    2    0    0  0.10687972223E+02 -0.46903188736E+02  0.72743388925E+02  0.12567364825E+03  0.90488249890E+02 0.  0.
        -11    1    4    4    0    0 -0.36397551827E+02 -0.12870763240E+02  0.94236254597E+01  0.39739691017E+02  0.00000000000E+00 0. -1.
         11    1    4    4    0    0  0.47085524050E+02 -0.34032425496E+02  0.63319763465E+02  0.85933957231E+02  0.00000000000E+00 0.  1.
        -13    1    3    3    0    0  0.17849374780E+02 -0.32721859455E+02 -0.11232188326E+02  0.38929196252E+02  0.00000000000E+00 0. -1.
         13    1    3    3    0    0  0.52237993628E+00  0.43934698144E+02  0.37909611336E+02  0.58031622530E+02  0.00000000000E+00 0.  1.
         21    1    1    2  502  501 -0.29059726940E+02  0.35690350047E+02  0.18227987845E+03  0.18800059283E+03  0.00000000000E+00 0. -1.
<scales pt_clust_5="13000.00000" pt_clust_6="13000.00000" pt_clust_7="13000.00000" pt_clust_8="13000.00000" pt_clust_9="46.02465"></scales>
<clustering>
<clus scale="   46.025">  1  9  2 -1</clus>
<clus scale="   90.488">  5  6 -1 -1</clus>
<clus scale="   90.700">  7  8 -1 -1</clus>
<clus scale="   94.132">  1  5  2 -1</clus>
<clus scale="   46.025">  1  5  2 -1</clus>
</clustering>
</event>
<event>
 9    1  0.2423659E-006  0.1067532E+03  0.7546771E-02  0.1269873E+00
          1   -1    0    0  502    0  0.00000000000E+00  0.00000000000E+00  0.92395593587E+03  0.92395593587E+03  0.00000000000E+00 0. -1.
         -1   -1    0    0    0  501 -0.00000000000E+00 -0.00000000000E+00 -0.17154759502E+02  0.17154759502E+02  0.00000000000E+00 0.  1.
         23    2    1    2    0    0  0.16457931793E+02  0.36243615981E+02  0.23793233972E+03  0.25970159601E+03  0.96169940555E+02 0.  0.
         23    2    1    2    0    0 -0.31828578744E+02 -0.51716857375E+02  0.53147411090E+03  0.54229407987E+03  0.89053055751E+02 0.  0.
        -11    1    3    3    0    0 -0.25709942247E+02 -0.77368895937E+01  0.15204314731E+03  0.15439552855E+03  0.00000000000E+00 0. -1.
         11    1    3    3    0    0  0.42167874040E+02  0.43980505575E+02  0.85889192412E+02  0.10530606746E+03  0.00000000000E+00 0.  1.
        -13    1    4    4    0    0  0.17532907170E+02  0.16088283932E+02  0.10708067081E+03  0.10969277905E+03  0.00000000000E+00 0.  1.
         13    1    4    4    0    0 -0.49361485914E+02 -0.67805141307E+02  0.42439344009E+03  0.43260130082E+03  0.00000000000E+00 0. -1.
         21    1    1    2  502  501  0.15370646951E+02  0.15473241393E+02  0.13739472575E+03  0.13911501950E+03  0.00000000000E+00 0. -1.
<scales pt_clust_5="13000.00000" pt_clust_6="13000.00000" pt_clust_7="13000.00000" pt_clust_8="13000.00000" pt_clust_9="21.81004"></scales>
<clustering>
<clus scale="   21.810">  1  9  2 -1</clus>
<clus scale="   89.053">  7  8 -1 -1</clus>
<clus scale="   96.170">  5  6 -1 -1</clus>
<clus scale="  100.389">  1  7  2 -1</clus>
<clus scale="   21.810">  1  5  2 -1</clus>
</clustering>
</event>
<event>
 9    1  0.2423659E-006  0.1618969E+03  0.7546771E-02  0.1186640E+00
         -1   -1    0    0    0  501 -0.00000000000E+00  0.00000000000E+00  0.18137964919E+03  0.18137964919E+03  0.00000000000E+00 0.  1.
          1   -1    0    0  502    0  0.00000000000E+00 -0.00000000000E+00 -0.44442636621E+03  0.44442636621E+03  0.00000000000E+00 0. -1.
         23    2    1    2    0    0  0.89050012616E+02 -0.12120431304E+03  0.81952336227E+02  0.19379837323E+03  0.90671019669E+02 0.  0.
         23    2    1    2    0    0  0.29336670779E+02  0.10305412533E+03 -0.19353624442E+03  0.23891228082E+03  0.90233070546E+02 0.  0.
        -13    1    4    4    0    0 -0.94118036252E+01  0.22135480380E+02  0.16336760728E+01  0.24108721174E+02  0.00000000000E+00 0.  1.
         13    1    4    4    0    0  0.38748474404E+02  0.80918644952E+02 -0.19516992050E+03  0.21480355964E+03  0.00000000000E+00 0. -1.
        -13    1    3    3    0    0  0.10062386911E+03 -0.10457382460E+03  0.91331906436E+02  0.17147117822E+03  0.00000000000E+00 0.  1.
         13    1    3    3    0    0 -0.11573856493E+02 -0.16630488442E+02 -0.93795702095E+01  0.22327195016E+02  0.00000000000E+00 0. -1.
         21    1    1    2  502  501 -0.11838668339E+03  0.18150187709E+02 -0.15146280882E+03  0.19309536135E+03  0.00000000000E+00 0. -1.
<scales pt_clust_5="13000.00000" pt_clust_6="13000.00000" pt_clust_7="13000.00000" pt_clust_8="13000.00000" pt_clust_9="119.76993"></scales>
<clustering>
<clus scale="   90.233">  5  6 -1 -1</clus>
<clus scale="   90.671">  7  8 -1 -1</clus>
<clus scale="  119.770">  2  9  1 -1</clus>
<clus scale="  161.652">  2  5  1 -1</clus>
<clus scale="  119.770">  2  5  1 -1</clus>
</clustering>
</event>
<event>
 9    1  0.2423659E-006  0.9635342E+02  0.7546771E-02  0.1288573E+00
          2   -1    0    0  502    0  0.00000000000E+00  0.00000000000E+00  0.75631591248E+03  0.75631591248E+03  0.00000000000E+00 0. -1.
         -2   -1    0    0    0  501 -0.00000000000E+00 -0.00000000000E+00 -0.44362160334E+02  0.44362160334E+02  0.00000000000E+00 0.  1.
         23    2    1    2    0    0  0.63048710026E+02 -0.52049138881E+01  0.12055433843E+03  0.16482408313E+03  0.92905322239E+02 0.  0.
         23    2    1    2    0    0  0.27957725918E+02  0.23284331689E+02  0.48219120528E+03  0.49255196764E+03  0.93676506332E+02 0.  0.
        -11    1    3    3    0    0  0.78217964532E+02 -0.29170386826E+02  0.96825964548E+02  0.12784454957E+03  0.00000000000E+00 0.  1.
         11    1    3    3    0    0 -0.15169254507E+02  0.23965472938E+02  0.23728373884E+02  0.36979533564E+02  0.00000000000E+00 0. -1.
        -13    1    4    4    0    0 -0.68768636710E+01 -0.33315946703E+02  0.15923501456E+03  0.16282823287E+03  0.00000000000E+00 0. -1.
         13    1    4    4    0    0  0.34834589589E+02  0.56600278393E+02  0.32295619072E+03  0.32972373477E+03  0.00000000000E+00 0.  1.
         21    1    1    2  502  501 -0.91006435944E+02 -0.18079417801E+02  0.10920820843E+03  0.14330202203E+03  0.00000000000E+00 0. -1.
<scales pt_clust_5="13000.00000" pt_clust_6="13000.00000" pt_clust_7="13000.00000" pt_clust_8="13000.00000" pt_clust_9="92.78489"></scales>
<clustering>
<clus scale="   92.785">  2  9  1 -1</clus>
<clus scale="   92.905">  5  6 -1 -1</clus>
<clus scale="   93.677">  7  8 -1 -1</clus>
<clus scale="   95.604">  2  5  1 -1</clus>
<clus scale="   96.353">  1  5  2 -1</clus>
</clustering>
</event>
<event>
 9    1  0.2423659E-006  0.9208709E+02  0.7546771E-02  0.1299356E+00
          2   -1    0    0  502    0  0.00000000000E+00  0.00000000000E+00  0.64093699836E+03  0.64093699836E+03  0.00000000000E+00 0. -1.
         -2   -1    0    0    0  501 -0.00000000000E+00 -0.00000000000E+00 -0.36768019166E+02  0.36768019166E+02  0.00000000000E+00 0.  1.
         23    2    1    2    0    0  0.34330956645E+02  0.10816536066E+02  0.73509831963E+02  0.12320041150E+03  0.92081670065E+02 0.  0.
         23    2    1    2    0    0  0.69253942984E+01  0.15859329138E+01  0.47843964672E+03  0.48680834347E+03  0.89595711121E+02 0.  0.
        -13    1    3    3    0    0 -0.27704448554E+02 -0.15148253096E+02  0.21835367713E+02  0.38389963854E+02  0.00000000000E+00 0. -1.
         13    1    3    3    0    0  0.62035405199E+02  0.25964789162E+02  0.51674464249E+02  0.84810447646E+02  0.00000000000E+00 0.  1.
        -13    1    4    4    0    0  0.44132735259E+02 -0.18172913227E+02  0.24890708835E+03  0.25344169296E+03  0.00000000000E+00 0.  1.
         13    1    4    4    0    0 -0.37207340960E+02  0.19758846141E+02  0.22953255837E+03  0.23336665052E+03  0.00000000000E+00 0. -1.
         21    1    1    2  502  501 -0.41256350944E+02 -0.12402468980E+02  0.52219500510E+02  0.67696262552E+02  0.00000000000E+00 0. -1.
<scales pt_clust_5="13000.00000" pt_clust_6="13000.00000" pt_clust_7="13000.00000" pt_clust_8="13000.00000" pt_clust_9="43.08025"></scales>
<clustering>
<clus scale="   43.080">  2  9  1 -1</clus>
<clus scale="   89.596">  7  8 -1 -1</clus>
<clus scale="   89.601">  1  7  2 -1</clus>
<clus scale="   92.082">  5  6 -1 -1</clus>
<clus scale="   89.601">  1  5  2 -1</clus>
</clustering>
</event>
<event>
 9    1  0.2423659E-006  0.1198356E+03  0.7546771E-02  0.1249116E+00
         -1   -1    0    0    0  501 -0.00000000000E+00  0.00000000000E+00  0.58299984745E+03  0.58299984745E+03  0.00000000000E+00 0.  1.
          1   -1    0    0  502    0  0.00000000000E+00 -0.00000000000E+00 -0.69161762520E+02  0.69161762520E+02  0.00000000000E+00 0. -1.
         23    2    1    2    0    0  0.37354971541E+02  0.22847486175E+02  0.34628993453E+03  0.36560557331E+03  0.10878104133E+03 0.  0.
         23    2    1    2    0    0 -0.41269109906E+02  0.37577551171E+02  0.11535459054E+01  0.10948636105E+03  0.94184504050E+02 0.  0.
        -11    1    3    3    0    0  0.19065305169E+02  0.64092284486E+02  0.15053139148E+03  0.16471492529E+03  0.00000000000E+00 0. -1.
         11    1    3    3    0    0  0.18289666372E+02 -0.41244798311E+02  0.19575854305E+03  0.20089064802E+03  0.00000000000E+00 0.  1.
        -13    1    4    4    0    0 -0.66248512375E+02  0.24710783821E+02  0.22498208942E+02  0.74200118831E+02  0.00000000000E+00 0.  1.
         13    1    4    4    0    0  0.24979402469E+02  0.12866767350E+02 -0.21344663036E+02  0.35286242218E+02  0.00000000000E+00 0. -1.
         21    1    1    2  502  501  0.39141383651E+01 -0.60425037346E+02  0.16639460449E+03  0.17706967561E+03  0.00000000000E+00 0.  1.
<scales pt_clust_5="13000.00000" pt_clust_6="13000.00000" pt_clust_7="13000.00000" pt_clust_8="13000.00000" pt_clust_9="60.55168"></scales>
<clustering>
<clus scale="   60.552">  1  9  2 -1</clus>
<clus scale="   94.185">  7  8 -1 -1</clus>
<clus scale="  106.761">  2  7  1 -1</clus>
<clus scale="  108.781">  5  6 -1 -1</clus>
<clus scale="  106.761">  2  5  1 -1</clus>
</clustering>
</event>
<event>
 9    1  0.2423659E-006  0.2262991E+03  0.7546771E-02  0.1153969E+00
          1   -1    0    0  502    0  0.00000000000E+00  0.00000000000E+00  0.37347109869E+03  0.37347109869E+03  0.00000000000E+00 0. -1.
         -1   -1    0    0    0  501 -0.00000000000E+00 -0.00000000000E+00 -0.30045551620E+03  0.30045551620E+03  0.00000000000E+00 0.  1.
         23    2    1    2    0    0  0.36104657157E+02 -0.77872259776E+02 -0.12514397913E+03  0.17683408452E+03  0.90783494228E+02 0.  0.
         23    2    1    2    0    0  0.96804727990E+02 -0.11885141845E+03 -0.14106318811E+02  0.17862445626E+03  0.90613978590E+02 0.  0.
        -11    1    4    4    0    0  0.49952833308E+02 -0.11517410666E+03 -0.29888705389E+02  0.12904919647E+03  0.00000000000E+00 0.  1.
         11    1    4    4    0    0  0.46851894682E+02 -0.36773117926E+01  0.15782386578E+02  0.49575259792E+02  0.00000000000E+00 0. -1.
        -13    1    3    3    0    0  0.36882071653E+02 -0.97985038834E+02 -0.10765316846E+03  0.15016843785E+03  0.00000000000E+00 0.  1.
         13    1    3    3    0    0 -0.77741449629E+00  0.20112779058E+02 -0.17490810664E+02  0.26665646672E+02  0.00000000000E+00 0. -1.
         21    1    1    2  502  501 -0.13290938515E+03  0.19672367823E+03  0.21226588043E+03  0.31846807411E+03  0.00000000000E+00 0. -1.
<scales pt_clust_5="13000.00000" pt_clust_6="13000.00000" pt_clust_7="13000.00000" pt_clust_8="13000.00000" pt_clust_9="207.36532"></scales>
<clustering>
<clus scale="   90.614">  5  6 -1 -1</clus>
<clus scale="   90.783">  7  8 -1 -1</clus>
<clus scale="  124.937">  2  7  1 -1</clus>
<clus scale="  207.365">  1  9  2 -1</clus>
<clus scale="  207.365">  1  5  2 -1</clus>
</clustering>
</event>
<event>
 9    1  0.2423659E-006  0.1641993E+03  0.7546771E-02  0.1209369E+00
          1   -1    0    0  502    0  0.00000000000E+00  0.00000000000E+00  0.10488824346E+03  0.10488824346E+03  0.00000000000E+00 0. -1.
         -1   -1    0    0    0  501 -0.00000000000E+00 -0.00000000000E+00 -0.38199100346E+03  0.38199100346E+03  0.00000000000E+00 0.  1.
         23    2    1    2    0    0 -0.14711247522E+02  0.18009460905E+02 -0.88847339100E+02  0.12964477599E+03  0.91504954999E+02 0.  0.
         23    2    1    2    0    0  0.68468504915E+02  0.11321227889E+03 -0.11960903837E+03  0.19968665740E+03  0.89796897652E+02 0.  0.
        -11    1    4    4    0    0 -0.12110949790E+02  0.57068263508E+02 -0.25510643931E+02  0.63673030071E+02  0.00000000000E+00 0. -1.
         11    1    4    4    0    0  0.80579454705E+02  0.56144015379E+02 -0.94098394442E+02  0.13601362733E+03  0.00000000000E+00 0.  1.
        -13    1    3    3    0    0 -0.32159722804E+02  0.40229614792E+02 -0.20044208205E+02  0.55266987974E+02  0.00000000000E+00 0.  1.
         13    1    3    3    0    0  0.17448475282E+02 -0.22220153887E+02 -0.68803130895E+02  0.74377788011E+02  0.00000000000E+00 0. -1.
         21    1    1    2  502  501 -0.53757257393E+02 -0.13122173979E+03 -0.68646382527E+02  0.15754781354E+03  0.00000000000E+00 0. -1.
<scales pt_clust_5="13000.00000" pt_clust_6="13000.00000" pt_clust_7="13000.00000" pt_clust_8="13000.00000" pt_clust_9="137.46978"></scales>
<clustering>
<clus scale="   89.797">  5  6 -1 -1</clus>
<clus scale="   91.505">  7  8 -1 -1</clus>
<clus scale="   94.414">  2  7  1 -1</clus>
<clus scale="  137.470">  1  9  2 -1</clus>
<clus scale="  137.470">  1  5  2 -1</clus>
</clustering>
</event>
<event>
 9    1  0.2423659E-006  0.2434057E+03  0.7546771E-02  0.1156766E+00
          2   -1    0    0  502    0  0.00000000000E+00  0.00000000000E+00  0.93629746977E+03  0.93629746977E+03  0.00000000000E+00 0. -1.
         -2   -1    0    0    0  501 -0.00000000000E+00 -0.00000000000E+00 -0.15848842337E+03  0.15848842337E+03  0.00000000000E+00 0.  1.
         23    2    1    2    0    0  0.26964632082E+02 -0.35030165342E+01  0.76887999968E+02  0.12145792312E+03  0.90005000087E+02 0.  0.
         23    2    1    2    0    0  0.20066115720E+03 -0.25341705403E+02 -0.14368221396E+02  0.22213940875E+03  0.90732403762E+02 0.  0.
        -11    1    3    3    0    0  0.32088537903E+02  0.30378937505E+02  0.75110844688E+02  0.87144667642E+02  0.00000000000E+00 0.  1.
         11    1    3    3    0    0 -0.51239058210E+01 -0.33881954040E+02  0.17771552802E+01  0.34313255475E+02  0.00000000000E+00 0. -1.
        -13    1    4    4    0    0  0.18155773505E+03 -0.51742137021E+02 -0.16340099496E+02  0.18949263509E+03  0.00000000000E+00 0.  1.
         13    1    4    4    0    0  0.19103422145E+02  0.26400431618E+02  0.19718781005E+01  0.32646773661E+02  0.00000000000E+00 0. -1.
         21    1    1    2  502  501 -0.22762578928E+03  0.28844721937E+02  0.71528926783E+03  0.75118856128E+03  0.00000000000E+00 0. -1.
<scales pt_clust_5="13000.00000" pt_clust_6="13000.00000" pt_clust_7="13000.00000" pt_clust_8="13000.00000" pt_clust_9="225.86272"></scales>
<clustering>
<clus scale="   90.005">  5  6 -1 -1</clus>
<clus scale="   90.732">  7  8 -1 -1</clus>
<clus scale="   94.023">  2  5  1 -1</clus>
<clus scale="  225.863">  1  9  2 -1</clus>
<clus scale="  225.863">  1  5  2 -1</clus>
</clustering>
</event>
<event>
 9    1  0.2423659E-006  0.1686597E+03  0.7546771E-02  0.1182336E+00
          1   -1    0    0  502    0  0.00000000000E+00  0.00000000000E+00  0.19467278528E+03  0.19467278528E+03  0.00000000000E+00 0. -1.
         -1   -1    0    0    0  501 -0.00000000000E+00 -0.00000000000E+00 -0.23674017760E+03  0.23674017760E+03  0.00000000000E+00 0.  1.
         23    2    1    2    0    0 -0.25409587167E+02  0.15071578826E+03 -0.10933537723E+03  0.21014070351E+03  0.94042514884E+02 0.  0.
         23    2    1    2    0    0  0.68595348967E+02 -0.10445262637E+03  0.28185603513E+02  0.14688998523E+03  0.71878831790E+02 0.  0.
        -11    1    4    4    0    0  0.74386149699E+01 -0.46439003437E+02  0.40038013228E+02  0.61765334421E+02  0.00000000000E+00 0. -1.
         11    1    4    4    0    0  0.61156733997E+02 -0.58013622930E+02 -0.11852409715E+02  0.85124650805E+02  0.00000000000E+00 0.  1.
        -11    1    3    3    0    0  0.29878854379E+02  0.98372189215E+02 -0.70610856907E+02  0.12472259885E+03  0.00000000000E+00 0.  1.
         11    1    3    3    0    0 -0.55288441546E+02  0.52343599048E+02 -0.38724520321E+02  0.85418104662E+02  0.00000000000E+00 0. -1.
         21    1    1    2  502  501 -0.43185761800E+02 -0.46263161896E+02  0.39082381400E+02  0.74382274143E+02  0.00000000000E+00 0. -1.
<scales pt_clust_5="13000.00000" pt_clust_6="13000.00000" pt_clust_7="13000.00000" pt_clust_8="13000.00000" pt_clust_9="63.28736"></scales>
<clustering>
<clus scale="   63.287">  1  9  2 -1</clus>
<clus scale="   71.879">  5  6 -1 -1</clus>
<clus scale="   94.043">  7  8 -1 -1</clus>
<clus scale="  157.381">  1  5  2 -1</clus>
<clus scale="   63.287">  1  5  2 -1</clus>
</clustering>
</event>
<event>
 9    1  0.2423659E-006  0.1074458E+03  0.7546771E-02  0.1267325E+00
          2   -1    0    0  502    0  0.00000000000E+00  0.00000000000E+00  0.73075784798E+03  0.73075784798E+03  0.00000000000E+00 0. -1.
         -2   -1    0    0    0  501 -0.00000000000E+00 -0.00000000000E+00 -0.63583186452E+02  0.63583186452E+02  0.00000000000E+00 0.  1.
         23    2    1    2    0    0 -0.11704545457E+02  0.34995145339E+02  0.87966147807E+02  0.13189459176E+03  0.91085034967E+02 0.  0.
         23    2    1    2    0    0 -0.65564648238E+02  0.17114756869E+02  0.55349760803E+03  0.56576645056E+03  0.95605629982E+02 0.  0.
        -11    1    3    3    0    0  0.22093337005E+02  0.53707198034E+02  0.41037027274E+02  0.71109888681E+02  0.00000000000E+00 0.  1.
         11    1    3    3    0    0 -0.33797882461E+02 -0.18712052695E+02  0.46929120533E+02  0.60784703083E+02  0.00000000000E+00 0. -1.
        -13    1    4    4    0    0  0.49711023398E+00  0.41974545721E+02  0.13556925677E+03  0.14191945951E+03  0.00000000000E+00 0.  1.
         13    1    4    4    0    0 -0.66061758472E+02 -0.24859788852E+02  0.41792835126E+03  0.42384699105E+03  0.00000000000E+00 0. -1.
         21    1    1    2  502  501  0.77269193695E+02 -0.52109902208E+02  0.25710905690E+02  0.96679992107E+02  0.00000000000E+00 0.  1.
<scales pt_clust_5="13000.00000" pt_clust_6="13000.00000" pt_clust_7="13000.00000" pt_clust_8="13000.00000" pt_clust_9="93.19855"></scales>
<clustering>
<clus scale="   91.085">  5  6 -1 -1</clus>
<clus scale="   93.199">  2  9  1 -1</clus>
<clus scale="   95.606">  7  8 -1 -1</clus>
<clus scale="  103.444">  2  5  1 -1</clus>
<clus scale="  107.446">  1  5  2 -1</clus>
</clustering>
</event>
<event>
 9    1  0.2423659E-006  0.1412601E+03  0.7546771E-02  0.1213097E+00
          2   -1    0    0  502    0  0.00000000000E+00  0.00000000000E+00  0.25741426607E+03  0.25741426607E+03  0.00000000000E+00 0. -1.
         -2   -1    0    0    0  501 -0.00000000000E+00 -0.00000000000E+00 -0.12409695318E+03  0.12409695318E+03  0.00000000000E+00 0.  1.
         23    2    1    2    0    0 -0.10413588678E+02  0.72691169200E+02 -0.13232844739E+01  0.11250015586E+03  0.85217868307E+02 0.  0.
         23    2    1    2    0    0  0.21128941270E+00 -0.12857208428E+03  0.14103285563E+03  0.21184792364E+03  0.91969836826E+02 0.  0.
        -11    1    4    4    0    0 -0.25512651905E+02 -0.33004670059E+02  0.27611903548E+01  0.41807030809E+02  0.00000000000E+00 0.  1.
         11    1    4    4    0    0  0.25723941318E+02 -0.95567414216E+02  0.13827166528E+03  0.17004089283E+03  0.00000000000E+00 0. -1.
        -11    1    3    3    0    0  0.33298921556E+02  0.17524538359E+02  0.14555055205E+02  0.40345721626E+02  0.00000000000E+00 0. -1.
         11    1    3    3    0    0 -0.43712510234E+02  0.55166630841E+02 -0.15878339679E+02  0.72154434238E+02  0.00000000000E+00 0.  1.
         21    1    1    2  502  501  0.10202299265E+02  0.55880915075E+02 -0.63922582642E+01  0.57163139746E+02  0.00000000000E+00 0.  1.
<scales pt_clust_5="13000.00000" pt_clust_6="13000.00000" pt_clust_7="13000.00000" pt_clust_8="13000.00000" pt_clust_9="56.80461"></scales>
<clustering>
<clus scale="   56.805">  2  9  1 -1</clus>
<clus scale="   85.218">  7  8 -1 -1</clus>
<clus scale="   91.970">  5  6 -1 -1</clus>
<clus scale="  136.960">  2  7  1 -1</clus>
<clus scale="  141.260">  1  5  2 -1</clus>
</clustering>
</event>
<event>
 9    1  0.2423659E-006  0.1104035E+03  0.7546771E-02  0.1274923E+00
         -1   -1    0    0    0  501 -0.00000000000E+00  0.00000000000E+00  0.13611436475E+03  0.13611436475E+03  0.00000000000E+00 0.  1.
          1   -1    0    0  502    0  0.00000000000E+00 -0.00000000000E+00 -0.22604431940E+03  0.22604431940E+03  0.00000000000E+00 0. -1.
         23    2    1    2    0    0  0.37810532218E+02 -0.36153795514E+02  0.97806716136E+02  0.14885043315E+03  0.99265122023E+02 0.  0.
         23    2    1    2    0    0 -0.19112787362E+02  0.22899879031E+02 -0.10827780543E+03  0.13061010563E+03  0.66672433903E+02 0.  0.
        -13    1    4    4    0    0 -0.16332075238E+02  0.43232591220E+02 -0.96383238826E+02  0.10689023506E+03  0.00000000000E+00 0. -1.
         13    1    4    4    0    0 -0.27807121240E+01 -0.20332712189E+02 -0.11894566606E+02  0.23719870565E+02  0.00000000000E+00 0.  1.
        -13    1    3    3    0    0  0.24470868983E+02  0.10787937662E+02  0.96388250587E+02  0.10002948505E+03  0.00000000000E+00 0.  1.
         13    1    3    3    0    0  0.13339663235E+02 -0.46941733176E+02  0.14184655487E+01  0.48820948099E+02  0.00000000000E+00 0. -1.
         21    1    1    2  502  501 -0.18697744856E+02  0.13253916483E+02 -0.79458865354E+02  0.82698145373E+02  0.00000000000E+00 0. -1.
<scales pt_clust_5="13000.00000" pt_clust_6="13000.00000" pt_clust_7="13000.00000" pt_clust_8="13000.00000" pt_clust_9="22.91881"></scales>
<clustering>
<clus scale="   22.919">  2  9  1 -1</clus>
<clus scale="   66.672">  5  6 -1 -1</clus>
<clus scale="   82.344">  2  5  1 -1</clus>
<clus scale="   99.265">  7  8 -1 -1</clus>
<clus scale="   22.919">  2  5  1 -1</clus>
</clustering>
</event>
<event>
 9    1  0.2423659E-006  0.1033039E+03  0.7546771E-02  0.1275104E+00
          2   -1    0    0  502    0  0.00000000000E+00  0.00000000000E+00  0.48936567641E+03  0.48936567641E+03  0.00000000000E+00 0. -1.
         -2   -1    0    0    0  501 -0.00000000000E+00 -0.00000000000E+00 -0.38684985603E+02  0.38684985603E+02  0.00000000000E+00 0.  1.
         23    2    1    2    0    0  0.48928172080E+01  0.42770152010E+02  0.68998498396E+02  0.12296782963E+03  0.92233772441E+02 0.  0.
         23    2    1    2    0    0  0.11153087476E+02 -0.56581166048E+02  0.24642232883E+03  0.26817612743E+03  0.88705419601E+02 0.  0.
        -11    1    4    4    0    0  0.48395827939E+02 -0.28468379574E+02  0.16548928081E+03  0.17475499094E+03  0.00000000000E+00 0. -1.
         11    1    4    4    0    0 -0.37242740463E+02 -0.28112786474E+02  0.80933048017E+02  0.93421136483E+02  0.00000000000E+00 0.  1.
        -13    1    3    3    0    0 -0.17463597007E+02  0.42344405010E+02 -0.46122376696E+01  0.46035840303E+02  0.00000000000E+00 0.  1.
         13    1    3    3    0    0  0.22356414215E+02  0.42574700017E+00  0.73610736065E+02  0.76931989322E+02  0.00000000000E+00 0. -1.
         21    1    1    2  502  501 -0.16045904684E+02  0.13811014038E+02  0.13525986358E+03  0.13690670496E+03  0.00000000000E+00 0. -1.
<scales pt_clust_5="13000.00000" pt_clust_6="13000.00000" pt_clust_7="13000.00000" pt_clust_8="13000.00000" pt_clust_9="21.17109"></scales>
<clustering>
<clus scale="   21.171">  1  9  2 -1</clus>
<clus scale="   88.705">  5  6 -1 -1</clus>
<clus scale="   92.234">  7  8 -1 -1</clus>
<clus scale="  100.166">  1  5  2 -1</clus>
<clus scale="   21.171">  1  5  2 -1</clus>
</clustering>
</event>
<event>
 9    1  0.2423659E-006  0.9539200E+02  0.7546771E-02  0.1292006E+00
         -1   -1    0    0    0  501 -0.00000000000E+00  0.00000000000E+00  0.14942368409E+03  0.14942368409E+03  0.00000000000E+00 0.  1.
          1   -1    0    0  502    0  0.00000000000E+00 -0.00000000000E+00 -0.92540327973E+02  0.92540327973E+02  0.00000000000E+00 0. -1.
         23    2    1    2    0    0  0.28114857770E+02 -0.37344764134E+02  0.59007774860E+02  0.11722860773E+03  0.89864077030E+02 0.  0.
         23    2    1    2    0    0 -0.24894995518E+02  0.11210068805E+02 -0.19824846013E+02  0.93006948048E+02  0.86670879893E+02 0.  0.
        -11    1    3    3    0    0 -0.97269863741E+01  0.23895619829E+02  0.30122736661E+02  0.39660990594E+02  0.00000000000E+00 0.  1.
         11    1    3    3    0    0  0.37841844145E+02 -0.61240383963E+02  0.28885038200E+02  0.77567617135E+02  0.00000000000E+00 0. -1.
        -11    1    4    4    0    0  0.18557498716E+02 -0.26834428448E+02 -0.25536372514E+01  0.32725958686E+02  0.00000000000E+00 0. -1.
         11    1    4    4    0    0 -0.43452494235E+02  0.38044497252E+02 -0.17271208761E+02  0.60280989362E+02  0.00000000000E+00 0.  1.
         21    1    1    2  502  501 -0.32198622520E+01  0.26134695329E+02  0.17700427273E+02  0.31728456289E+02  0.00000000000E+00 0. -1.
<scales pt_clust_5="13000.00000" pt_clust_6="13000.00000" pt_clust_7="13000.00000" pt_clust_8="13000.00000" pt_clust_9="26.33230"></scales>
<clustering>
<clus scale="   26.332">  1  9  2 -1</clus>
<clus scale="   86.671">  7  8 -1 -1</clus>
<clus scale="   89.864">  5  6 -1 -1</clus>
<clus scale="   92.390">  2  7  1 -1</clus>
<clus scale="   92.390">  2  5  1 -1</clus>
</clustering>
</event>
<event>
 9    1  0.2423659E-006  0.9697648E+02  0.7546771E-02  0.1288813E+00
         -1   -1    0    0    0  501 -0.00000000000E+00  0.00000000000E+00  0.11519095582E+03  0.11519095582E+03  0.00000000000E+00 0.  1.
          1   -1    0    0  502    0  0.00000000000E+00 -0.00000000000E+00 -0.17976306526E+03  0.17976306526E+03  0.00000000000E+00 0. -1.
         23    2    1    2    0    0  0.38407541314E+02  0.10755700629E+02  0.32121046759E+02  0.10375310988E+03  0.90233706775E+02 0.  0.
         23    2    1    2    0    0 -0.21343906059E+01  0.48464852956E+01 -0.84270359362E+01  0.94505111644E+02  0.93979557081E+02 0.  0.
        -11    1    3    3    0    0  0.28823931168E+02 -0.16531573320E+02 -0.23748001829E+02  0.40842129172E+02  0.00000000000E+00 0. -1.
         11    1    3    3    0    0  0.95836101453E+01  0.27287273950E+02  0.55869048588E+02  0.62910980704E+02  0.00000000000E+00 0.  1.
        -13    1    4    4    0    0 -0.45111825139E+02 -0.58403591437E+01 -0.18468908513E+02  0.49094675311E+02  0.00000000000E+00 0. -1.
         13    1    4    4    0    0  0.42977434533E+02  0.10686844439E+02  0.10041872576E+02  0.45410436333E+02  0.00000000000E+00 0.  1.
         21    1    1    2  502  501 -0.36273150708E+02 -0.15602185925E+02 -0.88266120259E+02  0.96695799564E+02  0.00000000000E+00 0. -1.
<scales pt_clust_5="13000.00000" pt_clust_6="13000.00000" pt_clust_7="13000.00000" pt_clust_8="13000.00000" pt_clust_9="39.48632"></scales>
<clustering>
<clus scale="   39.486">  2  9  1 -1</clus>
<clus scale="   90.234">  5  6 -1 -1</clus>
<clus scale="   93.351">  1  5  2 -1</clus>
<clus scale="   93.980">  7  8 -1 -1</clus>
<clus scale="   39.486">  2  5  1 -1</clus>
</clustering>
</event>
<event>
 9    1  0.2423659E-006  0.1940436E+03  0.7546771E-02  0.1166894E+00
          2   -1    0    0  502    0  0.00000000000E+00  0.00000000000E+00  0.12028538622E+03  0.12028538622E+03  0.00000000000E+00 0. -1.
         -2   -1    0    0    0  501 -0.00000000000E+00 -0.00000000000E+00 -0.11035008807E+04  0.11035008807E+04  0.00000000000E+00 0.  1.
         23    2    1    2    0    0  0.30956103374E+02 -0.16565089343E+03 -0.20525678742E+03  0.28087097466E+03  0.91431158759E+02 0.  0.
         23    2    1    2    0    0  0.10636211097E+03  0.48930671583E+02 -0.24407563515E+01  0.14673190004E+03  0.88414839968E+02 0.  0.
        -11    1    3    3    0    0  0.47482967439E+02 -0.65807885394E+02 -0.13555389012E+03  0.15798787011E+03  0.00000000000E+00 0. -1.
         11    1    3    3    0    0 -0.16526864064E+02 -0.99843008038E+02 -0.69702897299E+02  0.12288310454E+03  0.00000000000E+00 0.  1.
        -11    1    4    4    0    0  0.24286775675E+02  0.57503753679E+02  0.10191793623E+02  0.63248729767E+02  0.00000000000E+00 0.  1.
         11    1    4    4    0    0  0.82075335292E+02 -0.85730820959E+01 -0.12632549974E+02  0.83483170272E+02  0.00000000000E+00 0. -1.
         21    1    1    2  502  501 -0.13731821434E+03  0.11672022185E+03 -0.77551795074E+03  0.79618339225E+03  0.00000000000E+00 0.  1.
<scales pt_clust_5="13000.00000" pt_clust_6="13000.00000" pt_clust_7="13000.00000" pt_clust_8="13000.00000" pt_clust_9="171.15277"></scales>
<clustering>
<clus scale="   88.415">  7  8 -1 -1</clus>
<clus scale="   91.431">  5  6 -1 -1</clus>
<clus scale="  146.712">  1  7  2 -1</clus>
<clus scale="  171.153">  2  9  1 -1</clus>
<clus scale="  146.712">  1  5  2 -1</clus>
</clustering>
</event>
<event>
 9    1  0.2423659E-006  0.1304073E+03  0.7546771E-02  0.1230337E+00
          1   -1    0    0  502    0  0.00000000000E+00  0.00000000000E+00  0.69246705424E+03  0.69246705424E+03  0.00000000000E+00 0. -1.
         -1   -1    0    0    0  501 -0.00000000000E+00 -0.00000000000E+00 -0.47823346021E+02  0.47823346021E+02  0.00000000000E+00 0.  1.
         23    2    1    2    0    0  0.12914787425E+03 -0.60543985121E+02  0.24197029500E+03  0.29012407674E+03  0.72647151911E+02 0.  0.
         23    2    1    2    0    0 -0.77479935974E+02  0.15467860007E+02  0.32981406081E+03  0.35011674515E+03  0.86959906562E+02 0.  0.
        -11    1    3    3    0    0  0.27175828282E+02  0.14380330244E+02  0.28255853015E+02  0.41757786943E+02  0.00000000000E+00 0. -1.
         11    1    3    3    0    0  0.10197204597E+03 -0.74924315365E+02  0.21371444199E+03  0.24836628980E+03  0.00000000000E+00 0.  1.
        -11    1    4    4    0    0 -0.80564384550E+02 -0.17474472642E+02  0.26197006432E+03  0.27463483364E+03  0.00000000000E+00 0. -1.
         11    1    4    4    0    0  0.30844485768E+01  0.32942332649E+02  0.67843996496E+02  0.75481911502E+02  0.00000000000E+00 0.  1.
         21    1    1    2  502  501 -0.51667938279E+02  0.45076125114E+02  0.72859352402E+02  0.10004957838E+03  0.00000000000E+00 0. -1.
<scales pt_clust_5="13000.00000" pt_clust_6="13000.00000" pt_clust_7="13000.00000" pt_clust_8="13000.00000" pt_clust_9="68.56700"></scales>
<clustering>
<clus scale="   68.567">  2  9  1 -1</clus>
<clus scale="   72.647">  5  6 -1 -1</clus>
<clus scale="   86.960">  7  8 -1 -1</clus>
<clus scale="  121.333">  2  5  1 -1</clus>
<clus scale="  130.407">  1  5  2 -1</clus>
</clustering>
</event>
<event>
 9    1  0.2423659E-006  0.4286397E+03  0.7546771E-02  0.1085232E+00
         -1   -1    0    0    0  501 -0.00000000000E+00  0.00000000000E+00  0.30026509508E+03  0.30026509508E+03  0.00000000000E+00 0.  1.
          1   -1    0    0  502    0  0.00000000000E+00 -0.00000000000E+00 -0.76115487937E+03  0.76115487937E+03  0.00000000000E+00 0. -1.
         23    2    1    2    0    0 -0.28698392506E+02 -0.32394305716E+02 -0.17851369646E+02  0.10441301541E+03  0.93329618088E+02 0.  0.
         23    2    1    2    0    0  0.40534980944E+03 -0.13341918724E+03 -0.22964095935E+03  0.49343508947E+03  0.92919695286E+02 0.  0.
        -11    1    4    4    0    0  0.10621842482E+03 -0.29837617485E+02 -0.15888088328E+02  0.11146779149E+03  0.00000000000E+00 0.  1.
         11    1    4    4    0    0  0.29913138462E+03 -0.10358156976E+03 -0.21375287103E+03  0.38196729799E+03  0.00000000000E+00 0. -1.
        -13    1    3    3    0    0 -0.53329638660E+02  0.85985929565E+01 -0.20896441598E+01  0.54058789972E+02  0.00000000000E+00 0.  1.
         13    1    3    3    0    0  0.24631246155E+02 -0.40992898673E+02 -0.15761725487E+02  0.50354225434E+02  0.00000000000E+00 0. -1.
         21    1    1    2  502  501 -0.37665141694E+03  0.16581349296E+03 -0.21339745530E+03  0.46357186957E+03  0.00000000000E+00 0.  1.
<scales pt_clust_5="13000.00000" pt_clust_6="13000.00000" pt_clust_7="13000.00000" pt_clust_8="13000.00000" pt_clust_9="418.44706"></scales>
<clustering>
<clus scale="   92.920">  5  6 -1 -1</clus>
<clus scale="   93.330">  7  8 -1 -1</clus>
<clus scale="  102.876">  1  7  2 -1</clus>
<clus scale="  418.447">  2  9  1 -1</clus>
<clus scale="  418.447">  2  5  1 -1</clus>
</clustering>
</event>
<event>
 9    1  0.2423659E-006  0.1015286E+03  0.7546771E-02  0.1278140E+00
          1   -1    0    0  502    0  0.00000000000E+00  0.00000000000E+00  0.19202250136E+03  0.19202250136E+03  0.00000000000E+00 0. -1.
         -1   -1    0    0    0  501 -0.00000000000E+00 -0.00000000000E+00 -0.12445157356E+03  0.12445157356E+03  0.00000000000E+00 0.  1.
         23    2    1    2    0    0 -0.50468399243E+02 -0.36191521443E+02 -0.32149662379E+02  0.11389956450E+03  0.89903417376E+02 0.  0.
         23    2    1    2    0    0  0.25691149666E+02 -0.29074772543E+02  0.31013386944E+02  0.10462410969E+03  0.92081467135E+02 0.  0.
        -11    1    4    4    0    0  0.67733854265E+01 -0.61600178321E+02  0.23351649226E+02  0.66225072600E+02  0.00000000000E+00 0. -1.
         11    1    4    4    0    0  0.18917764240E+02  0.32525405778E+02  0.76617377187E+01  0.38399037093E+02  0.00000000000E+00 0.  1.
        -11    1    3    3    0    0  0.93615039317E+01 -0.46432101708E+02 -0.57750125781E+01  0.47717172959E+02  0.00000000000E+00 0. -1.
         11    1    3    3    0    0 -0.59829903175E+02  0.10240580265E+02 -0.26374649801E+02  0.66182391542E+02  0.00000000000E+00 0.  1.
         21    1    1    2  502  501  0.24777249577E+02  0.65266293986E+02  0.68707203226E+02  0.97950400726E+02  0.00000000000E+00 0.  1.
<scales pt_clust_5="13000.00000" pt_clust_6="13000.00000" pt_clust_7="13000.00000" pt_clust_8="13000.00000" pt_clust_9="69.81118"></scales>
<clustering>
<clus scale="   69.811">  1  9  2 -1</clus>
<clus scale="   89.903">  7  8 -1 -1</clus>
<clus scale="   92.081">  5  6 -1 -1</clus>
<clus scale="   99.557">  2  7  1 -1</clus>
<clus scale="   69.811">  1  5  2 -1</clus>
</clustering>
</event>
<event>
 9    1  0.2423659E-006  0.1211209E+03  0.7546771E-02  0.1241472E+00
          1   -1    0    0  502    0  0.00000000000E+00  0.00000000000E+00  0.38116097202E+03  0.38116097202E+03  0.00000000000E+00 0. -1.
         -1   -1    0    0    0  501 -0.00000000000E+00 -0.00000000000E+00 -0.53673065129E+02  0.53673065129E+02  0.00000000000E+00 0.  1.
         23    2    1    2    0    0 -0.62296257123E+02  0.18126176205E+02  0.11745231781E+03  0.16176746168E+03  0.90356420831E+02 0.  0.
         23    2    1    2    0    0  0.80405432541E+02 -0.52865275135E+02  0.18101470126E+03  0.22431250734E+03  0.91049480941E+02 0.  0.
        -11    1    3    3    0    0 -0.55480143229E+02  0.50717851085E+02  0.63658570006E+02  0.98502590050E+02  0.00000000000E+00 0. -1.
         11    1    3    3    0    0 -0.68161138941E+01 -0.32591674880E+02  0.53793747802E+02  0.63264871632E+02  0.00000000000E+00 0.  1.
        -13    1    4    4    0    0  0.93247295646E+02 -0.30629600365E+02  0.17015465101E+03  0.19643277686E+03  0.00000000000E+00 0.  1.
         13    1    4    4    0    0 -0.12841863104E+02 -0.22235674770E+02  0.10860050256E+02  0.27879730487E+02  0.00000000000E+00 0. -1.
         21    1    1    2  502  501 -0.18109175419E+02  0.34739098930E+02  0.29020887818E+02  0.48754068123E+02  0.00000000000E+00 0. -1.
<scales pt_clust_5="13000.00000" pt_clust_6="13000.00000" pt_clust_7="13000.00000" pt_clust_8="13000.00000" pt_clust_9="39.17585"></scales>
<clustering>
<clus scale="   39.176">  2  9  1 -1</clus>
<clus scale="   90.356">  5  6 -1 -1</clus>
<clus scale="   91.049">  7  8 -1 -1</clus>
<clus scale="  120.601">  2  5  1 -1</clus>
<clus scale="  121.121">  1  5  2 -1</clus>
</clustering>
</event>
<event>
 9    1  0.2423659E-006  0.1534683E+03  0.7546771E-02  0.1216636E+00
          1   -1    0    0  502    0  0.00000000000E+00  0.00000000000E+00  0.68195546597E+03  0.68195546597E+03  0.00000000000E+00 0. -1.
         -1   -1    0    0    0  501 -0.00000000000E+00 -0.00000000000E+00 -0.65217319407E+02  0.65217319407E+02  0.00000000000E+00 0.  1.
         23    2    1    2    0    0 -0.11857143410E+01 -0.45576513350E+02  0.13422088014E+03  0.16683742283E+03  0.87982137415E+02 0.  0.
         23    2    1    2    0    0  0.11616212743E+02 -0.86910527357E+02  0.65297647094E+02  0.14246115457E+03  0.91340142778E+02 0.  0.
        -11    1    4    4    0    0  0.31540673043E+02 -0.98541185301E+02  0.55305712009E+02  0.11731965324E+03  0.00000000000E+00 0.  1.
         11    1    4    4    0    0 -0.19924460299E+02  0.11630657943E+02  0.99919350850E+01  0.25141501331E+02  0.00000000000E+00 0. -1.
        -11    1    3    3    0    0 -0.24388089869E+02  0.18680926520E+02  0.44222061808E+02  0.53845581932E+02  0.00000000000E+00 0. -1.
         11    1    3    3    0    0  0.23202375527E+02 -0.64257439870E+02  0.89998818327E+02  0.11299184090E+03  0.00000000000E+00 0.  1.
         21    1    1    2  502  501 -0.10430498402E+02  0.13248704071E+03  0.41721961933E+03  0.43787420797E+03  0.00000000000E+00 0. -1.
<scales pt_clust_5="13000.00000" pt_clust_6="13000.00000" pt_clust_7="13000.00000" pt_clust_8="13000.00000" pt_clust_9="123.32681"></scales>
<clustering>
<clus scale="   87.982">  7  8 -1 -1</clus>
<clus scale="   91.340">  5  6 -1 -1</clus>
<clus scale="   99.093">  2  7  1 -1</clus>
<clus scale="  123.327">  1  9  2 -1</clus>
<clus scale="  123.327">  1  5  2 -1</clus>
</clustering>
</event>
<event>
 9    1  0.2423659E-006  0.9623412E+02  0.7546771E-02  0.1289094E+00
          1   -1    0    0  502    0  0.00000000000E+00  0.00000000000E+00  0.28677716978E+03  0.28677716978E+03  0.00000000000E+00 0. -1.
         -1   -1    0    0    0  501 -0.00000000000E+00 -0.00000000000E+00 -0.88142551400E+02  0.88142551400E+02  0.00000000000E+00 0.  1.
         23    2    1    2    0    0  0.53904241195E+02 -0.21707923301E+02  0.19921037622E+02  0.10937873120E+03  0.90498386424E+02 0.  0.
         23    2    1    2    0    0  0.38690512182E+02  0.66777359544E+01  0.11430770635E+03  0.15175253915E+03  0.91766189404E+02 0.  0.
        -11    1    4    4    0    0  0.56865143811E+02 -0.15156984003E+02  0.10747613980E+03  0.12253366628E+03  0.00000000000E+00 0.  1.
         11    1    4    4    0    0 -0.18174631629E+02  0.21834719957E+02  0.68315665451E+01  0.29218872872E+02  0.00000000000E+00 0. -1.
        -13    1    3    3    0    0  0.24200738199E+02  0.34960092713E+02  0.52519231802E+00  0.42522460405E+02  0.00000000000E+00 0.  1.
         13    1    3    3    0    0  0.29703502996E+02 -0.56668016014E+02  0.19395845304E+02  0.66856270792E+02  0.00000000000E+00 0. -1.
         21    1    1    2  502  501 -0.92594753377E+02  0.15030187346E+02  0.64405874411E+02  0.11378845083E+03  0.00000000000E+00 0. -1.
<scales pt_clust_5="13000.00000" pt_clust_6="13000.00000" pt_clust_7="13000.00000" pt_clust_8="13000.00000" pt_clust_9="93.80669"></scales>
<clustering>
<clus scale="   90.498">  7  8 -1 -1</clus>
<clus scale="   91.766">  5  6 -1 -1</clus>
<clus scale="   93.807">  1  9  2 -1</clus>
<clus scale="   95.026">  2  7  1 -1</clus>
<clus scale="   93.807">  1  5  2 -1</clus>
</clustering>
</event>
<event>
 9    1  0.2423659E-006  0.1335967E+03  0.7546771E-02  0.1223506E+00
          1   -1    0    0  502    0  0.00000000000E+00  0.00000000000E+00  0.58621830261E+03  0.58621830261E+03  0.00000000000E+00 0. -1.
         -1   -1    0    0    0  501 -0.00000000000E+00 -0.00000000000E+00 -0.70450530982E+02  0.70450530982E+02  0.00000000000E+00 0.  1.
         23    2    1    2    0    0 -0.11890537826E+03  0.18945904474E+02  0.58541174049E+02  0.15996983079E+03  0.87554791016E+02 0.  0.
         23    2    1    2    0    0  0.35565281878E+02  0.17964349118E+02  0.27509670319E+03  0.29303448229E+03  0.92754539466E+02 0.  0.
        -13    1    3    3    0    0 -0.23028185854E+02 -0.31650566035E+02  0.25191346341E+02  0.46547390953E+02  0.00000000000E+00 0. -1.
         13    1    3    3    0    0 -0.95877192401E+02  0.50596470509E+02  0.33349827708E+02  0.11342243984E+03  0.00000000000E+00 0.  1.
        -13    1    4    4    0    0 -0.13952546316E+02  0.33423735438E+02  0.48246647637E+02  0.60328754732E+02  0.00000000000E+00 0.  1.
         13    1    4    4    0    0  0.49517828193E+02 -0.15459386320E+02  0.22685005556E+03  0.23270572756E+03  0.00000000000E+00 0. -1.
         21    1    1    2  502  501  0.83340096378E+02 -0.36910253592E+02  0.18212989438E+03  0.20366452051E+03  0.00000000000E+00 0. -1.
<scales pt_clust_5="13000.00000" pt_clust_6="13000.00000" pt_clust_7="13000.00000" pt_clust_8="13000.00000" pt_clust_9="91.14789"></scales>
<clustering>
<clus scale="   87.555">  5  6 -1 -1</clus>
<clus scale="   91.148">  1  9  2 -1</clus>
<clus scale="   92.755">  7  8 -1 -1</clus>
<clus scale="  130.040">  2  5  1 -1</clus>
<clus scale="   91.148">  1  5  2 -1</clus>
</clustering>
</event>
<event>
 9    1  0.2423659E-006  0.9253016E+02  0.7546771E-02  0.1297848E+00
         -1   -1    0    0    0  501 -0.00000000000E+00  0.00000000000E+00  0.15133638197E+03  0.15133638197E+03  0.00000000000E+00 0.  1.
          1   -1    0    0  502    0  0.00000000000E+00 -0.00000000000E+00 -0.95197048762E+02  0.95197048762E+02  0.00000000000E+00 0. -1.
         23    2    1    2    0    0 -0.23647088426E+02 -0.32715248206E+02  0.49619334565E+02  0.11008486412E+03  0.89594233568E+02 0.  0.
         23    2    1    2    0    0 -0.29228668360E+01  0.42512535110E+01 -0.13825351086E+02  0.92515722725E+02  0.91331277839E+02 0.  0.
        -11    1    4    4    0    0 -0.46199678683E+02  0.56209748649E+01  0.15559552048E+01  0.46566368394E+02  0.00000000000E+00 0. -1.
         11    1    4    4    0    0  0.43276811847E+02 -0.13697213539E+01 -0.15381306291E+02  0.45949354331E+02  0.00000000000E+00 0.  1.
        -13    1    3    3    0    0 -0.20447494555E+02 -0.54936928531E+02  0.61266701807E+02  0.84792540358E+02  0.00000000000E+00 0.  1.
         13    1    3    3    0    0 -0.31995938710E+01  0.22221680325E+02 -0.11647367242E+02  0.25292323758E+02  0.00000000000E+00 0. -1.
         21    1    1    2  502  501  0.26569955262E+02  0.28463994695E+02  0.20345349726E+02  0.43932843888E+02  0.00000000000E+00 0. -1.
<scales pt_clust_5="13000.00000" pt_clust_6="13000.00000" pt_clust_7="13000.00000" pt_clust_8="13000.00000" pt_clust_9="38.93792"></scales>
<clustering>
<clus scale="   38.938">  1  9  2 -1</clus>
<clus scale="   89.594">  7  8 -1 -1</clus>
<clus scale="   90.816">  1  7  2 -1</clus>
<clus scale="   91.331">  5  6 -1 -1</clus>
<clus scale="   92.530">  2  5  1 -1</clus>
</clustering>
</event>
<event>
 9    1  0.2423659E-006  0.3098081E+03  0.7546771E-02  0.1124276E+00
         -1   -1    0    0    0  501 -0.00000000000E+00  0.00000000000E+00  0.11413385395E+03  0.11413385395E+03  0.00000000000E+00 0.  1.
          1   -1    0    0  502    0  0.00000000000E+00 -0.00000000000E+00 -0.14383662037E+04  0.14383662037E+04  0.00000000000E+00 0. -1.
         23    2    1    2    0    0  0.14678930344E+02 -0.25572263872E+02 -0.20325866899E+02  0.10183100391E+03  0.95325761560E+02 0.  0.
         23    2    1    2    0    0  0.23358757065E+03 -0.15235459855E+03 -0.39561489836E+03  0.49239569695E+03  0.90373102800E+02 0.  0.
        -11    1    3    3    0    0 -0.36007253430E+01  0.31943162094E+02 -0.25819923782E+02  0.41231047666E+02  0.00000000000E+00 0. -1.
         11    1    3    3    0    0  0.18279655687E+02 -0.57515425965E+02  0.54940568830E+01  0.60599956246E+02  0.00000000000E+00 0.  1.
        -13    1    4    4    0    0  0.13105774854E+03 -0.11591188086E+03 -0.18081414976E+03  0.25160575178E+03  0.00000000000E+00 0.  1.
         13    1    4    4    0    0  0.10252982211E+03 -0.36442717689E+02 -0.21480074860E+03  0.24078994516E+03  0.00000000000E+00 0. -1.
         21    1    1    2  502  501 -0.24826650099E+03  0.17792686242E+03 -0.90829158451E+03  0.95827335681E+03  0.00000000000E+00 0. -1.
<scales pt_clust_5="13000.00000" pt_clust_6="13000.00000" pt_clust_7="13000.00000" pt_clust_8="13000.00000" pt_clust_9="296.33383"></scales>
<clustering>
<clus scale="   90.373">  7  8 -1 -1</clus>
<clus scale="   95.326">  5  6 -1 -1</clus>
<clus scale="   99.782">  1  5  2 -1</clus>
<clus scale="  296.334">  2  9  1 -1</clus>
<clus scale="  296.334">  2  5  1 -1</clus>
</clustering>
</event>
<event>
 9    1  0.4605391E-006  0.1266005E+03  0.7546771E-02  0.1232592E+00
         -2   -1    0    0    0  501 -0.00000000000E+00  0.00000000000E+00  0.13328587760E+03  0.13328587760E+03  0.00000000000E+00 0. -1.
          2   -1    0    0  502    0  0.00000000000E+00 -0.00000000000E+00 -0.52928097122E+03  0.52928097122E+03  0.00000000000E+00 0.  1.
         23    2    1    2    0    0  0.17367304234E+02  0.62060419589E+02  0.77215448337E+02  0.13618171667E+03  0.91815660742E+02 0.  0.
         23    2    1    2    0    0  0.38345419320E+02 -0.81877185975E+02 -0.44018474317E+03  0.45865541059E+03  0.91803773216E+02 0.  0.
        -11    1    4    4    0    0  0.62220677588E+02 -0.68812098652E+02 -0.39632063599E+03  0.40703386118E+03  0.00000000000E+00 0.  1.
         11    1    4    4    0    0 -0.23875258268E+02 -0.13065087323E+02 -0.43864107188E+02  0.51621549410E+02  0.00000000000E+00 0. -1.
        -13    1    3    3    0    0  0.49905591111E+02  0.11051154355E+02  0.28639697730E+02  0.58591196632E+02  0.00000000000E+00 0.  1.
         13    1    3    3    0    0 -0.32538286877E+02  0.51009265235E+02  0.48575750608E+02  0.77590520038E+02  0.00000000000E+00 0. -1.
         21    1    1    2  502  501 -0.55712723554E+02  0.19816766386E+02 -0.33025798784E+02  0.67729721549E+02  0.00000000000E+00 0. -1.
<scales pt_clust_5="13000.00000" pt_clust_6="13000.00000" pt_clust_7="13000.00000" pt_clust_8="13000.00000" pt_clust_9="59.13216"></scales>
<clustering>
<clus scale="   59.132">  1  9  2 -1</clus>
<clus scale="   91.804">  5  6 -1 -1</clus>
<clus scale="   91.816">  7  8 -1 -1</clus>
<clus scale="  126.592">  2  5  1 -1</clus>
<clus scale="  126.592">  2  5  1 -1</clus>
</clustering>
</event>
<event>
 9    1  0.2423659E-006  0.9395613E+02  0.7546771E-02  0.1293796E+00
          2   -1    0    0  502    0  0.00000000000E+00  0.00000000000E+00  0.30176412952E+03  0.30176412952E+03  0.00000000000E+00 0. -1.
         -2   -1    0    0    0  501 -0.00000000000E+00 -0.00000000000E+00 -0.12230638346E+03  0.12230638346E+03  0.00000000000E+00 0.  1.
         23    2    1    2    0    0  0.44069587910E+02  0.23857441630E+02  0.12560789140E+03  0.16251354682E+03  0.90122163861E+02 0.  0.
         23    2    1    2    0    0 -0.65650946706E+01  0.33238367939E+02  0.12820304547E+03  0.16058709211E+03  0.90577611542E+02 0.  0.
        -11    1    3    3    0    0 -0.26526622294E+02  0.68450728562E+00  0.19294308817E+02  0.32808544516E+02  0.00000000000E+00 0.  1.
         11    1    3    3    0    0  0.70596210204E+02  0.23172934345E+02  0.10631358259E+03  0.12970500231E+03  0.00000000000E+00 0. -1.
        -13    1    4    4    0    0 -0.11980473858E+02  0.61523767614E+02  0.60952161555E+02  0.87429238436E+02  0.00000000000E+00 0.  1.
         13    1    4    4    0    0  0.54153791876E+01 -0.28285399676E+02  0.67250883911E+02  0.73157853669E+02  0.00000000000E+00 0. -1.
         21    1    1    2  502  501 -0.37504493239E+02 -0.57095809569E+02 -0.74353190801E+02  0.10096987405E+03  0.00000000000E+00 0.  1.
<scales pt_clust_5="13000.00000" pt_clust_6="13000.00000" pt_clust_7="13000.00000" pt_clust_8="13000.00000" pt_clust_9="68.31192"></scales>
<clustering>
<clus scale="   68.312">  2  9  1 -1</clus>
<clus scale="   90.122">  5  6 -1 -1</clus>
<clus scale="   90.578">  7  8 -1 -1</clus>
<clus scale="   93.517">  2  5  1 -1</clus>
<clus scale="   93.956">  1  5  2 -1</clus>
</clustering>
</event>
<event>
 9    1  0.2423659E-006  0.1284134E+03  0.7546771E-02  0.1231941E+00
          1   -1    0    0  502    0  0.00000000000E+00  0.00000000000E+00  0.53319127136E+03  0.53319127136E+03  0.00000000000E+00 0. -1.
         -1   -1    0    0    0  501 -0.00000000000E+00 -0.00000000000E+00 -0.51583077367E+02  0.51583077367E+02  0.00000000000E+00 0.  1.
         23    2    1    2    0    0 -0.51644966375E+02  0.60009702980E+02  0.89250841507E+02  0.15044241438E+03  0.91645187170E+02 0.  0.
         23    2    1    2    0    0  0.66683315627E+02 -0.92859888119E+02  0.24928217850E+03  0.28676570507E+03  0.83805379792E+02 0.  0.
        -11    1    4    4    0    0  0.68941794399E+02 -0.68389171396E+02  0.24257758247E+03  0.26129281142E+03  0.00000000000E+00 0.  1.
         11    1    4    4    0    0 -0.22584787713E+01 -0.24470716723E+02  0.67045960299E+01  0.25472893657E+02  0.00000000000E+00 0. -1.
        -13    1    3    3    0    0 -0.21743988107E+02  0.70169749678E+02  0.93139837525E+02  0.11862387670E+03  0.00000000000E+00 0. -1.
         13    1    3    3    0    0 -0.29900978267E+02 -0.10160046697E+02 -0.38889960184E+01  0.31818537683E+02  0.00000000000E+00 0.  1.
         21    1    1    2  502  501 -0.15038349253E+02  0.32850185139E+02  0.14307517398E+03  0.14756622927E+03  0.00000000000E+00 0. -1.
<scales pt_clust_5="13000.00000" pt_clust_6="13000.00000" pt_clust_7="13000.00000" pt_clust_8="13000.00000" pt_clust_9="36.12875"></scales>
<clustering>
<clus scale="   36.129">  1  9  2 -1</clus>
<clus scale="   83.805">  5  6 -1 -1</clus>
<clus scale="   91.645">  7  8 -1 -1</clus>
<clus scale="  122.941">  1  5  2 -1</clus>
<clus scale="   36.129">  1  5  2 -1</clus>
</clustering>
</event>
<event>
 9    1  0.2423659E-006  0.1094401E+03  0.7546771E-02  0.1262026E+00
          2   -1    0    0  502    0  0.00000000000E+00  0.00000000000E+00  0.21176139396E+03  0.21176139396E+03  0.00000000000E+00 0. -1.
         -2   -1    0    0    0  501 -0.00000000000E+00 -0.00000000000E+00 -0.11212769427E+03  0.11212769427E+03  0.00000000000E+00 0.  1.
         23    2    1    2    0    0  0.29414283885E+02 -0.19571235075E+02 -0.19330843083E+02  0.10531738530E+03  0.97313086543E+02 0.  0.
         23    2    1    2    0    0 -0.72378483272E+02  0.43070317777E+02  0.58284305929E+02  0.14059593452E+03  0.96314377800E+02 0.  0.
        -11    1    4    4    0    0 -0.25868045149E+02 -0.80789989449E-01 -0.24949136473E+02  0.35939138799E+02  0.00000000000E+00 0.  1.
         11    1    4    4    0    0 -0.46510438123E+02  0.43151107767E+02  0.83233442402E+02  0.10465679572E+03  0.00000000000E+00 0. -1.
        -11    1    3    3    0    0  0.65427080174E+01 -0.58128517215E+02 -0.76791439560E+01  0.58997464299E+02  0.00000000000E+00 0. -1.
         11    1    3    3    0    0  0.22871575867E+02  0.38557282140E+02 -0.11651699127E+02  0.46319920997E+02  0.00000000000E+00 0.  1.
         21    1    1    2  502  501  0.42964199387E+02 -0.23499082702E+02  0.60680236847E+02  0.77975768420E+02  0.00000000000E+00 0. -1.
<scales pt_clust_5="13000.00000" pt_clust_6="13000.00000" pt_clust_7="13000.00000" pt_clust_8="13000.00000" pt_clust_9="48.97070"></scales>
<clustering>
<clus scale="   48.971">  1  9  2 -1</clus>
<clus scale="   96.314">  5  6 -1 -1</clus>
<clus scale="   97.313">  7  8 -1 -1</clus>
<clus scale="  108.553">  1  5  2 -1</clus>
<clus scale="   48.971">  1  5  2 -1</clus>
</clustering>
</event>
<event>
 9    1  0.2423659E-006  0.1438207E+03  0.7546771E-02  0.1229250E+00
         -4   -1    0    0    0  501 -0.00000000000E+00  0.00000000000E+00  0.19836818004E+03  0.19836818004E+03  0.00000000000E+00 0.  1.
          4   -1    0    0  502    0  0.00000000000E+00 -0.00000000000E+00 -0.30338139698E+03  0.30338139698E+03  0.00000000000E+00 0. -1.
         23    2    1    2    0    0 -0.10949784956E+03 -0.50230357950E+01 -0.16935643951E+03  0.22153338743E+03  0.91544678697E+02 0.  0.
         23    2    1    2    0    0 -0.69330367713E+00 -0.91512787061E+01 -0.62467081591E+02  0.11162243321E+03  0.92050012179E+02 0.  0.
        -11    1    3    3    0    0 -0.15835769425E+02  0.23711471758E+02 -0.93142729395E+02  0.97409309234E+02  0.00000000000E+00 0.  1.
         11    1    3    3    0    0 -0.93662080136E+02 -0.28734507553E+02 -0.76213710114E+02  0.12412407820E+03  0.00000000000E+00 0. -1.
        -13    1    4    4    0    0 -0.10865262534E+02 -0.44404338491E+02 -0.59185828436E+02  0.74784767797E+02  0.00000000000E+00 0. -1.
         13    1    4    4    0    0  0.10171958857E+02  0.35253059784E+02 -0.32812531549E+01  0.36837665418E+02  0.00000000000E+00 0.  1.
         21    1    1    2  502  501  0.11019115324E+03  0.14174314501E+02  0.12681030416E+03  0.16859375637E+03  0.00000000000E+00 0.  1.
<scales pt_clust_5="13000.00000" pt_clust_6="13000.00000" pt_clust_7="13000.00000" pt_clust_8="13000.00000" pt_clust_9="110.92330"></scales>
<clustering>
<clus scale="   91.545">  5  6 -1 -1</clus>
<clus scale="   92.050">  7  8 -1 -1</clus>
<clus scale="   92.506">  2  7  1 -1</clus>
<clus scale="  110.923">  1  9  2 -1</clus>
<clus scale="   92.506">  2  5  1 -1</clus>
</clustering>
</event>
<event>
 9    1  0.2423659E-006  0.1162918E+03  0.7546771E-02  0.1255618E+00
          1   -1    0    0  502    0  0.00000000000E+00  0.00000000000E+00  0.32821489178E+03  0.32821489178E+03  0.00000000000E+00 0. -1.
         -1   -1    0    0    0  501 -0.00000000000E+00 -0.00000000000E+00 -0.54257897337E+02  0.54257897337E+02  0.00000000000E+00 0.  1.
         23    2    1    2    0    0 -0.13162867266E+02 -0.20179586292E+02  0.89208136043E+02  0.14169300615E+03  0.10741666387E+03 0.  0.
         23    2    1    2    0    0  0.25050006421E+02  0.50758618390E+02  0.17618966170E+03  0.20687342472E+03  0.92465543871E+02 0.  0.
        -11    1    4    4    0    0 -0.32837514604E+02  0.31736618311E+01  0.45114392387E+02  0.55889917653E+02  0.00000000000E+00 0.  1.
         11    1    4    4    0    0  0.57887521025E+02  0.47584956559E+02  0.13107526931E+03  0.15098350707E+03  0.00000000000E+00 0. -1.
        -13    1    3    3    0    0 -0.66623391512E+00 -0.54004681803E+02  0.90744333784E+02  0.10560058541E+03  0.00000000000E+00 0. -1.
         13    1    3    3    0    0 -0.12496633351E+02  0.33825095512E+02 -0.15361977407E+01  0.36092420741E+02  0.00000000000E+00 0.  1.
         21    1    1    2  502  501 -0.11887139155E+02 -0.30579032099E+02  0.85591966975E+01  0.33906358246E+02  0.00000000000E+00 0.  1.
<scales pt_clust_5="13000.00000" pt_clust_6="13000.00000" pt_clust_7="13000.00000" pt_clust_8="13000.00000" pt_clust_9="32.80825"></scales>
<clustering>
<clus scale="   32.808">  2  9  1 -1</clus>
<clus scale="   92.466">  5  6 -1 -1</clus>
<clus scale="  102.642">  1  5  2 -1</clus>
<clus scale="  107.417">  7  8 -1 -1</clus>
<clus scale="  102.642">  1  5  2 -1</clus>
</clustering>
</event>
<event>
 9    1  0.2423659E-006  0.2431482E+03  0.7546771E-02  0.1133607E+00
          1   -1    0    0  502    0  0.00000000000E+00  0.00000000000E+00  0.82603874264E+03  0.82603874264E+03  0.00000000000E+00 0. -1.
         -1   -1    0    0    0  501 -0.00000000000E+00 -0.00000000000E+00 -0.39392751424E+03  0.39392751424E+03  0.00000000000E+00 0.  1.
         23    2    1    2    0    0  0.13286740536E+03 -0.27396342375E+02 -0.21003918826E+03  0.26651799542E+03  0.92255483840E+02 0.  0.
         23    2    1    2    0    0 -0.14635197409E+03 -0.20107810150E+03 -0.86032868316E+01  0.26362017584E+03  0.87007340759E+02 0.  0.
        -11    1    4    4    0    0 -0.37728480288E+02 -0.11676501609E+03 -0.24717401768E+02  0.12517370794E+03  0.00000000000E+00 0.  1.
         11    1    4    4    0    0 -0.10862349380E+03 -0.84313085400E+02  0.16114114937E+02  0.13844646790E+03  0.00000000000E+00 0. -1.
        -13    1    3    3    0    0  0.24345956306E+02 -0.42635444140E+02 -0.99017473828E+02  0.11052134097E+03  0.00000000000E+00 0.  1.
         13    1    3    3    0    0  0.10852144906E+03  0.15239101765E+02 -0.11102171443E+03  0.15599665446E+03  0.00000000000E+00 0. -1.
         21    1    1    2  502  501  0.13484568725E+02  0.22847444387E+03  0.65075370348E+03  0.68982808561E+03  0.00000000000E+00 0. -1.
<scales pt_clust_5="13000.00000" pt_clust_6="13000.00000" pt_clust_7="13000.00000" pt_clust_8="13000.00000" pt_clust_9="227.04800"></scales>
<clustering>
<clus scale="   87.007">  5  6 -1 -1</clus>
<clus scale="   92.255">  7  8 -1 -1</clus>
<clus scale="  164.059">  2  7  1 -1</clus>
<clus scale="  227.048">  1  9  2 -1</clus>
<clus scale="  227.048">  1  5  2 -1</clus>
</clustering>
</event>
<event>
 9    1  0.2423659E-006  0.1611837E+03  0.7546771E-02  0.1190775E+00
         -1   -1    0    0    0  501 -0.00000000000E+00  0.00000000000E+00  0.55153612872E+02  0.55153612872E+02  0.00000000000E+00 0.  1.
          1   -1    0    0  502    0  0.00000000000E+00 -0.00000000000E+00 -0.10656849654E+04  0.10656849654E+04  0.00000000000E+00 0. -1.
         23    2    1    2    0    0  0.10383625859E+03 -0.24172861069E+00 -0.78302419115E+02  0.14689080347E+03  0.68290645585E+02 0.  0.
         23    2    1    2    0    0 -0.11583149055E+03  0.89106784670E+02 -0.76552431741E+03  0.78465616703E+03  0.91109091884E+02 0.  0.
        -13    1    3    3    0    0  0.76405201556E+02 -0.11039768862E+02 -0.17262909497E+02  0.79105242340E+02  0.00000000000E+00 0.  1.
         13    1    3    3    0    0  0.27431057031E+02  0.10798040251E+02 -0.61039509618E+02  0.67785561129E+02  0.00000000000E+00 0. -1.
        -13    1    4    4    0    0 -0.89805267114E+02  0.10522757481E+03 -0.67693828485E+03  0.69092928003E+03  0.00000000000E+00 0. -1.
         13    1    4    4    0    0 -0.26026223440E+02 -0.16120790144E+02 -0.88586032559E+02  0.93726886996E+02  0.00000000000E+00 0.  1.
         21    1    1    2  502  501  0.11995231967E+02 -0.88865056059E+02 -0.16670461598E+03  0.18929160776E+03  0.00000000000E+00 0.  1.
<scales pt_clust_5="13000.00000" pt_clust_6="13000.00000" pt_clust_7="13000.00000" pt_clust_8="13000.00000" pt_clust_9="89.67098"></scales>
<clustering>
<clus scale="   68.291">  5  6 -1 -1</clus>
<clus scale="   89.671">  1  9  2 -1</clus>
<clus scale="   91.109">  7  8 -1 -1</clus>
<clus scale="  149.476">  1  5  2 -1</clus>
<clus scale="  161.184">  2  5  1 -1</clus>
</clustering>
</event>
<event>
 9    1  0.2423659E-006  0.1393304E+03  0.7546771E-02  0.1214551E+00
          1   -1    0    0  502    0  0.00000000000E+00  0.00000000000E+00  0.92195676115E+02  0.92195676115E+02  0.00000000000E+00 0. -1.
         -1   -1    0    0    0  501 -0.00000000000E+00 -0.00000000000E+00 -0.44069827290E+03  0.44069827290E+03  0.00000000000E+00 0.  1.
         23    2    1    2    0    0 -0.55406765704E+02 -0.40945880520E+02 -0.19851863446E+03  0.22725432258E+03  0.86535565434E+02 0.  0.
         23    2    1    2    0    0  0.66148812268E+02  0.10791792961E+03 -0.13308607709E+02  0.15305915756E+03  0.85017890931E+02 0.  0.
        -11    1    4    4    0    0  0.70086193823E+02  0.33020398444E+02 -0.72591205721E+01  0.77814626578E+02  0.00000000000E+00 0. -1.
         11    1    4    4    0    0 -0.39373815552E+01  0.74897531164E+02 -0.60494871371E+01  0.75244530981E+02  0.00000000000E+00 0.  1.
        -13    1    3    3    0    0  0.46425505774E+01  0.21597582108E+02 -0.58874112702E+02  0.62882191241E+02  0.00000000000E+00 0. -1.
         13    1    3    3    0    0 -0.60049316281E+02 -0.62543462627E+02 -0.13964452176E+03  0.16437213134E+03  0.00000000000E+00 0.  1.
         21    1    1    2  502  501 -0.10742046564E+02 -0.66972049089E+02 -0.13667535461E+03  0.15258046888E+03  0.00000000000E+00 0.  1.
<scales pt_clust_5="13000.00000" pt_clust_6="13000.00000" pt_clust_7="13000.00000" pt_clust_8="13000.00000" pt_clust_9="67.82807"></scales>
<clustering>
<clus scale="   67.828">  2  9  1 -1</clus>
<clus scale="   85.018">  5  6 -1 -1</clus>
<clus scale="   86.536">  7  8 -1 -1</clus>
<clus scale="  138.393">  1  5  2 -1</clus>
<clus scale="  138.393">  1  5  2 -1</clus>
</clustering>
</event>
<event>
 9    1  0.2423659E-006  0.1325532E+03  0.7546771E-02  0.1224033E+00
         -2   -1    0    0    0  501 -0.00000000000E+00  0.00000000000E+00  0.36773750081E+02  0.36773750081E+02  0.00000000000E+00 0.  1.
          2   -1    0    0  502    0  0.00000000000E+00 -0.00000000000E+00 -0.11945994144E+04  0.11945994144E+04  0.00000000000E+00 0. -1.
         23    2    1    2    0    0  0.15220861612E+02 -0.12131187206E+03 -0.23353987260E+03  0.27889270579E+03  0.91060553028E+02 0.  0.
         23    2    1    2    0    0  0.51125506052E+02  0.61462118587E+02 -0.32405249678E+03  0.34563299693E+03  0.89781615633E+02 0.  0.
        -13    1    3    3    0    0 -0.38175741805E+02 -0.54185876596E+02 -0.11177367146E+03  0.12994941368E+03  0.00000000000E+00 0.  1.
         13    1    3    3    0    0  0.53396603417E+02 -0.67125995468E+02 -0.12176620114E+03  0.14894329211E+03  0.00000000000E+00 0. -1.
        -13    1    4    4    0    0  0.74405219215E+02  0.33118190672E+02 -0.25112303655E+03  0.26399948993E+03  0.00000000000E+00 0. -1.
         13    1    4    4    0    0 -0.23279713163E+02  0.28343927914E+02 -0.72929460235E+02  0.81633506998E+02  0.00000000000E+00 0.  1.
         21    1    1    2  502  501 -0.66346367664E+02  0.59849753477E+02 -0.60023329498E+03  0.60684746180E+03  0.00000000000E+00 0. -1.
<scales pt_clust_5="13000.00000" pt_clust_6="13000.00000" pt_clust_7="13000.00000" pt_clust_8="13000.00000" pt_clust_9="89.35230"></scales>
<clustering>
<clus scale="   89.352">  2  9  1 -1</clus>
<clus scale="   89.782">  7  8 -1 -1</clus>
<clus scale="   91.061">  5  6 -1 -1</clus>
<clus scale="  131.678">  2  7  1 -1</clus>
<clus scale="   89.352">  2  5  1 -1</clus>
</clustering>
</event>
<event>
 9    1  0.2423659E-006  0.1047083E+03  0.7546771E-02  0.1271019E+00
          1   -1    0    0  502    0  0.00000000000E+00  0.00000000000E+00  0.30308299388E+03  0.30308299388E+03  0.00000000000E+00 0. -1.
         -1   -1    0    0    0  501 -0.00000000000E+00 -0.00000000000E+00 -0.59669457516E+02  0.59669457516E+02  0.00000000000E+00 0.  1.
         23    2    1    2    0    0  0.20042730851E+02 -0.51824773122E+02  0.25939258449E+02  0.10943782956E+03  0.90643671821E+02 0.  0.
         23    2    1    2    0    0  0.39443473773E+01  0.43573568680E+02  0.14807086321E+03  0.17942080431E+03  0.91392727944E+02 0.  0.
        -11    1    3    3    0    0  0.21423159382E+02  0.85167119085E+01  0.41172863113E+02  0.47187824664E+02  0.00000000000E+00 0. -1.
         11    1    3    3    0    0 -0.13804285314E+01 -0.60341485031E+02 -0.15233604664E+02  0.62250004897E+02  0.00000000000E+00 0.  1.
        -13    1    4    4    0    0 -0.18065607899E+01  0.72151723497E+02  0.10555119444E+03  0.12786785958E+03  0.00000000000E+00 0. -1.
         13    1    4    4    0    0  0.57509081671E+01 -0.28578154816E+02  0.42519668771E+02  0.51552944725E+02  0.00000000000E+00 0.  1.
         21    1    1    2  502  501 -0.23987078228E+02  0.82512044419E+01  0.69403414699E+02  0.73893817526E+02  0.00000000000E+00 0. -1.
<scales pt_clust_5="13000.00000" pt_clust_6="13000.00000" pt_clust_7="13000.00000" pt_clust_8="13000.00000" pt_clust_9="25.36656"></scales>
<clustering>
<clus scale="   25.367">  1  9  2 -1</clus>
<clus scale="   90.644">  5  6 -1 -1</clus>
<clus scale="   91.393">  7  8 -1 -1</clus>
<clus scale="  104.055">  2  5  1 -1</clus>
<clus scale="   25.367">  1  5  2 -1</clus>
</clustering>
</event>
<event>
 9    1  0.2423659E-006  0.2898906E+03  0.7546771E-02  0.1090959E+00
          1   -1    0    0  502    0  0.00000000000E+00  0.00000000000E+00  0.66445934445E+03  0.66445934445E+03  0.00000000000E+00 0. -1.
         -1   -1    0    0    0  501 -0.00000000000E+00 -0.00000000000E+00 -0.21243712961E+03  0.21243712961E+03  0.00000000000E+00 0.  1.
         23    2    1    2    0    0  0.56924217898E+02  0.27395015109E+03 -0.34440447704E+02  0.29892725947E+03  0.99409809127E+02 0.  0.
         23    2    1    2    0    0 -0.83373106845E+02 -0.23342807655E+03  0.42790555672E+03  0.50200529623E+03  0.86408391396E+02 0.  0.
        -13    1    3    3    0    0  0.54040302703E+02  0.23166492411E+03  0.92402475331E+01  0.23806380143E+03  0.00000000000E+00 0. -1.
         13    1    3    3    0    0  0.28839151947E+01  0.42285226980E+02 -0.43680695237E+02  0.60863458035E+02  0.00000000000E+00 0.  1.
        -13    1    4    4    0    0 -0.38767125534E+02 -0.18744063717E+03  0.26452484950E+03  0.32651229454E+03  0.00000000000E+00 0. -1.
         13    1    4    4    0    0 -0.44605981311E+02 -0.45987439386E+02  0.16338070722E+03  0.17549300169E+03  0.00000000000E+00 0.  1.
         21    1    1    2  502  501  0.26448888947E+02 -0.40522074536E+02  0.58557105819E+02  0.75963918363E+02  0.00000000000E+00 0. -1.
<scales pt_clust_5="13000.00000" pt_clust_6="13000.00000" pt_clust_7="13000.00000" pt_clust_8="13000.00000" pt_clust_9="48.38990"></scales>
<clustering>
<clus scale="   48.390">  1  9  2 -1</clus>
<clus scale="   86.408">  7  8 -1 -1</clus>
<clus scale="   99.410">  5  6 -1 -1</clus>
<clus scale="  285.693">  1  7  2 -1</clus>
<clus scale="   48.390">  1  5  2 -1</clus>
</clustering>
</event>
<event>
 9    1  0.2423659E-006  0.9276029E+02  0.7546771E-02  0.1296711E+00
          2   -1    0    0  502    0  0.00000000000E+00  0.00000000000E+00  0.51996284477E+02  0.51996284477E+02  0.00000000000E+00 0. -1.
         -2   -1    0    0    0  501 -0.00000000000E+00 -0.00000000000E+00 -0.56085100753E+03  0.56085100753E+03  0.00000000000E+00 0.  1.
         23    2    1    2    0    0 -0.14926172245E+02  0.25229457834E+02 -0.10581171571E+03  0.14231374830E+03  0.90541524249E+02 0.  0.
         23    2    1    2    0    0 -0.44916027402E+02  0.38955242414E+02 -0.75764502919E+02  0.13169437232E+03  0.89823089293E+02 0.  0.
        -11    1    3    3    0    0  0.25849856760E+02 -0.20658184896E+02 -0.29115577126E+02  0.44075985855E+02  0.00000000000E+00 0. -1.
         11    1    3    3    0    0 -0.40776029005E+02  0.45887642730E+02 -0.76696138580E+02  0.98237762442E+02  0.00000000000E+00 0.  1.
        -13    1    4    4    0    0 -0.58003298707E+02  0.14236379392E+02 -0.83512638727E+02  0.10267140783E+03  0.00000000000E+00 0.  1.
         13    1    4    4    0    0  0.13087271306E+02  0.24718863022E+02  0.77481358084E+01  0.29022964491E+02  0.00000000000E+00 0. -1.
         21    1    1    2  502  501  0.59842199646E+02 -0.64184700247E+02 -0.32727850443E+03  0.33883917138E+03  0.00000000000E+00 0. -1.
<scales pt_clust_5="13000.00000" pt_clust_6="13000.00000" pt_clust_7="13000.00000" pt_clust_8="13000.00000" pt_clust_9="87.75400"></scales>
<clustering>
<clus scale="   87.754">  2  9  1 -1</clus>
<clus scale="   89.823">  7  8 -1 -1</clus>
<clus scale="   90.542">  5  6 -1 -1</clus>
<clus scale="   92.059">  1  7  2 -1</clus>
<clus scale="   92.059">  1  5  2 -1</clus>
</clustering>
</event>
<event>
 9    1  0.2423659E-006  0.1201337E+03  0.7546771E-02  0.1243087E+00
         -1   -1    0    0    0  501 -0.00000000000E+00  0.00000000000E+00  0.27567808632E+03  0.27567808632E+03  0.00000000000E+00 0.  1.
          1   -1    0    0  502    0  0.00000000000E+00 -0.00000000000E+00 -0.10887466308E+03  0.10887466308E+03  0.00000000000E+00 0. -1.
         23    2    1    2    0    0 -0.26748889093E+02  0.12486068377E+03  0.11337610823E+03  0.19354392990E+03  0.91101138662E+02 0.  0.
         23    2    1    2    0    0  0.10620286114E+02 -0.57033146403E+02  0.10366151654E+02  0.10906389623E+03  0.91770943634E+02 0.  0.
        -13    1    4    4    0    0  0.37001830420E+02  0.42690844897E+01  0.18925045367E+02  0.41779395387E+02  0.00000000000E+00 0.  1.
         13    1    4    4    0    0 -0.26381544306E+02 -0.61302230892E+02 -0.85588937133E+01  0.67284500845E+02  0.00000000000E+00 0. -1.
        -13    1    3    3    0    0  0.21866134395E+02  0.84263538885E+02  0.92094037469E+02  0.12672720133E+03  0.00000000000E+00 0.  1.
         13    1    3    3    0    0 -0.48615023489E+02  0.40597144883E+02  0.21282070760E+02  0.66816728574E+02  0.00000000000E+00 0. -1.
         21    1    1    2  502  501  0.16128602980E+02 -0.67827537366E+02  0.43061163355E+02  0.81944923263E+02  0.00000000000E+00 0. -1.
<scales pt_clust_5="13000.00000" pt_clust_6="13000.00000" pt_clust_7="13000.00000" pt_clust_8="13000.00000" pt_clust_9="69.71877"></scales>
<clustering>
<clus scale="   69.719">  1  9  2 -1</clus>
<clus scale="   91.101">  7  8 -1 -1</clus>
<clus scale="   91.771">  5  6 -1 -1</clus>
<clus scale="  119.623">  1  7  2 -1</clus>
<clus scale="  120.134">  2  5  1 -1</clus>
</clustering>
</event>
<event>
 9    1  0.2423659E-006  0.9373658E+02  0.7546771E-02  0.1295248E+00
         -1   -1    0    0    0  501 -0.00000000000E+00  0.00000000000E+00  0.93209256395E+02  0.93209256395E+02  0.00000000000E+00 0.  1.
          1   -1    0    0  502    0  0.00000000000E+00 -0.00000000000E+00 -0.38725177656E+03  0.38725177656E+03  0.00000000000E+00 0. -1.
         23    2    1    2    0    0 -0.18120443880E+01  0.49064973033E+02  0.27845433894E+02  0.10321812732E+03  0.86417350897E+02 0.  0.
         23    2    1    2    0    0  0.19289690945E+01 -0.28736285082E+02 -0.33843800887E+03  0.35102891053E+03  0.88608775976E+02 0.  0.
        -13    1    3    3    0    0  0.38588891617E+02  0.25708712396E+02  0.32043444724E+02  0.56363310753E+02  0.00000000000E+00 0.  1.
         13    1    3    3    0    0 -0.40400936005E+02  0.23356260636E+02 -0.41980108301E+01  0.46854816571E+02  0.00000000000E+00 0. -1.
        -13    1    4    4    0    0  0.15181053127E+02 -0.58427740563E+02 -0.23284334041E+03  0.24054165215E+03  0.00000000000E+00 0. -1.
         13    1    4    4    0    0 -0.13252084032E+02  0.29691455481E+02 -0.10559466845E+03  0.11048725838E+03  0.00000000000E+00 0.  1.
         21    1    1    2  502  501 -0.11692470653E+00 -0.20328687950E+02  0.16550054806E+02  0.26213995103E+02  0.00000000000E+00 0.  1.
<scales pt_clust_5="13000.00000" pt_clust_6="13000.00000" pt_clust_7="13000.00000" pt_clust_8="13000.00000" pt_clust_9="20.32902"></scales>
<clustering>
<clus scale="   20.329">  1  9  2 -1</clus>
<clus scale="   86.417">  5  6 -1 -1</clus>
<clus scale="   88.609">  7  8 -1 -1</clus>
<clus scale="   91.668">  1  5  2 -1</clus>
<clus scale="   93.737">  2  5  1 -1</clus>
</clustering>
</event>
<event>
 9    1  0.2423659E-006  0.1043876E+03  0.7546771E-02  0.1272089E+00
         -1   -1    0    0    0  501 -0.00000000000E+00  0.00000000000E+00  0.92501107956E+02  0.92501107956E+02  0.00000000000E+00 0.  1.
          1   -1    0    0  502    0  0.00000000000E+00 -0.00000000000E+00 -0.28495615381E+03  0.28495615381E+03  0.00000000000E+00 0. -1.
         23    2    1    2    0    0 -0.81514867941E+00  0.10263616749E+03 -0.83579562805E+02  0.16148414439E+03  0.92502639021E+02 0.  0.
         23    2    1    2    0    0 -0.38308818172E+01 -0.21857319554E+02 -0.96107582377E+02  0.13405958272E+03  0.90790342304E+02 0.  0.
        -11    1    3    3    0    0 -0.31114154871E+02  0.44867105121E+02  0.10766887495E+01  0.54610502781E+02  0.00000000000E+00 0.  1.
         11    1    3    3    0    0  0.30299006192E+02  0.57769062364E+02 -0.84656251554E+02  0.10687364161E+03  0.00000000000E+00 0. -1.
        -13    1    4    4    0    0 -0.94437088297E+01 -0.55266330261E+02 -0.76730452410E+02  0.95032169416E+02  0.00000000000E+00 0.  1.
         13    1    4    4    0    0  0.56128270125E+01  0.33409010708E+02 -0.19377129968E+02  0.39027413305E+02  0.00000000000E+00 0. -1.
         21    1    1    2  502  501  0.46460304966E+01 -0.80778847932E+02 -0.12767900673E+02  0.81913534658E+02  0.00000000000E+00 0.  1.
<scales pt_clust_5="13000.00000" pt_clust_6="13000.00000" pt_clust_7="13000.00000" pt_clust_8="13000.00000" pt_clust_9="80.91235"></scales>
<clustering>
<clus scale="   80.912">  1  9  2 -1</clus>
<clus scale="   90.790">  7  8 -1 -1</clus>
<clus scale="   92.503">  5  6 -1 -1</clus>
<clus scale="  102.873">  2  7  1 -1</clus>
<clus scale="  102.873">  2  5  1 -1</clus>
</clustering>
</event>
<event>
 9    1  0.2423659E-006  0.1096488E+03  0.7546771E-02  0.1262569E+00
          1   -1    0    0  502    0  0.00000000000E+00  0.00000000000E+00  0.20742090415E+03  0.20742090415E+03  0.00000000000E+00 0. -1.
         -1   -1    0    0    0  501 -0.00000000000E+00 -0.00000000000E+00 -0.12784776786E+03  0.12784776786E+03  0.00000000000E+00 0.  1.
         23    2    1    2    0    0 -0.78021147818E+02  0.42523994487E+02 -0.11855612377E+02  0.12929702419E+03  0.93174971457E+02 0.  0.
         23    2    1    2    0    0 -0.60934202654E+00 -0.34192664837E+01  0.53234280352E+02  0.11020760919E+03  0.96435293529E+02 0.  0.
        -11    1    3    3    0    0 -0.54195938402E+02 -0.20606598084E+02  0.89891075758E+01  0.58673977868E+02  0.00000000000E+00 0.  1.
         11    1    3    3    0    0 -0.23825209416E+02  0.63130592571E+02 -0.20844719953E+02  0.70623046324E+02  0.00000000000E+00 0. -1.
        -11    1    4    4    0    0  0.46528449556E+02 -0.31744360437E+01  0.13485345961E+02  0.48547175180E+02  0.00000000000E+00 0. -1.
         11    1    4    4    0    0 -0.47137791582E+02 -0.24483043999E+00  0.39748934391E+02  0.61660434011E+02  0.00000000000E+00 0.  1.
         21    1    1    2  502  501  0.78630489844E+02 -0.39104728003E+02  0.38194468314E+02  0.95764038632E+02  0.00000000000E+00 0.  1.
<scales pt_clust_5="13000.00000" pt_clust_6="13000.00000" pt_clust_7="13000.00000" pt_clust_8="13000.00000" pt_clust_9="87.81762"></scales>
<clustering>
<clus scale="   87.818">  1  9  2 -1</clus>
<clus scale="   93.175">  5  6 -1 -1</clus>
<clus scale="   96.435">  7  8 -1 -1</clus>
<clus scale="  106.793">  2  5  1 -1</clus>
<clus scale="   87.818">  1  5  2 -1</clus>
</clustering>
</event>
<event>
 9    1  0.2423659E-006  0.1728995E+03  0.7546771E-02  0.1200947E+00
          2   -1    0    0  502    0  0.00000000000E+00  0.00000000000E+00  0.43710980975E+03  0.43710980975E+03  0.00000000000E+00 0. -1.
         -2   -1    0    0    0  501 -0.00000000000E+00 -0.00000000000E+00 -0.16296948374E+03  0.16296948374E+03  0.00000000000E+00 0.  1.
         23    2    1    2    0    0 -0.14492232538E+02  0.30947339863E+02 -0.63352754361E+02  0.11580773626E+03  0.90719885605E+02 0.  0.
         23    2    1    2    0    0 -0.12982609883E+03  0.51965389286E+02  0.23997262996E+03  0.29136603717E+03  0.88045936113E+02 0.  0.
        -11    1    3    3    0    0 -0.48844248689E+02  0.16276693699E+02 -0.12978937444E+02  0.53095613801E+02  0.00000000000E+00 0.  1.
         11    1    3    3    0    0  0.34352016151E+02  0.14670646164E+02 -0.50373816917E+02  0.62712122459E+02  0.00000000000E+00 0. -1.
        -13    1    4    4    0    0 -0.92832149832E+02  0.30892332905E+02  0.81689910218E+02  0.12745738780E+03  0.00000000000E+00 0.  1.
         13    1    4    4    0    0 -0.36993948994E+02  0.21073056381E+02  0.15828271974E+03  0.16390864937E+03  0.00000000000E+00 0. -1.
         21    1    1    2  502  501  0.14431833136E+03 -0.82912729149E+02  0.97520450411E+02  0.19290552006E+03  0.00000000000E+00 0. -1.
<scales pt_clust_5="13000.00000" pt_clust_6="13000.00000" pt_clust_7="13000.00000" pt_clust_8="13000.00000" pt_clust_9="148.80236"></scales>
<clustering>
<clus scale="   88.046">  7  8 -1 -1</clus>
<clus scale="   90.720">  5  6 -1 -1</clus>
<clus scale="   96.943">  2  5  1 -1</clus>
<clus scale="  148.802">  2  9  1 -1</clus>
<clus scale="  172.899">  1  5  2 -1</clus>
</clustering>
</event>
<event>
 9    1  0.2423659E-006  0.9315320E+02  0.7546771E-02  0.1308435E+00
          3   -1    0    0  502    0  0.00000000000E+00  0.00000000000E+00  0.33719580265E+02  0.33719580265E+02  0.00000000000E+00 0. -1.
         -3   -1    0    0    0  501 -0.00000000000E+00 -0.00000000000E+00 -0.46341562657E+03  0.46341562657E+03  0.00000000000E+00 0.  1.
         23    2    1    2    0    0  0.24079168883E+00  0.72311723973E+01 -0.35705177615E+03  0.36890442639E+03  0.92477873708E+02 0.  0.
         23    2    1    2    0    0 -0.24648881755E+02 -0.16078774553E+02 -0.63443577528E+02  0.10068649483E+03  0.72433337280E+02 0.  0.
        -11    1    3    3    0    0 -0.13600051154E+02 -0.38683418543E+02 -0.21780697222E+03  0.22163313247E+03  0.00000000000E+00 0.  1.
         11    1    3    3    0    0  0.13840842843E+02  0.45914590940E+02 -0.13924480393E+03  0.14727129393E+03  0.00000000000E+00 0. -1.
        -13    1    4    4    0    0 -0.16422106601E+02  0.23231024911E+02 -0.36860286234E+01  0.28687155848E+02  0.00000000000E+00 0. -1.
         13    1    4    4    0    0 -0.82267751543E+01 -0.39309799464E+02 -0.59757548905E+02  0.71999338987E+02  0.00000000000E+00 0.  1.
         21    1    1    2  502  501  0.24408090067E+02  0.88476021562E+01 -0.92006926212E+01  0.27544285602E+02  0.00000000000E+00 0.  1.
<scales pt_clust_5="13000.00000" pt_clust_6="13000.00000" pt_clust_7="13000.00000" pt_clust_8="13000.00000" pt_clust_9="25.96218"></scales>
<clustering>
<clus scale="   25.962">  1  9  2 -1</clus>
<clus scale="   72.433">  7  8 -1 -1</clus>
<clus scale="   73.294">  1  7  2 -1</clus>
<clus scale="   92.478">  5  6 -1 -1</clus>
<clus scale="   25.962">  1  5  2 -1</clus>
</clustering>
</event>
<event>
 9    1  0.2423659E-006  0.1018392E+03  0.7546771E-02  0.1276729E+00
         -1   -1    0    0    0  501 -0.00000000000E+00  0.00000000000E+00  0.37140744973E+02  0.37140744973E+02  0.00000000000E+00 0.  1.
          1   -1    0    0  502    0  0.00000000000E+00 -0.00000000000E+00 -0.41748556069E+03  0.41748556069E+03  0.00000000000E+00 0. -1.
         23    2    1    2    0    0 -0.14077044759E+02  0.56705145541E+02 -0.10011246995E+03  0.14722688233E+03  0.90772305913E+02 0.  0.
         23    2    1    2    0    0 -0.22692914260E+01 -0.40252159982E+02 -0.25073491853E+03  0.26987607521E+03  0.91322015619E+02 0.  0.
        -11    1    4    4    0    0  0.25913754985E+02 -0.59998297119E+02 -0.15983716012E+03  0.17268247193E+03  0.00000000000E+00 0. -1.
         11    1    4    4    0    0 -0.28183046411E+02  0.19746137137E+02 -0.90897758407E+02  0.97193603288E+02  0.00000000000E+00 0.  1.
        -13    1    3    3    0    0  0.27402649582E+02 -0.14639509697E+01 -0.44029355776E+01  0.27792700449E+02  0.00000000000E+00 0.  1.
         13    1    3    3    0    0 -0.41479694341E+02  0.58169096510E+02 -0.95709534372E+02  0.11943418188E+03  0.00000000000E+00 0. -1.
         21    1    1    2  502  501  0.16346336185E+02 -0.16452985559E+02 -0.29497427238E+02  0.37523348120E+02  0.00000000000E+00 0. -1.
<scales pt_clust_5="13000.00000" pt_clust_6="13000.00000" pt_clust_7="13000.00000" pt_clust_8="13000.00000" pt_clust_9="23.19275"></scales>
<clustering>
<clus scale="   23.193">  1  9  2 -1</clus>
<clus scale="   90.772">  7  8 -1 -1</clus>
<clus scale="   91.322">  5  6 -1 -1</clus>
<clus scale="  101.347">  1  7  2 -1</clus>
<clus scale="  101.839">  2  5  1 -1</clus>
</clustering>
</event>
<event>
 9    1  0.2423659E-006  0.9557685E+02  0.7546771E-02  0.1292480E+00
         -2   -1    0    0    0  501 -0.00000000000E+00  0.00000000000E+00  0.38479650965E+03  0.38479650965E+03  0.00000000000E+00 0.  1.
          2   -1    0    0  502    0  0.00000000000E+00 -0.00000000000E+00 -0.34298922107E+02  0.34298922107E+02  0.00000000000E+00 0. -1.
         23    2    1    2    0    0  0.11497237467E+02  0.20676353260E+02  0.17354771599E+03  0.19776050385E+03  0.91818892947E+02 0.  0.
         23    2    1    2    0    0 -0.39111707968E+02  0.72769544810E+00  0.14717479683E+03  0.17543016392E+03  0.87092286404E+02 0.  0.
        -11    1    3    3    0    0  0.28138491930E+02 -0.10563546274E+02  0.11971036752E+02  0.32352263582E+02  0.00000000000E+00 0.  1.
         11    1    3    3    0    0 -0.16641254463E+02  0.31239899534E+02  0.16157667924E+03  0.16540824027E+03  0.00000000000E+00 0. -1.
        -13    1    4    4    0    0 -0.23034260552E+02  0.43800265966E+02  0.77630084567E+02  0.92062318501E+02  0.00000000000E+00 0.  1.
         13    1    4    4    0    0 -0.16077447417E+02 -0.43072570518E+02  0.69544712264E+02  0.83367845422E+02  0.00000000000E+00 0. -1.
         21    1    1    2  502  501  0.27614470501E+02 -0.21404048708E+02  0.29775074719E+02  0.45904763987E+02  0.00000000000E+00 0. -1.
<scales pt_clust_5="13000.00000" pt_clust_6="13000.00000" pt_clust_7="13000.00000" pt_clust_8="13000.00000" pt_clust_9="34.93841"></scales>
<clustering>
<clus scale="   34.938">  2  9  1 -1</clus>
<clus scale="   87.092">  7  8 -1 -1</clus>
<clus scale="   91.046">  2  7  1 -1</clus>
<clus scale="   91.819">  5  6 -1 -1</clus>
<clus scale="   34.938">  2  5  1 -1</clus>
</clustering>
</event>
<event>
 9    1  0.2423659E-006  0.1333442E+03  0.7546771E-02  0.1236742E+00
          1   -1    0    0  502    0  0.00000000000E+00  0.00000000000E+00  0.30932228497E+03  0.30932228497E+03  0.00000000000E+00 0. -1.
         -1   -1    0    0    0  501 -0.00000000000E+00 -0.00000000000E+00 -0.13349947384E+03  0.13349947384E+03  0.00000000000E+00 0.  1.
         23    2    1    2    0    0 -0.19531142885E+02  0.34869105836E+02 -0.19962240720E+02  0.10149210216E+03  0.91130871075E+02 0.  0.
         23    2    1    2    0    0  0.76043519404E+02  0.48786211357E+02  0.79199560757E+01  0.12805716661E+03  0.90405757309E+02 0.  0.
        -11    1    3    3    0    0  0.53236351257E+01  0.53959848597E+02 -0.37169483720E+02  0.65738701475E+02  0.00000000000E+00 0.  1.
         11    1    3    3    0    0 -0.24854778011E+02 -0.19090742761E+02  0.17207243001E+02  0.35753400689E+02  0.00000000000E+00 0. -1.
        -13    1    4    4    0    0  0.87409114583E+02  0.15242677818E+02 -0.82752025161E+01  0.89113251068E+02  0.00000000000E+00 0.  1.
         13    1    4    4    0    0 -0.11365595180E+02  0.33543533539E+02  0.16195158592E+02  0.38943915544E+02  0.00000000000E+00 0. -1.
         21    1    1    2  502  501 -0.56512376518E+02 -0.83655317193E+02  0.18786509578E+03  0.21327249003E+03  0.00000000000E+00 0. -1.
<scales pt_clust_5="13000.00000" pt_clust_6="13000.00000" pt_clust_7="13000.00000" pt_clust_8="13000.00000" pt_clust_9="98.01772"></scales>
<clustering>
<clus scale="   90.406">  7  8 -1 -1</clus>
<clus scale="   91.131">  5  6 -1 -1</clus>
<clus scale="   99.510">  2  5  1 -1</clus>
<clus scale="   98.018">  1  9  2 -1</clus>
<clus scale="   98.018">  1  5  2 -1</clus>
</clustering>
</event>
<event>
 9    1  0.2423659E-006  0.9515418E+02  0.7546771E-02  0.1292108E+00
          1   -1    0    0  502    0  0.00000000000E+00  0.00000000000E+00  0.30690322692E+03  0.30690322692E+03  0.00000000000E+00 0. -1.
         -1   -1    0    0    0  501 -0.00000000000E+00 -0.00000000000E+00 -0.51265841556E+02  0.51265841556E+02  0.00000000000E+00 0.  1.
         23    2    1    2    0    0 -0.14975688480E+02  0.16935789178E+02  0.23636944361E+02  0.98991287626E+02  0.93431673894E+02 0.  0.
         23    2    1    2    0    0 -0.70692426370E+01 -0.10347483843E+02  0.17501701975E+03  0.19772458685E+03  0.91142802402E+02 0.  0.
        -11    1    4    4    0    0  0.34769780710E+02 -0.44337457380E+01  0.13518456048E+03  0.13965479277E+03  0.00000000000E+00 0.  1.
         11    1    4    4    0    0 -0.41839023347E+02 -0.59137381053E+01  0.39832459276E+02  0.58069794084E+02  0.00000000000E+00 0. -1.
        -11    1    3    3    0    0 -0.16131201672E+02  0.44011170508E+02  0.44621170890E+02  0.64716672414E+02  0.00000000000E+00 0. -1.
         11    1    3    3    0    0  0.11555131925E+01 -0.27075381329E+02 -0.20984226529E+02  0.34274615211E+02  0.00000000000E+00 0.  1.
         21    1    1    2  502  501  0.22044931116E+02 -0.65883053351E+01  0.56983421256E+02  0.61453194003E+02  0.00000000000E+00 0.  1.
<scales pt_clust_5="13000.00000" pt_clust_6="13000.00000" pt_clust_7="13000.00000" pt_clust_8="13000.00000" pt_clust_9="23.00836"></scales>
<clustering>
<clus scale="   23.008">  1  9  2 -1</clus>
<clus scale="   91.143">  5  6 -1 -1</clus>
<clus scale="   92.908">  1  5  2 -1</clus>
<clus scale="   93.432">  7  8 -1 -1</clus>
<clus scale="   23.008">  1  5  2 -1</clus>
</clustering>
</event>
<event>
 9    1  0.2423659E-006  0.1032678E+03  0.7546771E-02  0.1274760E+00
          2   -1    0    0  502    0  0.00000000000E+00  0.00000000000E+00  0.27280119752E+03  0.27280119752E+03  0.00000000000E+00 0. -1.
         -2   -1    0    0    0  501 -0.00000000000E+00 -0.00000000000E+00 -0.40677044075E+03  0.40677044075E+03  0.00000000000E+00 0.  1.
         23    2    1    2    0    0  0.18967873731E+02 -0.41640383356E+02 -0.37154129373E+03  0.38491141546E+03  0.89555363010E+02 0.  0.
         23    2    1    2    0    0 -0.66787679615E+02  0.47852623482E+02  0.19221473900E+03  0.22845892775E+03  0.92176504897E+02 0.  0.
        -13    1    3    3    0    0 -0.33458402349E+02 -0.18779601217E+02 -0.21162770875E+03  0.21507771903E+03  0.00000000000E+00 0. -1.
         13    1    3    3    0    0  0.52426276080E+02 -0.22860782139E+02 -0.15991358498E+03  0.16983369643E+03  0.00000000000E+00 0.  1.
        -13    1    4    4    0    0 -0.58394546606E+02  0.97211085581E+01  0.40316499637E+02  0.71622923480E+02  0.00000000000E+00 0.  1.
         13    1    4    4    0    0 -0.83931330096E+01  0.38131514924E+02  0.15189823937E+03  0.15683600427E+03  0.00000000000E+00 0. -1.
         21    1    1    2  502  501  0.47819805884E+02 -0.62122401262E+01  0.45357311501E+02  0.66201295069E+02  0.00000000000E+00 0.  1.
<scales pt_clust_5="13000.00000" pt_clust_6="13000.00000" pt_clust_7="13000.00000" pt_clust_8="13000.00000" pt_clust_9="48.22163"></scales>
<clustering>
<clus scale="   48.222">  1  9  2 -1</clus>
<clus scale="   89.555">  5  6 -1 -1</clus>
<clus scale="   92.177">  7  8 -1 -1</clus>
<clus scale="  100.935">  2  5  1 -1</clus>
<clus scale="   48.222">  1  5  2 -1</clus>
</clustering>
</event>
<event>
 9    1  0.2423659E-006  0.1135082E+03  0.7546771E-02  0.1255721E+00
         -2   -1    0    0    0  501 -0.00000000000E+00  0.00000000000E+00  0.56054484339E+03  0.56054484339E+03  0.00000000000E+00 0.  1.
          2   -1    0    0  502    0  0.00000000000E+00 -0.00000000000E+00 -0.48178620354E+02  0.48178620354E+02  0.00000000000E+00 0. -1.
         23    2    1    2    0    0  0.69724346089E+02  0.55543296685E+01  0.35453796340E+03  0.37372197067E+03  0.95281734079E+02 0.  0.
         23    2    1    2    0    0 -0.46718809702E+02 -0.20936352127E+02  0.17393257225E+03  0.20298258922E+03  0.91260143643E+02 0.  0.
        -11    1    4    4    0    0 -0.69736379876E+02 -0.18626881125E+02  0.87101978176E+02  0.11312328664E+03  0.00000000000E+00 0. -1.
         11    1    4    4    0    0  0.23017570174E+02 -0.23094710017E+01  0.86830594071E+02  0.89859302578E+02  0.00000000000E+00 0.  1.
        -11    1    3    3    0    0  0.31395804387E+02  0.48220663667E+02  0.13366885969E+03  0.14552763651E+03  0.00000000000E+00 0. -1.
         11    1    3    3    0    0  0.38328541703E+02 -0.42666333998E+02  0.22086910371E+03  0.22819433415E+03  0.00000000000E+00 0.  1.
         21    1    1    2  502  501 -0.23005536387E+02  0.15382022458E+02 -0.16104312615E+02  0.32018903857E+02  0.00000000000E+00 0. -1.
<scales pt_clust_5="13000.00000" pt_clust_6="13000.00000" pt_clust_7="13000.00000" pt_clust_8="13000.00000" pt_clust_9="27.67420"></scales>
<clustering>
<clus scale="   27.674">  2  9  1 -1</clus>
<clus scale="   91.260">  5  6 -1 -1</clus>
<clus scale="   95.282">  7  8 -1 -1</clus>
<clus scale="  110.154">  2  5  1 -1</clus>
<clus scale="   27.674">  2  5  1 -1</clus>
</clustering>
</event>
<event>
 9    1  0.2423659E-006  0.9928027E+02  0.7546771E-02  0.1284806E+00
         -3   -1    0    0    0  501 -0.00000000000E+00  0.00000000000E+00  0.18883446110E+03  0.18883446110E+03  0.00000000000E+00 0.  1.
          3   -1    0    0  502    0  0.00000000000E+00 -0.00000000000E+00 -0.12550983625E+03  0.12550983625E+03  0.00000000000E+00 0. -1.
         23    2    1    2    0    0  0.38855250175E+02  0.42855823263E+02  0.96634070476E+02  0.14206147069E+03  0.86585020782E+02 0.  0.
         23    2    1    2    0    0  0.95523548941E+01 -0.54167205491E+01  0.14987347757E+02  0.94324101090E+02  0.92476089386E+02 0.  0.
        -11    1    3    3    0    0  0.16121360325E+02  0.26542346881E+02 -0.93612568755E+01  0.32434974441E+02  0.00000000000E+00 0. -1.
         11    1    3    3    0    0  0.22733889850E+02  0.16313476383E+02  0.10599532735E+03  0.10962649625E+03  0.00000000000E+00 0.  1.
        -11    1    4    4    0    0  0.40081742356E+02 -0.23882417705E+02 -0.13606168133E+02  0.48600861690E+02  0.00000000000E+00 0.  1.
         11    1    4    4    0    0 -0.30529387462E+02  0.18465697156E+02  0.28593515891E+02  0.45723239400E+02  0.00000000000E+00 0. -1.
         21    1    1    2  502  501 -0.48407605069E+02 -0.37439102714E+02 -0.48296793384E+02  0.77958725565E+02  0.00000000000E+00 0. -1.
<scales pt_clust_5="13000.00000" pt_clust_6="13000.00000" pt_clust_7="13000.00000" pt_clust_8="13000.00000" pt_clust_9="61.19626"></scales>
<clustering>
<clus scale="   61.196">  2  9  1 -1</clus>
<clus scale="   86.585">  5  6 -1 -1</clus>
<clus scale="   92.476">  7  8 -1 -1</clus>
<clus scale="   93.817">  1  5  2 -1</clus>
<clus scale="   61.196">  2  5  1 -1</clus>
</clustering>
</event>
<event>
 9    1  0.2423659E-006  0.1007527E+03  0.7546771E-02  0.1284499E+00
         -1   -1    0    0    0  501 -0.00000000000E+00  0.00000000000E+00  0.15524517467E+03  0.15524517467E+03  0.00000000000E+00 0.  1.
          1   -1    0    0  502    0  0.00000000000E+00 -0.00000000000E+00 -0.87424145385E+02  0.87424145385E+02  0.00000000000E+00 0. -1.
         23    2    1    2    0    0  0.59239094425E+00  0.54136151870E+02  0.50294071317E+02  0.10635573576E+03  0.76491666562E+02 0.  0.
         23    2    1    2    0    0 -0.21769710981E+02 -0.41059377151E+02 -0.83640940185E+01  0.10039941586E+03  0.88601872829E+02 0.  0.
        -11    1    4    4    0    0 -0.17553264582E+02  0.23168636076E+02 -0.19602512095E+02  0.35059396395E+02  0.00000000000E+00 0.  1.
         11    1    4    4    0    0 -0.42164463994E+01 -0.64228013227E+02  0.11238418077E+02  0.65340019469E+02  0.00000000000E+00 0. -1.
        -13    1    3    3    0    0  0.16857573263E+02  0.11125805245E+02 -0.15936011816E+02  0.25727763045E+02  0.00000000000E+00 0. -1.
         13    1    3    3    0    0 -0.16265182319E+02  0.43010346625E+02  0.66230083133E+02  0.80627972717E+02  0.00000000000E+00 0.  1.
         21    1    1    2  502  501  0.21177320037E+02 -0.13076774720E+02  0.25891051991E+02  0.35914168432E+02  0.00000000000E+00 0.  1.
<scales pt_clust_5="13000.00000" pt_clust_6="13000.00000" pt_clust_7="13000.00000" pt_clust_8="13000.00000" pt_clust_9="24.88937"></scales>
<clustering>
<clus scale="   24.889">  1  9  2 -1</clus>
<clus scale="   76.492">  7  8 -1 -1</clus>
<clus scale="   88.602">  5  6 -1 -1</clus>
<clus scale="   90.287">  1  7  2 -1</clus>
<clus scale="  100.753">  2  5  1 -1</clus>
</clustering>
</event>
<event>
 9    1  0.2423659E-006  0.1209272E+03  0.7546771E-02  0.1241999E+00
          1   -1    0    0  502    0  0.00000000000E+00  0.00000000000E+00  0.26256606098E+03  0.26256606098E+03  0.00000000000E+00 0. -1.
         -1   -1    0    0    0  501 -0.00000000000E+00 -0.00000000000E+00 -0.14487566839E+03  0.14487566839E+03  0.00000000000E+00 0.  1.
         23    2    1    2    0    0 -0.11351069782E+03  0.16046234939E+02  0.12115841794E+02  0.14664661232E+03  0.90643671079E+02 0.  0.
         23    2    1    2    0    0  0.48321064018E+02 -0.57935262861E+02  0.13441030406E+03  0.17811573825E+03  0.89261786134E+02 0.  0.
        -13    1    4    4    0    0  0.62434866246E+02 -0.56968103637E+01  0.69145122435E+02  0.93336028028E+02  0.00000000000E+00 0.  1.
         13    1    4    4    0    0 -0.14113802228E+02 -0.52238452497E+02  0.65265181622E+02  0.84779710219E+02  0.00000000000E+00 0. -1.
        -13    1    3    3    0    0 -0.86509976274E+02  0.52161336005E+02  0.98361565204E+01  0.10149645779E+03  0.00000000000E+00 0.  1.
         13    1    3    3    0    0 -0.27000721544E+02 -0.36115101065E+02  0.22796852735E+01  0.45150154527E+02  0.00000000000E+00 0. -1.
         21    1    1    2  502  501  0.65189633800E+02  0.41889027922E+02 -0.28835753261E+02  0.82679378815E+02  0.00000000000E+00 0.  1.
<scales pt_clust_5="13000.00000" pt_clust_6="13000.00000" pt_clust_7="13000.00000" pt_clust_8="13000.00000" pt_clust_9="77.48793"></scales>
<clustering>
<clus scale="   77.488">  2  9  1 -1</clus>
<clus scale="   89.262">  5  6 -1 -1</clus>
<clus scale="   90.644">  7  8 -1 -1</clus>
<clus scale="  119.895">  1  5  2 -1</clus>
<clus scale="  119.895">  1  5  2 -1</clus>
</clustering>
</event>
<event>
 9    1  0.2423659E-006  0.1022954E+03  0.7546771E-02  0.1276171E+00
          1   -1    0    0  502    0  0.00000000000E+00  0.00000000000E+00  0.77928931066E+02  0.77928931066E+02  0.00000000000E+00 0. -1.
         -1   -1    0    0    0  501 -0.00000000000E+00 -0.00000000000E+00 -0.44613104003E+03  0.44613104003E+03  0.00000000000E+00 0.  1.
         23    2    1    2    0    0 -0.40915038433E+02 -0.28817376886E+02 -0.31574085073E+03  0.33211269962E+03  0.90011548414E+02 0.  0.
         23    2    1    2    0    0  0.47121994940E+02 -0.40161594060E+02 -0.10296092732E+02  0.11086382111E+03  0.91385673170E+02 0.  0.
        -11    1    4    4    0    0  0.56826233458E+02  0.92357330287E+01 -0.17116414495E+02  0.60062394380E+02  0.00000000000E+00 0. -1.
         11    1    4    4    0    0 -0.97042385176E+01 -0.49397327089E+02  0.68203217626E+01  0.50801426729E+02  0.00000000000E+00 0.  1.
        -13    1    3    3    0    0 -0.18396610742E+02  0.26015249503E+02 -0.46141617889E+02  0.56073856608E+02  0.00000000000E+00 0. -1.
         13    1    3    3    0    0 -0.22518427691E+02 -0.54832626388E+02 -0.26959923284E+03  0.27603884301E+03  0.00000000000E+00 0.  1.
         21    1    1    2  502  501 -0.62069565074E+01  0.68978970946E+02 -0.42165165501E+02  0.81083450368E+02  0.00000000000E+00 0. -1.
<scales pt_clust_5="13000.00000" pt_clust_6="13000.00000" pt_clust_7="13000.00000" pt_clust_8="13000.00000" pt_clust_9="69.25767"></scales>
<clustering>
<clus scale="   69.258">  1  9  2 -1</clus>
<clus scale="   90.012">  7  8 -1 -1</clus>
<clus scale="   91.386">  5  6 -1 -1</clus>
<clus scale="  101.070">  2  7  1 -1</clus>
<clus scale="   69.258">  1  5  2 -1</clus>
</clustering>
</event>
<event>
 9    1  0.2423659E-006  0.9839527E+02  0.7546771E-02  0.1287461E+00
         -1   -1    0    0    0  501 -0.00000000000E+00  0.00000000000E+00  0.22416059101E+02  0.22416059101E+02  0.00000000000E+00 0.  1.
          1   -1    0    0  502    0  0.00000000000E+00 -0.00000000000E+00 -0.64206593466E+03  0.64206593466E+03  0.00000000000E+00 0. -1.
         23    2    1    2    0    0 -0.19444071720E+02  0.20478227967E+02 -0.13073102933E+03  0.16064456646E+03  0.88986768427E+02 0.  0.
         23    2    1    2    0    0  0.30273262083E+01 -0.25503912176E+01 -0.41763636553E+03  0.42852402267E+03  0.95901173057E+02 0.  0.
        -13    1    3    3    0    0  0.30805295900E+02  0.25862852383E+01 -0.84783701371E+02  0.90243731887E+02  0.00000000000E+00 0. -1.
         13    1    3    3    0    0 -0.50249367621E+02  0.17891942729E+02 -0.45947327963E+02  0.70400834568E+02  0.00000000000E+00 0.  1.
        -13    1    4    4    0    0 -0.37783869096E+02  0.25621909663E+02 -0.17377936092E+03  0.17967573376E+03  0.00000000000E+00 0.  1.
         13    1    4    4    0    0  0.40811195304E+02 -0.28172300880E+02 -0.24385700461E+03  0.24884828891E+03  0.00000000000E+00 0. -1.
         21    1    1    2  502  501  0.16416745512E+02 -0.17927836750E+02 -0.71282480695E+02  0.75313404635E+02  0.00000000000E+00 0. -1.
<scales pt_clust_5="13000.00000" pt_clust_6="13000.00000" pt_clust_7="13000.00000" pt_clust_8="13000.00000" pt_clust_9="24.30878"></scales>
<clustering>
<clus scale="   24.309">  2  9  1 -1</clus>
<clus scale="   88.987">  5  6 -1 -1</clus>
<clus scale="   91.669">  1  5  2 -1</clus>
<clus scale="   95.901">  7  8 -1 -1</clus>
<clus scale="   24.309">  2  5  1 -1</clus>
</clustering>
</event>
<event>
 9    1  0.2423659E-006  0.1943424E+03  0.7546771E-02  0.1155471E+00
          1   -1    0    0  502    0  0.00000000000E+00  0.00000000000E+00  0.33351128640E+03  0.33351128640E+03  0.00000000000E+00 0. -1.
         -1   -1    0    0    0  501 -0.00000000000E+00 -0.00000000000E+00 -0.24123097376E+03  0.24123097376E+03  0.00000000000E+00 0.  1.
         23    2    1    2    0    0  0.14468810728E+02 -0.25361100350E+03  0.55384964344E+02  0.27822337977E+03  0.99059917194E+02 0.  0.
         23    2    1    2    0    0 -0.13817580660E+02  0.12477221932E+03  0.58684224501E+02  0.16584902336E+03  0.91120953102E+02 0.  0.
        -11    1    4    4    0    0 -0.33240747604E+02  0.53626325902E+02 -0.11394804161E+02  0.64113740282E+02  0.00000000000E+00 0.  1.
         11    1    4    4    0    0  0.19423166944E+02  0.71145893418E+02  0.70079028662E+02  0.10173528308E+03  0.00000000000E+00 0. -1.
        -13    1    3    3    0    0 -0.59810672945E+01 -0.35637501857E+02 -0.26147347918E+02  0.44603682670E+02  0.00000000000E+00 0. -1.
         13    1    3    3    0    0  0.20449878023E+02 -0.21797350165E+03  0.81532312262E+02  0.23361969710E+03  0.00000000000E+00 0.  1.
         21    1    1    2  502  501 -0.65123006833E+00  0.12883878418E+03 -0.21788876204E+02  0.13066985703E+03  0.00000000000E+00 0. -1.
<scales pt_clust_5="13000.00000" pt_clust_6="13000.00000" pt_clust_7="13000.00000" pt_clust_8="13000.00000" pt_clust_9="128.84043"></scales>
<clustering>
<clus scale="   91.121">  5  6 -1 -1</clus>
<clus scale="   99.060">  7  8 -1 -1</clus>
<clus scale="  128.840">  2  9  1 -1</clus>
<clus scale="  190.418">  1  5  2 -1</clus>
<clus scale="  190.418">  1  5  2 -1</clus>
</clustering>
</event>
<event>
 9    1  0.4844649E-006  0.1367136E+03  0.7546771E-02  0.1218022E+00
          1   -1    0    0  502    0  0.00000000000E+00  0.00000000000E+00  0.65677557012E+03  0.65677557012E+03  0.00000000000E+00 0. -1.
         -1   -1    0    0    0  501 -0.00000000000E+00 -0.00000000000E+00 -0.34077386618E+03  0.34077386618E+03  0.00000000000E+00 0.  1.
         23    2    1    2    0    0  0.39395092928E+02  0.14756505139E+02  0.61320618242E+02  0.11993420999E+03  0.94097123833E+02 0.  0.
         23    2    1    2    0    0 -0.54168662792E+02 -0.11035959412E+03  0.54756491498E+03  0.56916888342E+03  0.94933648910E+02 0.  0.
        -11    1    4    4    0    0  0.36531475516E+00 -0.91372865077E+02  0.40844499635E+03  0.41854085699E+03  0.00000000000E+00 0. -1.
         11    1    4    4    0    0 -0.54533977548E+02 -0.18986729046E+02  0.13911991863E+03  0.15062802643E+03  0.00000000000E+00 0.  1.
        -11    1    3    3    0    0  0.27835621154E+02  0.54523992963E+02  0.31088572377E+02  0.68659936980E+02  0.00000000000E+00 0. -1.
         11    1    3    3    0    0  0.11559471775E+02 -0.39767487824E+02  0.30232045865E+02  0.51274273010E+02  0.00000000000E+00 0.  1.
         21    1    1    2  502  501  0.14773569864E+02  0.95603088984E+02 -0.29288382927E+03  0.30844634289E+03  0.00000000000E+00 0.  1.
<scales pt_clust_5="13000.00000" pt_clust_6="13000.00000" pt_clust_7="13000.00000" pt_clust_8="13000.00000" pt_clust_9="96.73784"></scales>
<clustering>
<clus scale="   94.097">  7  8 -1 -1</clus>
<clus scale="   94.934">  5  6 -1 -1</clus>
<clus scale="   96.738">  2  9  1 -1</clus>
<clus scale="  136.134">  2  7  1 -1</clus>
<clus scale="  136.714">  1  5  2 -1</clus>
</clustering>
</event>
<event>
 9    1  0.2423659E-006  0.9628535E+02  0.7546771E-02  0.1289301E+00
          2   -1    0    0  502    0  0.00000000000E+00  0.00000000000E+00  0.88364250368E+02  0.88364250368E+02  0.00000000000E+00 0. -1.
         -2   -1    0    0    0  501 -0.00000000000E+00 -0.00000000000E+00 -0.29104935757E+03  0.29104935757E+03  0.00000000000E+00 0.  1.
         23    2    1    2    0    0 -0.14763498503E+02  0.44642952698E+01 -0.11419167964E+03  0.14651638922E+03  0.90495424152E+02 0.  0.
         23    2    1    2    0    0  0.29403023185E+02  0.94132294275E+01  0.38206047346E+02  0.10460201881E+03  0.92351143064E+02 0.  0.
        -11    1    3    3    0    0 -0.47135877049E+02  0.60331082462E+01 -0.29740716949E+02  0.56059785452E+02  0.00000000000E+00 0. -1.
         11    1    3    3    0    0  0.32372378546E+02 -0.15688129764E+01 -0.84450962689E+02  0.90456603772E+02  0.00000000000E+00 0.  1.
        -13    1    4    4    0    0  0.29126832203E+02  0.43570006796E+02 -0.12377077100E+01  0.52423751933E+02  0.00000000000E+00 0.  1.
         13    1    4    4    0    0  0.27619098221E+00 -0.34156777368E+02  0.39443755056E+02  0.52178266880E+02  0.00000000000E+00 0. -1.
         21    1    1    2  502  501 -0.14639524683E+02 -0.13877524697E+02 -0.12669947491E+03  0.12829519990E+03  0.00000000000E+00 0. -1.
<scales pt_clust_5="13000.00000" pt_clust_6="13000.00000" pt_clust_7="13000.00000" pt_clust_8="13000.00000" pt_clust_9="20.17180"></scales>
<clustering>
<clus scale="   20.172">  2  9  1 -1</clus>
<clus scale="   90.495">  5  6 -1 -1</clus>
<clus scale="   92.351">  7  8 -1 -1</clus>
<clus scale="   94.507">  2  5  1 -1</clus>
<clus scale="   96.285">  1  5  2 -1</clus>
</clustering>
</event>
<event>
 9    1  0.2423659E-006  0.1548586E+03  0.7546771E-02  0.1213814E+00
         -1   -1    0    0    0  501 -0.00000000000E+00  0.00000000000E+00  0.52354495038E+02  0.52354495038E+02  0.00000000000E+00 0.  1.
          1   -1    0    0  502    0  0.00000000000E+00 -0.00000000000E+00 -0.98839234505E+03  0.98839234505E+03  0.00000000000E+00 0. -1.
         23    2    1    2    0    0  0.41035981294E+02  0.21976245952E+02 -0.71286228491E+02  0.12475804271E+03  0.91191752370E+02 0.  0.
         23    2    1    2    0    0  0.51417385838E+02  0.86917315636E+02 -0.22777784240E+03  0.26319401482E+03  0.84793729877E+02 0.  0.
        -11    1    4    4    0    0 -0.21390986952E+02  0.39471481327E+02 -0.81588167957E+02  0.93124654692E+02  0.00000000000E+00 0. -1.
         11    1    4    4    0    0  0.72808372790E+02  0.47445834309E+02 -0.14618967444E+03  0.17006936013E+03  0.00000000000E+00 0.  1.
        -11    1    3    3    0    0  0.65874745406E+02 -0.28981490754E+01 -0.55656330244E+02  0.86287359715E+02  0.00000000000E+00 0.  1.
         11    1    3    3    0    0 -0.24838764112E+02  0.24874395027E+02 -0.15629898248E+02  0.38470682991E+02  0.00000000000E+00 0. -1.
         21    1    1    2  502  501 -0.92453367132E+02 -0.10889356159E+03 -0.63697377912E+03  0.65279478256E+03  0.00000000000E+00 0. -1.
<scales pt_clust_5="13000.00000" pt_clust_6="13000.00000" pt_clust_7="13000.00000" pt_clust_8="13000.00000" pt_clust_9="129.58088"></scales>
<clustering>
<clus scale="   84.794">  5  6 -1 -1</clus>
<clus scale="   91.192">  7  8 -1 -1</clus>
<clus scale="  102.386">  1  7  2 -1</clus>
<clus scale="  129.581">  2  9  1 -1</clus>
<clus scale="  129.581">  2  5  1 -1</clus>
</clustering>
</event>
<event>
 9    1  0.2423659E-006  0.2362604E+03  0.7546771E-02  0.1152782E+00
         -4   -1    0    0    0  501 -0.00000000000E+00  0.00000000000E+00  0.12053277349E+03  0.12053277349E+03  0.00000000000E+00 0.  1.
          4   -1    0    0  502    0  0.00000000000E+00 -0.00000000000E+00 -0.10761092419E+04  0.10761092419E+04  0.00000000000E+00 0. -1.
         23    2    1    2    0    0 -0.21704148299E+02  0.17921816329E+03 -0.73352550670E+03  0.76091364253E+03  0.91321861042E+02 0.  0.
         23    2    1    2    0    0 -0.58516623725E+02  0.31932797917E+02 -0.16976372259E+03  0.20387916313E+03  0.91121308237E+02 0.  0.
        -11    1    4    4    0    0 -0.30473946431E+02 -0.29209564412E+02 -0.90910301146E+02  0.10023244444E+03  0.00000000000E+00 0.  1.
         11    1    4    4    0    0 -0.28042677295E+02  0.61142362329E+02 -0.78853421445E+02  0.10364671869E+03  0.00000000000E+00 0. -1.
        -11    1    3    3    0    0  0.28659677771E+02  0.74123717276E+02 -0.20904028955E+03  0.22363708379E+03  0.00000000000E+00 0.  1.
         11    1    3    3    0    0 -0.50363826071E+02  0.10509444601E+03 -0.52448521715E+03  0.53727655874E+03  0.00000000000E+00 0. -1.
         21    1    1    2  502  501  0.80220772024E+02 -0.21115096120E+03 -0.52287239138E+02  0.23184920974E+03  0.00000000000E+00 0.  1.
<scales pt_clust_5="13000.00000" pt_clust_6="13000.00000" pt_clust_7="13000.00000" pt_clust_8="13000.00000" pt_clust_9="217.89749"></scales>
<clustering>
<clus scale="   91.121">  5  6 -1 -1</clus>
<clus scale="   91.322">  7  8 -1 -1</clus>
<clus scale="  112.903">  2  5  1 -1</clus>
<clus scale="  217.897">  1  9  2 -1</clus>
<clus scale="  112.903">  2  5  1 -1</clus>
</clustering>
</event>
<event>
 9    1  0.2423659E-006  0.1536703E+03  0.7546771E-02  0.1202082E+00
          1   -1    0    0  502    0  0.00000000000E+00  0.00000000000E+00  0.57628142106E+03  0.57628142106E+03  0.00000000000E+00 0. -1.
         -1   -1    0    0    0  501 -0.00000000000E+00 -0.00000000000E+00 -0.84328345110E+02  0.84328345110E+02  0.00000000000E+00 0.  1.
         23    2    1    2    0    0  0.48400518664E+02 -0.78211277750E+02  0.24757997989E+03  0.28240128824E+03  0.99975131812E+02 0.  0.
         23    2    1    2    0    0 -0.85072707939E+02 -0.52157592424E+02  0.18852393331E+03  0.23171608647E+03  0.90516800746E+02 0.  0.
        -11    1    3    3    0    0  0.52563038351E+02  0.38572640335E+01  0.11356550965E+03  0.12519934692E+03  0.00000000000E+00 0. -1.
         11    1    3    3    0    0 -0.41625196871E+01 -0.82068541783E+02  0.13401447024E+03  0.15720194132E+03  0.00000000000E+00 0.  1.
        -13    1    4    4    0    0 -0.98301767923E+02 -0.22580244758E+02  0.12697516865E+03  0.16215979305E+03  0.00000000000E+00 0.  1.
         13    1    4    4    0    0  0.13229059985E+02 -0.29577347667E+02  0.61548764661E+02  0.69556293420E+02  0.00000000000E+00 0. -1.
         21    1    1    2  502  501  0.36672189274E+02  0.13036887017E+03  0.55849162759E+02  0.14649239147E+03  0.00000000000E+00 0.  1.
<scales pt_clust_5="13000.00000" pt_clust_6="13000.00000" pt_clust_7="13000.00000" pt_clust_8="13000.00000" pt_clust_9="116.70278"></scales>
<clustering>
<clus scale="   90.517">  7  8 -1 -1</clus>
<clus scale="   99.975">  5  6 -1 -1</clus>
<clus scale="  134.726">  1  7  2 -1</clus>
<clus scale="  116.703">  2  9  1 -1</clus>
<clus scale="  134.726">  1  5  2 -1</clus>
</clustering>
</event>
<event>
 9    1  0.2423659E-006  0.1148662E+03  0.7546771E-02  0.1252823E+00
          1   -1    0    0  502    0  0.00000000000E+00  0.00000000000E+00  0.65056902942E+03  0.65056902942E+03  0.00000000000E+00 0. -1.
         -1   -1    0    0    0  501 -0.00000000000E+00 -0.00000000000E+00 -0.38588226397E+02  0.38588226397E+02  0.00000000000E+00 0.  1.
         23    2    1    2    0    0  0.14260887274E+02  0.29173307841E+02  0.10134253559E+03  0.13983225158E+03  0.90709945802E+02 0.  0.
         23    2    1    2    0    0 -0.25349565907E+02 -0.83184981478E+02  0.45302917295E+03  0.46958149383E+03  0.87800946335E+02 0.  0.
        -11    1    4    4    0    0 -0.13345300883E+01 -0.74351257650E+02  0.42568728684E+03  0.43213372544E+03  0.00000000000E+00 0. -1.
         11    1    4    4    0    0 -0.24015035818E+02 -0.88337238276E+01  0.27341886106E+02  0.37447768396E+02  0.00000000000E+00 0.  1.
        -11    1    3    3    0    0 -0.13993986314E+02 -0.14467447467E+02  0.81883232358E+02  0.84320830348E+02  0.00000000000E+00 0. -1.
         11    1    3    3    0    0  0.28254873588E+02  0.43640755309E+02  0.19459303229E+02  0.55511421235E+02  0.00000000000E+00 0.  1.
         21    1    1    2  502  501  0.11088678632E+02  0.54011673637E+02  0.57609094491E+02  0.79743510400E+02  0.00000000000E+00 0.  1.
<scales pt_clust_5="13000.00000" pt_clust_6="13000.00000" pt_clust_7="13000.00000" pt_clust_8="13000.00000" pt_clust_9="55.13819"></scales>
<clustering>
<clus scale="   55.138">  2  9  1 -1</clus>
<clus scale="   87.801">  5  6 -1 -1</clus>
<clus scale="   90.710">  7  8 -1 -1</clus>
<clus scale="  112.583">  1  5  2 -1</clus>
<clus scale="  112.583">  1  5  2 -1</clus>
</clustering>
</event>
<event>
 9    1  0.2423659E-006  0.1046479E+03  0.7546771E-02  0.1271433E+00
          2   -1    0    0  502    0  0.00000000000E+00  0.00000000000E+00  0.31707327268E+03  0.31707327268E+03  0.00000000000E+00 0. -1.
         -2   -1    0    0    0  501 -0.00000000000E+00 -0.00000000000E+00 -0.11732560275E+03  0.11732560275E+03  0.00000000000E+00 0.  1.
         23    2    1    2    0    0 -0.70156032367E+02 -0.62978376858E+02 -0.25389680885E+02  0.13287374644E+03  0.90125755306E+02 0.  0.
         23    2    1    2    0    0  0.36041672594E+02  0.26607030370E+02  0.22985257142E+03  0.25143623108E+03  0.91548006427E+02 0.  0.
        -13    1    3    3    0    0 -0.49594118252E+01 -0.54160304130E+02  0.14043625781E+02  0.56170790756E+02  0.00000000000E+00 0. -1.
         13    1    3    3    0    0 -0.65196620542E+02 -0.88180727288E+01 -0.39433306666E+02  0.76702955688E+02  0.00000000000E+00 0.  1.
        -13    1    4    4    0    0  0.49613686893E+02 -0.12223526131E+02  0.71847240877E+02  0.88164383624E+02  0.00000000000E+00 0.  1.
         13    1    4    4    0    0 -0.13572014299E+02  0.38830556501E+02  0.15800533054E+03  0.16327184745E+03  0.00000000000E+00 0. -1.
         21    1    1    2  502  501  0.34114359773E+02  0.36371346488E+02 -0.47152206160E+01  0.50088897907E+02  0.00000000000E+00 0. -1.
<scales pt_clust_5="13000.00000" pt_clust_6="13000.00000" pt_clust_7="13000.00000" pt_clust_8="13000.00000" pt_clust_9="49.86647"></scales>
<clustering>
<clus scale="   49.866">  2  9  1 -1</clus>
<clus scale="   90.126">  5  6 -1 -1</clus>
<clus scale="   91.548">  7  8 -1 -1</clus>
<clus scale="  103.406">  2  5  1 -1</clus>
<clus scale="  104.648">  1  5  2 -1</clus>
</clustering>
</event>
<event>
 9    1  0.2423659E-006  0.9858470E+02  0.7546771E-02  0.1284391E+00
          2   -1    0    0  502    0  0.00000000000E+00  0.00000000000E+00  0.70304610001E+03  0.70304610001E+03  0.00000000000E+00 0. -1.
         -2   -1    0    0    0  501 -0.00000000000E+00 -0.00000000000E+00 -0.34440766324E+02  0.34440766324E+02  0.00000000000E+00 0.  1.
         23    2    1    2    0    0  0.51952862062E+01  0.27917454253E+02  0.16324193394E+03  0.18949932880E+03  0.91954833307E+02 0.  0.
         23    2    1    2    0    0  0.67289092700E+02 -0.89015472993E+01  0.16677773186E+03  0.20120829306E+03  0.89793684691E+02 0.  0.
        -13    1    3    3    0    0  0.17070520715E+02  0.53222117679E+02  0.14677494417E+03  0.15705693466E+03  0.00000000000E+00 0.  1.
         13    1    3    3    0    0 -0.11875234509E+02 -0.25304663426E+02  0.16466989773E+02  0.32442394146E+02  0.00000000000E+00 0. -1.
        -13    1    4    4    0    0  0.31547897343E+02  0.98152466505E+01  0.15598300845E+03  0.15944374500E+03  0.00000000000E+00 0. -1.
         13    1    4    4    0    0  0.35741195356E+02 -0.18716793950E+02  0.10794723411E+02  0.41764548062E+02  0.00000000000E+00 0.  1.
         21    1    1    2  502  501 -0.72484378906E+02 -0.19015906953E+02  0.33858566788E+03  0.34677924448E+03  0.00000000000E+00 0. -1.
<scales pt_clust_5="13000.00000" pt_clust_6="13000.00000" pt_clust_7="13000.00000" pt_clust_8="13000.00000" pt_clust_9="74.93724"></scales>
<clustering>
<clus scale="   74.937">  1  9  2 -1</clus>
<clus scale="   89.794">  7  8 -1 -1</clus>
<clus scale="   91.955">  5  6 -1 -1</clus>
<clus scale="   96.572">  1  7  2 -1</clus>
<clus scale="   74.937">  1  5  2 -1</clus>
</clustering>
</event>
<event>
 9    1  0.2423659E-006  0.2894864E+03  0.7546771E-02  0.1133900E+00
          1   -1    0    0  502    0  0.00000000000E+00  0.00000000000E+00  0.86866446829E+03  0.86866446829E+03  0.00000000000E+00 0. -1.
         -1   -1    0    0    0  501 -0.00000000000E+00 -0.00000000000E+00 -0.14925856320E+03  0.14925856320E+03  0.00000000000E+00 0.  1.
         23    2    1    2    0    0 -0.28145351715E+03  0.40944957639E+02  0.28517315798E+03  0.41247225772E+03  0.88977870769E+02 0.  0.
         23    2    1    2    0    0  0.11652879034E+02 -0.29773001534E+02  0.27618725450E+03  0.29256808862E+03  0.91073957421E+02 0.  0.
        -11    1    4    4    0    0  0.19482719647E+02  0.27590472871E+02  0.14966296124E+03  0.15342689635E+03  0.00000000000E+00 0. -1.
         11    1    4    4    0    0 -0.78298406129E+01 -0.57363474405E+02  0.12652429326E+03  0.13914119226E+03  0.00000000000E+00 0.  1.
        -13    1    3    3    0    0 -0.19608210683E+03  0.50796427049E+02  0.24418117251E+03  0.31725843508E+03  0.00000000000E+00 0.  1.
         13    1    3    3    0    0 -0.85371410319E+02 -0.98514694099E+01  0.40991985464E+02  0.95213822639E+02  0.00000000000E+00 0. -1.
         21    1    1    2  502  501  0.26980063811E+03 -0.11171956105E+02  0.15804549262E+03  0.31288268515E+03  0.00000000000E+00 0. -1.
<scales pt_clust_5="13000.00000" pt_clust_6="13000.00000" pt_clust_7="13000.00000" pt_clust_8="13000.00000" pt_clust_9="275.47285"></scales>
<clustering>
<clus scale="   88.978">  7  8 -1 -1</clus>
<clus scale="   91.074">  5  6 -1 -1</clus>
<clus scale="   96.523">  1  5  2 -1</clus>
<clus scale="  275.473">  2  9  1 -1</clus>
<clus scale="   96.523">  1  5  2 -1</clus>
</clustering>
</event>
<event>
 9    1  0.2423659E-006  0.2609344E+03  0.7546771E-02  0.1111319E+00
         -1   -1    0    0    0  501 -0.00000000000E+00  0.00000000000E+00  0.72556890177E+02  0.72556890177E+02  0.00000000000E+00 0.  1.
          1   -1    0    0  502    0  0.00000000000E+00 -0.00000000000E+00 -0.26979213768E+04  0.26979213768E+04  0.00000000000E+00 0. -1.
         23    2    1    2    0    0  0.55347274937E+02  0.20586893660E+03 -0.32498781932E+03  0.39885406415E+03  0.89566410484E+02 0.  0.
         23    2    1    2    0    0  0.16704935363E+03 -0.27376656535E+03 -0.11210295247E+04  0.11695717784E+04  0.91308984388E+02 0.  0.
        -13    1    3    3    0    0  0.79159013225E+02  0.14768793703E+03 -0.25059959774E+03  0.30145983896E+03  0.00000000000E+00 0.  1.
         13    1    3    3    0    0 -0.23811738288E+02  0.58180999578E+02 -0.74388221581E+02  0.97394225200E+02  0.00000000000E+00 0. -1.
        -13    1    4    4    0    0  0.44096928921E+02 -0.15986483834E+03 -0.56299333181E+03  0.58690953080E+03  0.00000000000E+00 0. -1.
         13    1    4    4    0    0  0.12295242471E+03 -0.11390172702E+03 -0.55803619290E+03  0.58266224757E+03  0.00000000000E+00 0.  1.
         21    1    1    2  502  501 -0.22239662857E+03  0.67897628748E+02 -0.11793471426E+04  0.12020524245E+04  0.00000000000E+00 0. -1.
<scales pt_clust_5="13000.00000" pt_clust_6="13000.00000" pt_clust_7="13000.00000" pt_clust_8="13000.00000" pt_clust_9="244.43695"></scales>
<clustering>
<clus scale="   89.566">  5  6 -1 -1</clus>
<clus scale="   91.309">  7  8 -1 -1</clus>
<clus scale="  231.230">  1  5  2 -1</clus>
<clus scale="  244.437">  2  9  1 -1</clus>
<clus scale="  244.437">  2  5  1 -1</clus>
</clustering>
</event>
<event>
 9    1  0.2423659E-006  0.1696133E+03  0.7546771E-02  0.1205916E+00
         -1   -1    0    0    0  501 -0.00000000000E+00  0.00000000000E+00  0.11558167140E+03  0.11558167140E+03  0.00000000000E+00 0.  1.
          1   -1    0    0  502    0  0.00000000000E+00 -0.00000000000E+00 -0.47607064022E+03  0.47607064022E+03  0.00000000000E+00 0. -1.
         23    2    1    2    0    0 -0.13249864426E+02 -0.10876096444E+02  0.25238079961E+02  0.95631236871E+02  0.90634013505E+02 0.  0.
         23    2    1    2    0    0  0.64673482124E+02  0.13543858133E+03 -0.23199854963E+03  0.29158856131E+03  0.93135887039E+02 0.  0.
        -11    1    4    4    0    0  0.14604068182E+02  0.47329651114E+02 -0.15942134238E+03  0.16693872854E+03  0.00000000000E+00 0. -1.
         11    1    4    4    0    0  0.50069413942E+02  0.88108930217E+02 -0.72577207248E+02  0.12464983276E+03  0.00000000000E+00 0.  1.
        -11    1    3    3    0    0  0.22733147288E+02 -0.21619513311E+02  0.43692753876E+02  0.53788995926E+02  0.00000000000E+00 0.  1.
         11    1    3    3    0    0 -0.35983011714E+02  0.10743416867E+02 -0.18454673915E+02  0.41842240945E+02  0.00000000000E+00 0. -1.
         21    1    1    2  502  501 -0.51423617698E+02 -0.12456248489E+03 -0.15372849916E+03  0.20443251344E+03  0.00000000000E+00 0. -1.
<scales pt_clust_5="13000.00000" pt_clust_6="13000.00000" pt_clust_7="13000.00000" pt_clust_8="13000.00000" pt_clust_9="141.75461"></scales>
<clustering>
<clus scale="   90.634">  7  8 -1 -1</clus>
<clus scale="   92.241">  1  7  2 -1</clus>
<clus scale="   93.136">  5  6 -1 -1</clus>
<clus scale="  141.755">  1  9  2 -1</clus>
<clus scale="  169.613">  2  5  1 -1</clus>
</clustering>
</event>
<event>
 9    1  0.2423659E-006  0.1390023E+03  0.7546771E-02  0.1218985E+00
         -1   -1    0    0    0  501 -0.00000000000E+00  0.00000000000E+00  0.10990463654E+03  0.10990463654E+03  0.00000000000E+00 0.  1.
          1   -1    0    0  502    0  0.00000000000E+00 -0.00000000000E+00 -0.50532538823E+03  0.50532538823E+03  0.00000000000E+00 0. -1.
         23    2    1    2    0    0  0.23536774467E+02 -0.43367670384E+02 -0.10956448600E+02  0.10498326961E+03  0.92014719182E+02 0.  0.
         23    2    1    2    0    0  0.18687245365E+02  0.11918927177E+03 -0.39823551430E+03  0.42237509108E+03  0.72483771072E+02 0.  0.
        -11    1    4    4    0    0 -0.20226277486E+02  0.89060506622E+02 -0.24779741017E+03  0.26409171253E+03  0.00000000000E+00 0.  1.
         11    1    4    4    0    0  0.38913522851E+02  0.30128765151E+02 -0.15043810413E+03  0.15828337855E+03  0.00000000000E+00 0. -1.
        -13    1    3    3    0    0 -0.95290624144E+01 -0.63224275439E+02  0.28891310804E+01  0.64003586726E+02  0.00000000000E+00 0.  1.
         13    1    3    3    0    0  0.33065836881E+02  0.19856605055E+02 -0.13845579681E+02  0.40979682889E+02  0.00000000000E+00 0. -1.
         21    1    1    2  502  501 -0.42224019832E+02 -0.75821601390E+02  0.13771211211E+02  0.87871664069E+02  0.00000000000E+00 0.  1.
<scales pt_clust_5="13000.00000" pt_clust_6="13000.00000" pt_clust_7="13000.00000" pt_clust_8="13000.00000" pt_clust_9="86.78585"></scales>
<clustering>
<clus scale="   72.484">  5  6 -1 -1</clus>
<clus scale="   86.786">  1  9  2 -1</clus>
<clus scale="   92.015">  7  8 -1 -1</clus>
<clus scale="  126.921">  2  5  1 -1</clus>
<clus scale="  126.921">  2  5  1 -1</clus>
</clustering>
</event>
<event>
 9    1  0.2423659E-006  0.1343822E+03  0.7546771E-02  0.1242318E+00
         -1   -1    0    0    0  501 -0.00000000000E+00  0.00000000000E+00  0.31469643714E+03  0.31469643714E+03  0.00000000000E+00 0.  1.
          1   -1    0    0  502    0  0.00000000000E+00 -0.00000000000E+00 -0.25496626487E+03  0.25496626487E+03  0.00000000000E+00 0. -1.
         23    2    1    2    0    0 -0.10066921948E+03  0.87271383540E+01 -0.15970218679E+03  0.20400360774E+03  0.76825964418E+02 0.  0.
         23    2    1    2    0    0 -0.85391784448E+01  0.10415910497E+02 -0.30685073885E+02  0.92068778732E+02  0.85753585918E+02 0.  0.
        -11    1    3    3    0    0 -0.10413171441E+02 -0.26481577560E+02 -0.50947576207E+02  0.58355493408E+02  0.00000000000E+00 0.  1.
         11    1    3    3    0    0 -0.90256048037E+02  0.35208715914E+02 -0.10875461059E+03  0.14564811433E+03  0.00000000000E+00 0. -1.
        -13    1    4    4    0    0 -0.43445441600E+02  0.22750192465E+02 -0.11500959132E+02  0.50372112463E+02  0.00000000000E+00 0. -1.
         13    1    4    4    0    0  0.34906263155E+02 -0.12334281968E+02 -0.19184114753E+02  0.41696666269E+02  0.00000000000E+00 0.  1.
         21    1    1    2  502  501  0.10920839792E+03 -0.19143048851E+02  0.25011743294E+03  0.27359031554E+03  0.00000000000E+00 0.  1.
<scales pt_clust_5="13000.00000" pt_clust_6="13000.00000" pt_clust_7="13000.00000" pt_clust_8="13000.00000" pt_clust_9="110.25583"></scales>
<clustering>
<clus scale="   76.826">  5  6 -1 -1</clus>
<clus scale="   85.754">  7  8 -1 -1</clus>
<clus scale="   86.805">  2  7  1 -1</clus>
<clus scale="  110.256">  1  9  2 -1</clus>
<clus scale="   86.805">  2  5  1 -1</clus>
</clustering>
</event>
<event>
 9    1  0.2423659E-006  0.9366966E+02  0.7546771E-02  0.1294622E+00
          1   -1    0    0  502    0  0.00000000000E+00  0.00000000000E+00  0.63325379967E+03  0.63325379967E+03  0.00000000000E+00 0. -1.
         -1   -1    0    0    0  501 -0.00000000000E+00 -0.00000000000E+00 -0.24590449738E+02  0.24590449738E+02  0.00000000000E+00 0.  1.
         23    2    1    2    0    0 -0.90055631473E+01 -0.71406623728E+00  0.14953607832E+03  0.17644404354E+03  0.93219374182E+02 0.  0.
         23    2    1    2    0    0 -0.28505897858E+02  0.19395997012E+02  0.26459477528E+03  0.28240518992E+03  0.92485162455E+02 0.  0.
        -11    1    4    4    0    0 -0.38799732062E+02 -0.28422558073E+02  0.10518275021E+03  0.11565756334E+03  0.00000000000E+00 0.  1.
         11    1    4    4    0    0  0.10293834205E+02  0.47818555085E+02  0.15941202508E+03  0.16674762659E+03  0.00000000000E+00 0. -1.
        -11    1    3    3    0    0 -0.31121310227E+02 -0.28166637492E+02  0.29411683077E+02  0.51253707371E+02  0.00000000000E+00 0.  1.
         11    1    3    3    0    0  0.22115747079E+02  0.27452571255E+02  0.12012439524E+03  0.12519033617E+03  0.00000000000E+00 0. -1.
         21    1    1    2  502  501  0.37511461005E+02 -0.18681930774E+02  0.19453249633E+03  0.19899501595E+03  0.00000000000E+00 0. -1.
<scales pt_clust_5="13000.00000" pt_clust_6="13000.00000" pt_clust_7="13000.00000" pt_clust_8="13000.00000" pt_clust_9="41.90614"></scales>
<clustering>
<clus scale="   41.906">  1  9  2 -1</clus>
<clus scale="   92.485">  5  6 -1 -1</clus>
<clus scale="   92.939">  1  5  2 -1</clus>
<clus scale="   93.219">  7  8 -1 -1</clus>
<clus scale="   41.906">  1  5  2 -1</clus>
</clustering>
</event>
<event>
 9    1  0.2423659E-006  0.1276324E+03  0.7546771E-02  0.1231618E+00
         -1   -1    0    0    0  501 -0.00000000000E+00  0.00000000000E+00  0.43049703792E+03  0.43049703792E+03  0.00000000000E+00 0.  1.
          1   -1    0    0  502    0  0.00000000000E+00 -0.00000000000E+00 -0.45243786637E+02  0.45243786637E+02  0.00000000000E+00 0. -1.
         23    2    1    2    0    0 -0.83022627977E+02  0.33704910322E+02  0.21735796554E+03  0.25337940552E+03  0.94487354828E+02 0.  0.
         23    2    1    2    0    0  0.75594871191E+02 -0.12477106440E+02  0.14079647116E+03  0.18714584038E+03  0.96590147238E+02 0.  0.
        -11    1    3    3    0    0 -0.47113776130E+02 -0.27158405626E+02  0.60560433965E+02  0.81393200327E+02  0.00000000000E+00 0. -1.
         11    1    3    3    0    0 -0.35908851847E+02  0.60863315947E+02  0.15679753158E+03  0.17198620520E+03  0.00000000000E+00 0.  1.
        -13    1    4    4    0    0  0.29274432516E+02  0.65215162529E+01  0.13316692301E+03  0.13650257125E+03  0.00000000000E+00 0.  1.
         13    1    4    4    0    0  0.46320438675E+02 -0.18998622693E+02  0.76295481540E+01  0.50643269132E+02  0.00000000000E+00 0. -1.
         21    1    1    2  502  501  0.74277567851E+01 -0.21227803881E+02  0.27098814577E+02  0.35215578655E+02  0.00000000000E+00 0. -1.
<scales pt_clust_5="13000.00000" pt_clust_6="13000.00000" pt_clust_7="13000.00000" pt_clust_8="13000.00000" pt_clust_9="22.48980"></scales>
<clustering>
<clus scale="   22.490">  2  9  1 -1</clus>
<clus scale="   94.487">  5  6 -1 -1</clus>
<clus scale="   96.590">  7  8 -1 -1</clus>
<clus scale="  126.049">  1  5  2 -1</clus>
<clus scale="   22.490">  2  5  1 -1</clus>
</clustering>
</event>
<event>
 9    1  0.2423659E-006  0.9640040E+02  0.7546771E-02  0.1290316E+00
         -3   -1    0    0    0  501 -0.00000000000E+00  0.00000000000E+00  0.69304467164E+02  0.69304467164E+02  0.00000000000E+00 0.  1.
          3   -1    0    0  502    0  0.00000000000E+00 -0.00000000000E+00 -0.26513328562E+03  0.26513328562E+03  0.00000000000E+00 0. -1.
         23    2    1    2    0    0 -0.19142957538E+01 -0.38536933305E+02 -0.35043245909E+02  0.10836066956E+03  0.95001294032E+02 0.  0.
         23    2    1    2    0    0 -0.20195301810E+02 -0.18547283055E+02 -0.76768083417E+02  0.12212334090E+03  0.90933601260E+02 0.  0.
        -11    1    4    4    0    0 -0.56118228610E+01  0.33226394330E+02 -0.54137756360E+02  0.63768193480E+02  0.00000000000E+00 0.  1.
         11    1    4    4    0    0 -0.14583478949E+02 -0.51773677385E+02 -0.22630327057E+02  0.58355147424E+02  0.00000000000E+00 0. -1.
        -11    1    3    3    0    0  0.35009318940E+02 -0.64447460261E+00 -0.42350349901E+02  0.54951068205E+02  0.00000000000E+00 0.  1.
         11    1    3    3    0    0 -0.36923614694E+02 -0.37892458702E+02  0.73071039921E+01  0.53409601359E+02  0.00000000000E+00 0. -1.
         21    1    1    2  502  501  0.22109597563E+02  0.57084216360E+02 -0.84017489126E+02  0.10395374231E+03  0.00000000000E+00 0.  1.
<scales pt_clust_5="13000.00000" pt_clust_6="13000.00000" pt_clust_7="13000.00000" pt_clust_8="13000.00000" pt_clust_9="61.21635"></scales>
<clustering>
<clus scale="   61.216">  2  9  1 -1</clus>
<clus scale="   90.934">  5  6 -1 -1</clus>
<clus scale="   92.394">  2  5  1 -1</clus>
<clus scale="   95.001">  7  8 -1 -1</clus>
<clus scale="   61.216">  2  5  1 -1</clus>
</clustering>
</event>
<event>
 9    1  0.2423659E-006  0.1124535E+03  0.7546771E-02  0.1257081E+00
          2   -1    0    0  502    0  0.00000000000E+00  0.00000000000E+00  0.57877854704E+02  0.57877854704E+02  0.00000000000E+00 0. -1.
         -2   -1    0    0    0  501 -0.00000000000E+00 -0.00000000000E+00 -0.54858114698E+03  0.54858114698E+03  0.00000000000E+00 0.  1.
         23    2    1    2    0    0  0.16100486313E+02 -0.67593229033E+02 -0.45252658163E+03  0.46715059248E+03  0.92850948818E+02 0.  0.
         23    2    1    2    0    0 -0.12071433744E+01  0.32938814541E+02 -0.23801088994E+02  0.98942599347E+02  0.90203788334E+02 0.  0.
        -11    1    4    4    0    0  0.16773519402E+02 -0.22595707799E+02 -0.28912235140E+02  0.40346428651E+02  0.00000000000E+00 0.  1.
         11    1    4    4    0    0 -0.17980662777E+02  0.55534522339E+02  0.51111461467E+01  0.58596170696E+02  0.00000000000E+00 0. -1.
        -13    1    3    3    0    0  0.19548849915E+02  0.15842855530E+02 -0.49103020365E+02  0.55174815027E+02  0.00000000000E+00 0. -1.
         13    1    3    3    0    0 -0.34483636022E+01 -0.83436084564E+02 -0.40342356127E+03  0.41197577745E+03  0.00000000000E+00 0.  1.
         21    1    1    2  502  501 -0.14893342938E+02  0.34654414492E+02 -0.14375621645E+02  0.40365809856E+02  0.00000000000E+00 0.  1.
<scales pt_clust_5="13000.00000" pt_clust_6="13000.00000" pt_clust_7="13000.00000" pt_clust_8="13000.00000" pt_clust_9="37.71923"></scales>
<clustering>
<clus scale="   37.719">  1  9  2 -1</clus>
<clus scale="   90.204">  5  6 -1 -1</clus>
<clus scale="   92.851">  7  8 -1 -1</clus>
<clus scale="  110.278">  1  5  2 -1</clus>
<clus scale="   37.719">  1  5  2 -1</clus>
</clustering>
</event>
<event>
 9    1  0.2423659E-006  0.1018912E+03  0.7546771E-02  0.1277460E+00
          4   -1    0    0  502    0  0.00000000000E+00  0.00000000000E+00  0.28215290312E+03  0.28215290312E+03  0.00000000000E+00 0. -1.
         -4   -1    0    0    0  501 -0.00000000000E+00 -0.00000000000E+00 -0.74825601364E+02  0.74825601364E+02  0.00000000000E+00 0.  1.
         23    2    1    2    0    0  0.12740851469E+02 -0.62934562406E+02  0.92201825492E+01  0.11463304363E+03  0.94512615478E+02 0.  0.
         23    2    1    2    0    0 -0.14739403909E+02  0.28634790090E+02  0.17656239961E+03  0.20179125595E+03  0.92240060661E+02 0.  0.
        -11    1    4    4    0    0  0.20275028610E+02  0.22426165546E+01  0.55685205454E+00  0.20406278405E+02  0.00000000000E+00 0.  1.
         11    1    4    4    0    0 -0.35014432520E+02  0.26392173535E+02  0.17600554756E+03  0.18138497754E+03  0.00000000000E+00 0. -1.
        -13    1    3    3    0    0 -0.27257512989E+02 -0.39596195533E+01 -0.23513278447E+02  0.36214981219E+02  0.00000000000E+00 0. -1.
         13    1    3    3    0    0  0.39998364457E+02 -0.58974942853E+02  0.32733460996E+02  0.78418062413E+02  0.00000000000E+00 0.  1.
         21    1    1    2  502  501  0.19985524406E+01  0.34299772316E+02  0.21544719597E+02  0.40554204903E+02  0.00000000000E+00 0. -1.
<scales pt_clust_5="13000.00000" pt_clust_6="13000.00000" pt_clust_7="13000.00000" pt_clust_8="13000.00000" pt_clust_9="34.35795"></scales>
<clustering>
<clus scale="   34.358">  2  9  1 -1</clus>
<clus scale="   92.240">  5  6 -1 -1</clus>
<clus scale="   94.513">  7  8 -1 -1</clus>
<clus scale="   99.787">  1  5  2 -1</clus>
<clus scale="   99.787">  1  5  2 -1</clus>
</clustering>
</event>
<event>
 9    1  0.2423659E-006  0.1867650E+03  0.7546771E-02  0.1187629E+00
          1   -1    0    0  502    0  0.00000000000E+00  0.00000000000E+00  0.37795498843E+03  0.37795498843E+03  0.00000000000E+00 0. -1.
         -1   -1    0    0    0  501 -0.00000000000E+00 -0.00000000000E+00 -0.28895906065E+03  0.28895906065E+03  0.00000000000E+00 0.  1.
         23    2    1    2    0    0 -0.39163714142E+02 -0.21830293335E+02 -0.18792278667E+03  0.21430246165E+03  0.92737333960E+02 0.  0.
         23    2    1    2    0    0 -0.11903041849E+03 -0.64561339939E+02  0.68066598332E+02  0.17673461429E+03  0.90915647397E+02 0.  0.
        -11    1    4    4    0    0 -0.70544486751E+02 -0.70477218345E+02  0.90514706378E+01  0.10012737906E+03  0.00000000000E+00 0.  1.
         11    1    4    4    0    0 -0.48485931735E+02  0.59158784065E+01  0.59015127694E+02  0.76607235235E+02  0.00000000000E+00 0. -1.
        -13    1    3    3    0    0 -0.67008475966E+02 -0.28204429248E+02 -0.15126372531E+03  0.16782830594E+03  0.00000000000E+00 0.  1.
         13    1    3    3    0    0  0.27844761824E+02  0.63741359134E+01 -0.36659061357E+02  0.46474155713E+02  0.00000000000E+00 0. -1.
         21    1    1    2  502  501  0.15819413263E+03  0.86391633273E+02  0.20885211611E+03  0.27587697313E+03  0.00000000000E+00 0. -1.
<scales pt_clust_5="13000.00000" pt_clust_6="13000.00000" pt_clust_7="13000.00000" pt_clust_8="13000.00000" pt_clust_9="163.14266"></scales>
<clustering>
<clus scale="   90.916">  5  6 -1 -1</clus>
<clus scale="   92.737">  7  8 -1 -1</clus>
<clus scale="  103.008">  2  7  1 -1</clus>
<clus scale="  163.143">  1  9  2 -1</clus>
<clus scale="  163.143">  1  5  2 -1</clus>
</clustering>
</event>
<event>
 9    1  0.2423659E-006  0.1044513E+03  0.7546771E-02  0.1271760E+00
         -1   -1    0    0    0  501 -0.00000000000E+00  0.00000000000E+00  0.26839732949E+03  0.26839732949E+03  0.00000000000E+00 0.  1.
          1   -1    0    0  502    0  0.00000000000E+00 -0.00000000000E+00 -0.77615611999E+02  0.77615611999E+02  0.00000000000E+00 0. -1.
         23    2    1    2    0    0  0.34001419295E+02  0.38154274593E+02  0.11268268446E+03  0.15414162113E+03  0.91926094240E+02 0.  0.
         23    2    1    2    0    0 -0.33710515337E+01 -0.53815091783E+02  0.10451957644E+03  0.14849476289E+03  0.90658285082E+02 0.  0.
        -11    1    4    4    0    0  0.41867801287E+02 -0.25825762565E+02  0.32501676920E+02  0.58959662476E+02  0.00000000000E+00 0.  1.
         11    1    4    4    0    0 -0.45238852821E+02 -0.27989329218E+02  0.72017899518E+02  0.89535100411E+02  0.00000000000E+00 0. -1.
        -13    1    3    3    0    0 -0.17339231413E+02  0.44046446249E+02  0.28179365469E+02  0.55089155116E+02  0.00000000000E+00 0. -1.
         13    1    3    3    0    0  0.51340650709E+02 -0.58921716556E+01  0.84503318993E+02  0.99052466011E+02  0.00000000000E+00 0.  1.
         21    1    1    2  502  501 -0.30630367762E+02  0.15660817189E+02 -0.26420543410E+02  0.43376557474E+02  0.00000000000E+00 0. -1.
<scales pt_clust_5="13000.00000" pt_clust_6="13000.00000" pt_clust_7="13000.00000" pt_clust_8="13000.00000" pt_clust_9="34.40175"></scales>
<clustering>
<clus scale="   34.402">  2  9  1 -1</clus>
<clus scale="   90.658">  5  6 -1 -1</clus>
<clus scale="   91.926">  7  8 -1 -1</clus>
<clus scale="  103.337">  2  5  1 -1</clus>
<clus scale="   34.402">  2  5  1 -1</clus>
</clustering>
</event>
<event>
 9    1  0.2423659E-006  0.1111356E+03  0.7546771E-02  0.1261846E+00
          1   -1    0    0  502    0  0.00000000000E+00  0.00000000000E+00  0.34992423762E+03  0.34992423762E+03  0.00000000000E+00 0. -1.
         -1   -1    0    0    0  501 -0.00000000000E+00 -0.00000000000E+00 -0.10970576823E+03  0.10970576823E+03  0.00000000000E+00 0.  1.
         23    2    1    2    0    0 -0.26465468904E+02 -0.46401454133E+02 -0.55486119404E+02  0.12551333808E+03  0.99102838504E+02 0.  0.
         23    2    1    2    0    0 -0.17332524159E+02  0.39136732253E+02  0.25400776399E+03  0.27320964372E+03  0.91057482125E+02 0.  0.
        -11    1    4    4    0    0  0.37540831666E+02  0.18069422804E+02  0.97518393897E+02  0.10604553376E+03  0.00000000000E+00 0.  1.
         11    1    4    4    0    0 -0.54873355826E+02  0.21067309449E+02  0.15648937009E+03  0.16716410996E+03  0.00000000000E+00 0. -1.
        -13    1    3    3    0    0  0.32988769251E+02 -0.34034211929E+02 -0.41950184917E+02  0.63296164915E+02  0.00000000000E+00 0.  1.
         13    1    3    3    0    0 -0.59454238154E+02 -0.12367242204E+02 -0.13535934487E+02  0.62217173165E+02  0.00000000000E+00 0. -1.
         21    1    1    2  502  501  0.43797993063E+02  0.72647218795E+01  0.41696824809E+02  0.60907024057E+02  0.00000000000E+00 0.  1.
<scales pt_clust_5="13000.00000" pt_clust_6="13000.00000" pt_clust_7="13000.00000" pt_clust_8="13000.00000" pt_clust_9="44.39640"></scales>
<clustering>
<clus scale="   44.396">  1  9  2 -1</clus>
<clus scale="   91.057">  5  6 -1 -1</clus>
<clus scale="   99.103">  7  8 -1 -1</clus>
<clus scale="  104.025">  1  5  2 -1</clus>
<clus scale="   44.396">  1  5  2 -1</clus>
</clustering>
</event>
<event>
 9    1  0.2423659E-006  0.9668879E+02  0.7546771E-02  0.1289619E+00
         -1   -1    0    0    0  501 -0.00000000000E+00  0.00000000000E+00  0.12992674083E+03  0.12992674083E+03  0.00000000000E+00 0.  1.
          1   -1    0    0  502    0  0.00000000000E+00 -0.00000000000E+00 -0.31878282305E+03  0.31878282305E+03  0.00000000000E+00 0. -1.
         23    2    1    2    0    0  0.14574012553E+02  0.23473139237E+02  0.26453505932E+02  0.97181732142E+02  0.89337063856E+02 0.  0.
         23    2    1    2    0    0  0.21526698027E+02 -0.26246748258E+02  0.29810241432E+02  0.10374832277E+03  0.93395789309E+02 0.  0.
        -11    1    4    4    0    0 -0.13189555191E+02  0.28406425116E+02 -0.24397410434E+01  0.31414036518E+02  0.00000000000E+00 0. -1.
         11    1    4    4    0    0  0.34716253218E+02 -0.54653173374E+02  0.32249982475E+02  0.72334286248E+02  0.00000000000E+00 0.  1.
        -13    1    3    3    0    0 -0.12494817607E+02 -0.27062990715E+02  0.26452011884E+02  0.39852664480E+02  0.00000000000E+00 0.  1.
         13    1    3    3    0    0  0.27068830160E+02  0.50536129952E+02  0.14940484614E-02  0.57329067661E+02  0.00000000000E+00 0. -1.
         21    1    1    2  502  501 -0.36100710580E+02  0.27736090211E+01 -0.24511982959E+03  0.24777950898E+03  0.00000000000E+00 0. -1.
<scales pt_clust_5="13000.00000" pt_clust_6="13000.00000" pt_clust_7="13000.00000" pt_clust_8="13000.00000" pt_clust_9="36.20710"></scales>
<clustering>
<clus scale="   36.207">  2  9  1 -1</clus>
<clus scale="   89.337">  7  8 -1 -1</clus>
<clus scale="   92.774">  1  7  2 -1</clus>
<clus scale="   93.396">  5  6 -1 -1</clus>
<clus scale="   36.207">  2  5  1 -1</clus>
</clustering>
</event>
<event>
 9    1  0.2423659E-006  0.1050792E+03  0.7546771E-02  0.1272831E+00
          1   -1    0    0  502    0  0.00000000000E+00  0.00000000000E+00  0.14483502005E+03  0.14483502005E+03  0.00000000000E+00 0. -1.
         -1   -1    0    0    0  501 -0.00000000000E+00 -0.00000000000E+00 -0.10371195528E+03  0.10371195528E+03  0.00000000000E+00 0.  1.
         23    2    1    2    0    0  0.20022943984E+02 -0.41754034323E+02 -0.16023395714E+02  0.10513959206E+03  0.93022937708E+02 0.  0.
         23    2    1    2    0    0 -0.46144361445E+02  0.34482295628E+02  0.49864916758E+02  0.11533199347E+03  0.86583069879E+02 0.  0.
        -11    1    4    4    0    0 -0.49562399997E+02  0.14361540332E+02  0.69799764468E+02  0.86802606263E+02  0.00000000000E+00 0.  1.
         11    1    4    4    0    0  0.34180385525E+01  0.20120755296E+02 -0.19934847710E+02  0.28529387208E+02  0.00000000000E+00 0. -1.
        -13    1    3    3    0    0  0.56486538580E+02 -0.14302753800E+02 -0.88196530924E+01  0.58932877816E+02  0.00000000000E+00 0. -1.
         13    1    3    3    0    0 -0.36463594596E+02 -0.27451280523E+02 -0.72037426220E+01  0.46206714241E+02  0.00000000000E+00 0.  1.
         21    1    1    2  502  501  0.26121417461E+02  0.72717386942E+01  0.72815437291E+01  0.28075389808E+02  0.00000000000E+00 0. -1.
<scales pt_clust_5="13000.00000" pt_clust_6="13000.00000" pt_clust_7="13000.00000" pt_clust_8="13000.00000" pt_clust_9="27.11469"></scales>
<clustering>
<clus scale="   27.115">  1  9  2 -1</clus>
<clus scale="   86.583">  5  6 -1 -1</clus>
<clus scale="   93.023">  7  8 -1 -1</clus>
<clus scale="   99.423">  1  5  2 -1</clus>
<clus scale="   27.115">  1  5  2 -1</clus>
</clustering>
</event>
<event>
 9    1  0.2423659E-006  0.9071200E+02  0.7546771E-02  0.1310354E+00
         -1   -1    0    0    0  501 -0.00000000000E+00  0.00000000000E+00  0.37078550537E+03  0.37078550537E+03  0.00000000000E+00 0.  1.
          1   -1    0    0  502    0  0.00000000000E+00 -0.00000000000E+00 -0.75677759888E+02  0.75677759888E+02  0.00000000000E+00 0. -1.
         23    2    1    2    0    0 -0.20873234349E+01 -0.20914581057E+01  0.30418901524E+03  0.31735217831E+03  0.90403080550E+02 0.  0.
         23    2    1    2    0    0  0.35843096988E+02 -0.63315299165E+01  0.16252060634E+02  0.86074165535E+02  0.76287722636E+02 0.  0.
        -11    1    4    4    0    0  0.11405889634E+02 -0.36213771450E+02  0.26298694449E+02  0.46186068145E+02  0.00000000000E+00 0.  1.
         11    1    4    4    0    0  0.24437207354E+02  0.29882241534E+02 -0.10046633815E+02  0.39888097390E+02  0.00000000000E+00 0. -1.
        -13    1    3    3    0    0 -0.20252704980E+02  0.39810597496E+02  0.15841193853E+03  0.16458857190E+03  0.00000000000E+00 0.  1.
         13    1    3    3    0    0  0.18165381545E+02 -0.41902055602E+02  0.14577707671E+03  0.15276360641E+03  0.00000000000E+00 0. -1.
         21    1    1    2  502  501 -0.33755773553E+02  0.84229880222E+01 -0.25333330392E+02  0.43036921406E+02  0.00000000000E+00 0. -1.
<scales pt_clust_5="13000.00000" pt_clust_6="13000.00000" pt_clust_7="13000.00000" pt_clust_8="13000.00000" pt_clust_9="34.79079"></scales>
<clustering>
<clus scale="   34.791">  2  9  1 -1</clus>
<clus scale="   76.288">  5  6 -1 -1</clus>
<clus scale="   76.654">  2  5  1 -1</clus>
<clus scale="   90.403">  7  8 -1 -1</clus>
<clus scale="   34.791">  2  5  1 -1</clus>
</clustering>
</event>
<event>
 9    1  0.2423659E-006  0.1001126E+03  0.7546771E-02  0.1281586E+00
          1   -1    0    0  502    0  0.00000000000E+00  0.00000000000E+00  0.32852750684E+03  0.32852750684E+03  0.00000000000E+00 0. -1.
         -1   -1    0    0    0  501 -0.00000000000E+00 -0.00000000000E+00 -0.65602950684E+02  0.65602950684E+02  0.00000000000E+00 0.  1.
         23    2    1    2    0    0 -0.10751740611E+02 -0.15498490610E+02  0.47364486847E+02  0.10451342960E+03  0.91235186282E+02 0.  0.
         23    2    1    2    0    0  0.50310413999E+02  0.17089952125E+02  0.49684175764E+02  0.11908188946E+03  0.94280299404E+02 0.  0.
        -11    1    4    4    0    0 -0.83723283695E+01  0.40126142796E+02  0.36037784638E+02  0.54579530408E+02  0.00000000000E+00 0. -1.
         11    1    4    4    0    0  0.58682742369E+02 -0.23036190671E+02  0.13646391126E+02  0.64502359052E+02  0.00000000000E+00 0.  1.
        -13    1    3    3    0    0 -0.41861832778E+02  0.19621449907E+02  0.24447826929E+02  0.52298284690E+02  0.00000000000E+00 0. -1.
         13    1    3    3    0    0  0.31110092166E+02 -0.35119940518E+02  0.22916659918E+02  0.52215144914E+02  0.00000000000E+00 0.  1.
         21    1    1    2  502  501 -0.39558673388E+02 -0.15914615145E+01  0.16587589355E+03  0.17053513846E+03  0.00000000000E+00 0. -1.
<scales pt_clust_5="13000.00000" pt_clust_6="13000.00000" pt_clust_7="13000.00000" pt_clust_8="13000.00000" pt_clust_9="39.59067"></scales>
<clustering>
<clus scale="   39.591">  1  9  2 -1</clus>
<clus scale="   91.235">  7  8 -1 -1</clus>
<clus scale="   94.280">  5  6 -1 -1</clus>
<clus scale="   97.250">  2  7  1 -1</clus>
<clus scale="   39.591">  1  5  2 -1</clus>
</clustering>
</event>
<event>
 9    1  0.2423659E-006  0.9541093E+02  0.7546771E-02  0.1290370E+00
         -2   -1    0    0    0  501 -0.00000000000E+00  0.00000000000E+00  0.41905442196E+03  0.41905442196E+03  0.00000000000E+00 0.  1.
          2   -1    0    0  502    0  0.00000000000E+00 -0.00000000000E+00 -0.92031625737E+02  0.92031625737E+02  0.00000000000E+00 0. -1.
         23    2    1    2    0    0 -0.19629179762E+02 -0.26976122294E+02  0.43791330193E+02  0.10628197275E+03  0.90912932304E+02 0.  0.
         23    2    1    2    0    0  0.20201332320E+02 -0.54680125993E+02 -0.22888362066E+01  0.10783620929E+03  0.90693986880E+02 0.  0.
        -13    1    4    4    0    0 -0.30795601486E+01  0.21045367002E+02  0.15895134894E+02  0.26552711279E+02  0.00000000000E+00 0. -1.
         13    1    4    4    0    0  0.23280892468E+02 -0.75725492995E+02 -0.18183971101E+02  0.81283498008E+02  0.00000000000E+00 0.  1.
        -13    1    3    3    0    0  0.14141144076E+02 -0.42347164577E+02  0.51736579967E+02  0.68336871528E+02  0.00000000000E+00 0.  1.
         13    1    3    3    0    0 -0.33770323838E+02  0.15371042283E+02 -0.79452497749E+01  0.37945101225E+02  0.00000000000E+00 0. -1.
         21    1    1    2  502  501 -0.57215255813E+00  0.81656248287E+02  0.28552030223E+03  0.29696786565E+03  0.00000000000E+00 0.  1.
<scales pt_clust_5="13000.00000" pt_clust_6="13000.00000" pt_clust_7="13000.00000" pt_clust_8="13000.00000" pt_clust_9="81.65825"></scales>
<clustering>
<clus scale="   81.658">  1  9  2 -1</clus>
<clus scale="   90.694">  5  6 -1 -1</clus>
<clus scale="   90.913">  7  8 -1 -1</clus>
<clus scale="   95.202">  2  5  1 -1</clus>
<clus scale="   95.202">  2  5  1 -1</clus>
</clustering>
</event>
<event>
 9    1  0.2423659E-006  0.1029596E+03  0.7546771E-02  0.1275019E+00
         -1   -1    0    0    0  501 -0.00000000000E+00  0.00000000000E+00  0.36292227097E+03  0.36292227097E+03  0.00000000000E+00 0.  1.
          1   -1    0    0  502    0  0.00000000000E+00 -0.00000000000E+00 -0.80344023751E+02  0.80344023751E+02  0.00000000000E+00 0. -1.
         23    2    1    2    0    0  0.61550187749E+02  0.30309093999E+02  0.64727728737E+02  0.13436691126E+03  0.95695983104E+02 0.  0.
         23    2    1    2    0    0  0.18140444445E+01 -0.31232554105E+02  0.19832900642E+02  0.10098869188E+03  0.93950033243E+02 0.  0.
        -11    1    4    4    0    0 -0.25817624387E+02 -0.49086011820E+02  0.34126599269E+02  0.65119974378E+02  0.00000000000E+00 0.  1.
         11    1    4    4    0    0  0.27631668831E+02  0.17853457715E+02 -0.14293698626E+02  0.35868717501E+02  0.00000000000E+00 0. -1.
        -13    1    3    3    0    0  0.20737494127E+02  0.62430204443E+02  0.37614328754E+02  0.75778702926E+02  0.00000000000E+00 0.  1.
         13    1    3    3    0    0  0.40812693623E+02 -0.32121110444E+02  0.27113399983E+02  0.58588208332E+02  0.00000000000E+00 0. -1.
         21    1    1    2  502  501 -0.63364232194E+02  0.92346010551E+00  0.19801761784E+03  0.20791069158E+03  0.00000000000E+00 0.  1.
<scales pt_clust_5="13000.00000" pt_clust_6="13000.00000" pt_clust_7="13000.00000" pt_clust_8="13000.00000" pt_clust_9="63.37096"></scales>
<clustering>
<clus scale="   63.371">  1  9  2 -1</clus>
<clus scale="   93.950">  5  6 -1 -1</clus>
<clus scale="   95.696">  7  8 -1 -1</clus>
<clus scale="  101.339">  2  5  1 -1</clus>
<clus scale="  101.339">  2  5  1 -1</clus>
</clustering>
</event>
<event>
 9    1  0.2423659E-006  0.9215768E+02  0.7546771E-02  0.1298620E+00
          2   -1    0    0  502    0  0.00000000000E+00  0.00000000000E+00  0.45393905941E+02  0.45393905941E+02  0.00000000000E+00 0. -1.
         -2   -1    0    0    0  501 -0.00000000000E+00 -0.00000000000E+00 -0.29369214871E+03  0.29369214871E+03  0.00000000000E+00 0.  1.
         23    2    1    2    0    0  0.16492457194E+02  0.38219151756E+01 -0.12166619443E+03  0.15283060380E+03  0.90928116727E+02 0.  0.
         23    2    1    2    0    0  0.15616232778E+02 -0.28387708699E+02 -0.99230685165E+02  0.13741611335E+03  0.89368510110E+02 0.  0.
        -11    1    4    4    0    0 -0.34986831935E+02  0.74147918763E+00 -0.50076207764E+02  0.61092182677E+02  0.00000000000E+00 0. -1.
         11    1    4    4    0    0  0.50603064713E+02 -0.29129187887E+02 -0.49154477401E+02  0.76323930676E+02  0.00000000000E+00 0.  1.
        -13    1    3    3    0    0  0.50968576132E+02 -0.14426052589E+02 -0.77905898454E+02  0.94208469684E+02  0.00000000000E+00 0.  1.
         13    1    3    3    0    0 -0.34476118939E+02  0.18247967765E+02 -0.43760295977E+02  0.58622134119E+02  0.00000000000E+00 0. -1.
         21    1    1    2  502  501 -0.32108689972E+02  0.24565793524E+02 -0.27401363173E+02  0.48839337495E+02  0.00000000000E+00 0. -1.
<scales pt_clust_5="13000.00000" pt_clust_6="13000.00000" pt_clust_7="13000.00000" pt_clust_8="13000.00000" pt_clust_9="40.42828"></scales>
<clustering>
<clus scale="   40.428">  1  9  2 -1</clus>
<clus scale="   89.369">  5  6 -1 -1</clus>
<clus scale="   90.619">  1  5  2 -1</clus>
<clus scale="   90.928">  7  8 -1 -1</clus>
<clus scale="   40.428">  1  5  2 -1</clus>
</clustering>
</event>
<event>
 9    1  0.2423659E-006  0.9411720E+02  0.7546771E-02  0.1296012E+00
         -2   -1    0    0    0  501 -0.00000000000E+00  0.00000000000E+00  0.50984808626E+03  0.50984808626E+03  0.00000000000E+00 0.  1.
          2   -1    0    0  502    0  0.00000000000E+00 -0.00000000000E+00 -0.37820624444E+02  0.37820624444E+02  0.00000000000E+00 0. -1.
         23    2    1    2    0    0  0.27222348423E+02 -0.15702597804E+02  0.26268159283E+03  0.27995677072E+03  0.91578089231E+02 0.  0.
         23    2    1    2    0    0 -0.15992750216E+02 -0.11513502656E+02  0.21932382078E+03  0.23662529459E+03  0.86604058078E+02 0.  0.
        -11    1    3    3    0    0  0.34941246563E+02 -0.49967806611E+02  0.14968059152E+03  0.16162286932E+03  0.00000000000E+00 0. -1.
         11    1    3    3    0    0 -0.77188981401E+01  0.34265208808E+02  0.11300100131E+03  0.11833390140E+03  0.00000000000E+00 0.  1.
        -13    1    4    4    0    0  0.19829722077E+02  0.12382049691E+02  0.14916359412E+02  0.27731404766E+02  0.00000000000E+00 0. -1.
         13    1    4    4    0    0 -0.35822472292E+02 -0.23895552347E+02  0.20440746137E+03  0.20889388982E+03  0.00000000000E+00 0.  1.
         21    1    1    2  502  501 -0.11229598207E+02  0.27216100460E+02 -0.99779517924E+01  0.31086645398E+02  0.00000000000E+00 0. -1.
<scales pt_clust_5="13000.00000" pt_clust_6="13000.00000" pt_clust_7="13000.00000" pt_clust_8="13000.00000" pt_clust_9="29.44181"></scales>
<clustering>
<clus scale="   29.442">  2  9  1 -1</clus>
<clus scale="   86.604">  7  8 -1 -1</clus>
<clus scale="   89.285">  2  7  1 -1</clus>
<clus scale="   91.578">  5  6 -1 -1</clus>
<clus scale="   29.442">  2  5  1 -1</clus>
</clustering>
</event>
<event>
 9    1  0.3373659E-006  0.1062862E+03  0.7546771E-02  0.1269527E+00
          1   -1    0    0  502    0  0.00000000000E+00  0.00000000000E+00  0.37010285125E+03  0.37010285125E+03  0.00000000000E+00 0. -1.
         -1   -1    0    0    0  501 -0.00000000000E+00 -0.00000000000E+00 -0.21109856412E+03  0.21109856412E+03  0.00000000000E+00 0.  1.
         23    2    1    2    0    0  0.39260820852E+02 -0.13736398612E+02 -0.14698351483E+03  0.17814561208E+03  0.91660268212E+02 0.  0.
         23    2    1    2    0    0 -0.41098606971E+02  0.10041655442E+03  0.90567838179E+02  0.17084342708E+03  0.95981057336E+02 0.  0.
        -11    1    4    4    0    0 -0.56268806638E+02  0.67466909756E+02  0.17945980478E+02  0.89666162669E+02  0.00000000000E+00 0.  1.
         11    1    4    4    0    0  0.15170199666E+02  0.32949644668E+02  0.72621857700E+02  0.81177264413E+02  0.00000000000E+00 0. -1.
        -13    1    3    3    0    0 -0.20870425649E+02  0.22199580728E+02 -0.48881527474E+02  0.57600345307E+02  0.00000000000E+00 0.  1.
         13    1    3    3    0    0  0.60131246501E+02 -0.35935979340E+02 -0.98101987360E+02  0.12054526677E+03  0.00000000000E+00 0. -1.
         21    1    1    2  502  501  0.18377861189E+01 -0.86680155812E+02  0.21541996379E+03  0.23221237622E+03  0.00000000000E+00 0. -1.
<scales pt_clust_5="13000.00000" pt_clust_6="13000.00000" pt_clust_7="13000.00000" pt_clust_8="13000.00000" pt_clust_9="86.69964"></scales>
<clustering>
<clus scale="   86.700">  1  9  2 -1</clus>
<clus scale="   91.660">  7  8 -1 -1</clus>
<clus scale="   95.981">  5  6 -1 -1</clus>
<clus scale="  102.401">  2  7  1 -1</clus>
<clus scale="   86.700">  1  5  2 -1</clus>
</clustering>
</event>
<event>
 9    1  0.2423659E-006  0.1272057E+03  0.7546771E-02  0.1234063E+00
          2   -1    0    0  502    0  0.00000000000E+00  0.00000000000E+00  0.43523767509E+03  0.43523767509E+03  0.00000000000E+00 0. -1.
         -2   -1    0    0    0  501 -0.00000000000E+00 -0.00000000000E+00 -0.42605349451E+02  0.42605349451E+02  0.00000000000E+00 0.  1.
         23    2    1    2    0    0 -0.37505837736E+02 -0.64217684268E+02  0.13608073278E+03  0.18149193764E+03  0.94290820109E+02 0.  0.
         23    2    1    2    0    0  0.39573705534E+02  0.84607182562E+02  0.23152059086E+03  0.26400052618E+03  0.85848938964E+02 0.  0.
        -11    1    3    3    0    0  0.31381495041E+02 -0.13681993353E+02  0.32284750265E+02  0.47056352098E+02  0.00000000000E+00 0. -1.
         11    1    3    3    0    0 -0.68887332777E+02 -0.50535690915E+02  0.10379598251E+03  0.13443558554E+03  0.00000000000E+00 0.  1.
        -13    1    4    4    0    0  0.61433013893E+01  0.75932882303E+02  0.88051460382E+02  0.11643282373E+03  0.00000000000E+00 0.  1.
         13    1    4    4    0    0  0.33430404144E+02  0.86743002587E+01  0.14346913047E+03  0.14756770244E+03  0.00000000000E+00 0. -1.
         21    1    1    2  502  501 -0.20678677977E+01 -0.20389498294E+02  0.25031002008E+02  0.32350560728E+02  0.00000000000E+00 0.  1.
<scales pt_clust_5="13000.00000" pt_clust_6="13000.00000" pt_clust_7="13000.00000" pt_clust_8="13000.00000" pt_clust_9="20.49409"></scales>
<clustering>
<clus scale="   20.494">  2  9  1 -1</clus>
<clus scale="   85.849">  7  8 -1 -1</clus>
<clus scale="   94.291">  5  6 -1 -1</clus>
<clus scale="  121.081">  1  7  2 -1</clus>
<clus scale="  121.081">  1  5  2 -1</clus>
</clustering>
</event>
<event>
 9    1  0.2423659E-006  0.1489591E+03  0.7546771E-02  0.1201767E+00
         -1   -1    0    0    0  501 -0.00000000000E+00  0.00000000000E+00  0.26491474929E+02  0.26491474929E+02  0.00000000000E+00 0.  1.
          1   -1    0    0  502    0  0.00000000000E+00 -0.00000000000E+00 -0.11792493522E+04  0.11792493522E+04  0.00000000000E+00 0. -1.
         23    2    1    2    0    0  0.36034992562E+02 -0.10426814367E+03 -0.41232482232E+03  0.43646761593E+03  0.91224197349E+02 0.  0.
         23    2    1    2    0    0 -0.61159863106E+02  0.10725727923E+03 -0.72153972147E+03  0.73769549593E+03  0.91271146889E+02 0.  0.
        -13    1    4    4    0    0 -0.84909370798E+02  0.81010895808E+02 -0.52076508969E+03  0.53382454526E+03  0.00000000000E+00 0. -1.
         13    1    4    4    0    0  0.23749507692E+02  0.26246383421E+02 -0.20077463179E+03  0.20387095067E+03  0.00000000000E+00 0.  1.
        -13    1    3    3    0    0  0.53342826482E+02 -0.30664037312E+02 -0.12445958644E+03  0.13883777936E+03  0.00000000000E+00 0.  1.
         13    1    3    3    0    0 -0.17307833921E+02 -0.73604106359E+02 -0.28786523588E+03  0.29762983657E+03  0.00000000000E+00 0. -1.
         21    1    1    2  502  501  0.25124870544E+02 -0.29891355581E+01 -0.18893333471E+02  0.31577715257E+02  0.00000000000E+00 0.  1.
<scales pt_clust_5="13000.00000" pt_clust_6="13000.00000" pt_clust_7="13000.00000" pt_clust_8="13000.00000" pt_clust_9="25.30206"></scales>
<clustering>
<clus scale="   25.302">  1  9  2 -1</clus>
<clus scale="   91.224">  7  8 -1 -1</clus>
<clus scale="   91.271">  5  6 -1 -1</clus>
<clus scale="  148.930">  1  7  2 -1</clus>
<clus scale="  148.959">  2  5  1 -1</clus>
</clustering>
</event>
<event>
 9    1  0.2423659E-006  0.1201870E+03  0.7546771E-02  0.1243276E+00
          2   -1    0    0  502    0  0.00000000000E+00  0.00000000000E+00  0.75279679731E+02  0.75279679731E+02  0.00000000000E+00 0. -1.
         -2   -1    0    0    0  501 -0.00000000000E+00 -0.00000000000E+00 -0.76993129079E+03  0.76993129079E+03  0.00000000000E+00 0.  1.
         23    2    1    2    0    0  0.10545767222E+03  0.93144392049E+02 -0.49006727403E+03  0.51849480007E+03  0.94200457664E+02 0.  0.
         23    2    1    2    0    0 -0.35103972996E+01 -0.69964260085E+02 -0.24893877432E+02  0.11882382656E+03  0.92693452010E+02 0.  0.
        -13    1    4    4    0    0  0.22734461347E+02 -0.65794183949E+02  0.14692646850E+02  0.71144952355E+02  0.00000000000E+00 0. -1.
         13    1    4    4    0    0 -0.26244858647E+02 -0.41700761363E+01 -0.39586524282E+02  0.47678874202E+02  0.00000000000E+00 0.  1.
        -13    1    3    3    0    0  0.12239139724E+03  0.74870229189E+02 -0.43508972149E+03  0.45813564703E+03  0.00000000000E+00 0.  1.
         13    1    3    3    0    0 -0.16933725030E+02  0.18274162860E+02 -0.54977552542E+02  0.60359153035E+02  0.00000000000E+00 0. -1.
         21    1    1    2  502  501 -0.10194727492E+03 -0.23180131964E+02 -0.17969045960E+03  0.20789234390E+03  0.00000000000E+00 0. -1.
<scales pt_clust_5="13000.00000" pt_clust_6="13000.00000" pt_clust_7="13000.00000" pt_clust_8="13000.00000" pt_clust_9="104.54934"></scales>
<clustering>
<clus scale="   92.693">  5  6 -1 -1</clus>
<clus scale="   94.200">  7  8 -1 -1</clus>
<clus scale="  104.549">  2  9  1 -1</clus>
<clus scale="  119.009">  1  5  2 -1</clus>
<clus scale="  119.009">  1  5  2 -1</clus>
</clustering>
</event>
<event>
 9    1  0.2423659E-006  0.1157936E+03  0.7546771E-02  0.1256522E+00
          2   -1    0    0  502    0  0.00000000000E+00  0.00000000000E+00  0.20807776225E+03  0.20807776225E+03  0.00000000000E+00 0. -1.
         -2   -1    0    0    0  501 -0.00000000000E+00 -0.00000000000E+00 -0.20848209693E+03  0.20848209693E+03  0.00000000000E+00 0.  1.
         23    2    1    2    0    0 -0.30543392198E+02 -0.20234481777E+02 -0.56753207927E+02  0.11390938189E+03  0.91717433532E+02 0.  0.
         23    2    1    2    0    0  0.62398000877E+02 -0.37651877468E+02 -0.79400881443E+02  0.15167517276E+03  0.10672246093E+03 0.  0.
        -11    1    4    4    0    0  0.30227738632E+02 -0.55274215078E+02  0.13173613749E+01  0.63013415050E+02  0.00000000000E+00 0. -1.
         11    1    4    4    0    0  0.32170262245E+02  0.17622337610E+02 -0.80718242818E+02  0.88661757705E+02  0.00000000000E+00 0.  1.
        -11    1    3    3    0    0 -0.42411804156E+02 -0.49264493269E+02 -0.26084249562E+02  0.70043839872E+02  0.00000000000E+00 0. -1.
         11    1    3    3    0    0  0.11868411958E+02  0.29030011492E+02 -0.30668958365E+02  0.43865542022E+02  0.00000000000E+00 0.  1.
         21    1    1    2  502  501 -0.31854608679E+02  0.57886359245E+02  0.13574975468E+03  0.15097530453E+03  0.00000000000E+00 0. -1.
<scales pt_clust_5="13000.00000" pt_clust_6="13000.00000" pt_clust_7="13000.00000" pt_clust_8="13000.00000" pt_clust_9="66.07228"></scales>
<clustering>
<clus scale="   66.072">  1  9  2 -1</clus>
<clus scale="   91.717">  7  8 -1 -1</clus>
<clus scale="  102.130">  2  7  1 -1</clus>
<clus scale="  106.722">  5  6 -1 -1</clus>
<clus scale="   66.072">  1  5  2 -1</clus>
</clustering>
</event>
<event>
 9    1  0.2423659E-006  0.1368553E+03  0.7546771E-02  0.1218065E+00
          1   -1    0    0  502    0  0.00000000000E+00  0.00000000000E+00  0.10580073004E+04  0.10580073004E+04  0.00000000000E+00 0. -1.
         -1   -1    0    0    0  501 -0.00000000000E+00 -0.00000000000E+00 -0.36557052407E+02  0.36557052407E+02  0.00000000000E+00 0.  1.
         23    2    1    2    0    0 -0.63127306685E+02 -0.17470413400E+02  0.26397537484E+03  0.28636270543E+03  0.89612099318E+02 0.  0.
         23    2    1    2    0    0  0.14695202246E+03  0.33527727712E+02  0.35031255513E+03  0.39219014089E+03  0.91516200176E+02 0.  0.
        -11    1    3    3    0    0 -0.44775462865E+02  0.28250430374E+02  0.80203995762E+02  0.96102080244E+02  0.00000000000E+00 0.  1.
         11    1    3    3    0    0 -0.18351843820E+02 -0.45720843773E+02  0.18377137908E+03  0.19026062518E+03  0.00000000000E+00 0. -1.
        -13    1    4    4    0    0  0.92836972700E+02  0.45727728568E+02  0.13647918060E+03  0.17127841486E+03  0.00000000000E+00 0.  1.
         13    1    4    4    0    0  0.54115049762E+02 -0.12200000856E+02  0.21383337454E+03  0.22091172603E+03  0.00000000000E+00 0. -1.
         21    1    1    2  502  501 -0.83824715777E+02 -0.16057314312E+02  0.40716231802E+03  0.41601150649E+03  0.00000000000E+00 0. -1.
<scales pt_clust_5="13000.00000" pt_clust_6="13000.00000" pt_clust_7="13000.00000" pt_clust_8="13000.00000" pt_clust_9="85.34882"></scales>
<clustering>
<clus scale="   85.349">  1  9  2 -1</clus>
<clus scale="   89.612">  5  6 -1 -1</clus>
<clus scale="   91.516">  7  8 -1 -1</clus>
<clus scale="  135.589">  2  5  1 -1</clus>
<clus scale="   85.349">  1  5  2 -1</clus>
</clustering>
</event>
<event>
 9    1  0.2423659E-006  0.1346345E+03  0.7546771E-02  0.1235681E+00
         -1   -1    0    0    0  501 -0.00000000000E+00  0.00000000000E+00  0.10643734670E+03  0.10643734670E+03  0.00000000000E+00 0.  1.
          1   -1    0    0  502    0  0.00000000000E+00 -0.00000000000E+00 -0.24321574238E+03  0.24321574238E+03  0.00000000000E+00 0. -1.
         23    2    1    2    0    0  0.24447277651E+02  0.62275861483E+02  0.31390981204E+02  0.10309107320E+03  0.71877836392E+02 0.  0.
         23    2    1    2    0    0 -0.13219421929E+01 -0.69147885426E+02 -0.17524658273E+03  0.22142056215E+03  0.11632937287E+03 0.  0.
        -13    1    3    3    0    0 -0.21660672030E+02  0.13379777855E+01  0.86614113315E+01  0.23366534694E+02  0.00000000000E+00 0. -1.
         13    1    3    3    0    0  0.46107949681E+02  0.60937883698E+02  0.22729569873E+02  0.79724538505E+02  0.00000000000E+00 0.  1.
        -13    1    4    4    0    0 -0.52615269941E+02 -0.64072604394E+02 -0.95506985077E+02  0.12647232687E+03  0.00000000000E+00 0. -1.
         13    1    4    4    0    0  0.51293327748E+02 -0.50752810322E+01 -0.79739597656E+02  0.94948235283E+02  0.00000000000E+00 0.  1.
         21    1    1    2  502  501 -0.23125335458E+02  0.68720239433E+01  0.70772058425E+01  0.25141453730E+02  0.00000000000E+00 0. -1.
<scales pt_clust_5="13000.00000" pt_clust_6="13000.00000" pt_clust_7="13000.00000" pt_clust_8="13000.00000" pt_clust_9="24.12480"></scales>
<clustering>
<clus scale="   24.125">  1  9  2 -1</clus>
<clus scale="   71.878">  5  6 -1 -1</clus>
<clus scale="   98.794">  1  5  2 -1</clus>
<clus scale="  116.329">  7  8 -1 -1</clus>
<clus scale="  134.634">  2  5  1 -1</clus>
</clustering>
</event>
<event>
 9    1  0.2423659E-006  0.2090558E+03  0.7546771E-02  0.1173696E+00
         -1   -1    0    0    0  501 -0.00000000000E+00  0.00000000000E+00  0.22732333105E+03  0.22732333105E+03  0.00000000000E+00 0.  1.
          1   -1    0    0  502    0  0.00000000000E+00 -0.00000000000E+00 -0.46221072143E+03  0.46221072143E+03  0.00000000000E+00 0. -1.
         23    2    1    2    0    0 -0.17813889500E+03  0.72196890313E+02 -0.22698175139E+03  0.31143255308E+03  0.92323684769E+02 0.  0.
         23    2    1    2    0    0  0.22566921941E+02  0.32136706016E+02 -0.12258364647E+03  0.15846729549E+03  0.92428888989E+02 0.  0.
        -11    1    4    4    0    0  0.41943583699E+02 -0.12790659331E+02 -0.88715738412E+02  0.98961343067E+02  0.00000000000E+00 0.  1.
         11    1    4    4    0    0 -0.19376661758E+02  0.44927365347E+02 -0.33867908056E+02  0.59505952425E+02  0.00000000000E+00 0. -1.
        -11    1    3    3    0    0 -0.13032902497E+03  0.66263947046E+01 -0.12110156331E+03  0.17803132446E+03  0.00000000000E+00 0.  1.
         11    1    3    3    0    0 -0.47809870038E+02  0.65570495608E+02 -0.10588018809E+03  0.13340122862E+03  0.00000000000E+00 0. -1.
         21    1    1    2  502  501  0.15557197306E+03 -0.10433359633E+03  0.11467800748E+03  0.21963420391E+03  0.00000000000E+00 0.  1.
<scales pt_clust_5="13000.00000" pt_clust_6="13000.00000" pt_clust_7="13000.00000" pt_clust_8="13000.00000" pt_clust_9="187.56512"></scales>
<clustering>
<clus scale="   92.324">  7  8 -1 -1</clus>
<clus scale="   92.429">  5  6 -1 -1</clus>
<clus scale="  100.425">  2  5  1 -1</clus>
<clus scale="  187.565">  1  9  2 -1</clus>
<clus scale="  100.425">  2  5  1 -1</clus>
</clustering>
</event>
<event>
 9    1  0.2423659E-006  0.1562148E+03  0.7546771E-02  0.1212990E+00
         -1   -1    0    0    0  501 -0.00000000000E+00  0.00000000000E+00  0.46104611784E+03  0.46104611784E+03  0.00000000000E+00 0.  1.
          1   -1    0    0  502    0  0.00000000000E+00 -0.00000000000E+00 -0.94589099245E+02  0.94589099245E+02  0.00000000000E+00 0. -1.
         23    2    1    2    0    0  0.47799990571E+02 -0.13866975620E+03  0.27257531177E+03  0.32280224724E+03  0.91596123578E+02 0.  0.
         23    2    1    2    0    0 -0.29846069537E+02  0.34644930516E+02  0.18635757832E+02  0.10319709333E+03  0.90616165906E+02 0.  0.
        -13    1    4    4    0    0 -0.13863648489E+02 -0.30398280451E+02 -0.91831219096E+00  0.33423038477E+02  0.00000000000E+00 0.  1.
         13    1    4    4    0    0 -0.15982421049E+02  0.65043210967E+02  0.19554070023E+02  0.69774054848E+02  0.00000000000E+00 0. -1.
        -13    1    3    3    0    0  0.24167267919E+02 -0.20139712221E+00  0.12483854752E+02  0.27201912229E+02  0.00000000000E+00 0. -1.
         13    1    3    3    0    0  0.23632722652E+02 -0.13846835908E+03  0.26009145702E+03  0.29560033501E+03  0.00000000000E+00 0.  1.
         21    1    1    2  502  501 -0.17953921033E+02  0.10402482569E+03  0.75245948989E+02  0.12963587651E+03  0.00000000000E+00 0. -1.
<scales pt_clust_5="13000.00000" pt_clust_6="13000.00000" pt_clust_7="13000.00000" pt_clust_8="13000.00000" pt_clust_9="126.54337"></scales>
<clustering>
<clus scale="   90.616">  5  6 -1 -1</clus>
<clus scale="   91.596">  7  8 -1 -1</clus>
<clus scale="  101.500">  2  5  1 -1</clus>
<clus scale="  126.543">  2  9  1 -1</clus>
<clus scale="  101.500">  2  5  1 -1</clus>
</clustering>
</event>
<event>
 9    1  0.2423659E-006  0.1044617E+03  0.7546771E-02  0.1272745E+00
          1   -1    0    0  502    0  0.00000000000E+00  0.00000000000E+00  0.55963218868E+02  0.55963218868E+02  0.00000000000E+00 0. -1.
         -1   -1    0    0    0  501 -0.00000000000E+00 -0.00000000000E+00 -0.32280749209E+03  0.32280749209E+03  0.00000000000E+00 0.  1.
         23    2    1    2    0    0  0.17547760794E+02 -0.57095867779E+02 -0.21068249624E+03  0.23837165021E+03  0.94159797027E+02 0.  0.
         23    2    1    2    0    0  0.21358427152E+01  0.41602704966E+02 -0.30117299012E+02  0.10426324508E+03  0.90710670213E+02 0.  0.
        -13    1    3    3    0    0  0.79269068923E+01 -0.76567879820E+02 -0.10336825358E+03  0.12888161980E+03  0.00000000000E+00 0.  1.
         13    1    3    3    0    0  0.96208539017E+01  0.19472012041E+02 -0.10731424266E+03  0.10949003042E+03  0.00000000000E+00 0. -1.
        -13    1    4    4    0    0  0.32120834481E+02 -0.77503645212E+01 -0.32659701053E+02  0.46459361068E+02  0.00000000000E+00 0. -1.
         13    1    4    4    0    0 -0.29984991765E+02  0.49353069487E+02  0.25424020410E+01  0.57803884014E+02  0.00000000000E+00 0.  1.
         21    1    1    2  502  501 -0.19683603509E+02  0.15493162813E+02 -0.26044477968E+02  0.36135815664E+02  0.00000000000E+00 0.  1.
<scales pt_clust_5="13000.00000" pt_clust_6="13000.00000" pt_clust_7="13000.00000" pt_clust_8="13000.00000" pt_clust_9="25.04960"></scales>
<clustering>
<clus scale="   25.050">  2  9  1 -1</clus>
<clus scale="   90.711">  7  8 -1 -1</clus>
<clus scale="   94.160">  5  6 -1 -1</clus>
<clus scale="  101.364">  1  7  2 -1</clus>
<clus scale="  101.364">  1  5  2 -1</clus>
</clustering>
</event>
<event>
 9    1  0.2423659E-006  0.1006346E+03  0.7546771E-02  0.1279464E+00
          1   -1    0    0  502    0  0.00000000000E+00  0.00000000000E+00  0.12164068003E+04  0.12164068003E+04  0.00000000000E+00 0. -1.
         -1   -1    0    0    0  501 -0.00000000000E+00 -0.00000000000E+00 -0.22381456851E+02  0.22381456851E+02  0.00000000000E+00 0.  1.
         23    2    1    2    0    0  0.15474434285E+02  0.15038570037E+01  0.20914491720E+03  0.22896160942E+03  0.91870030463E+02 0.  0.
         23    2    1    2    0    0 -0.96753047627E+02 -0.14672620628E+02  0.47777539004E+03  0.49608045837E+03  0.90829840002E+02 0.  0.
        -11    1    4    4    0    0 -0.64599034062E+02 -0.46457699749E+02  0.21107428655E+03  0.22557417297E+03  0.00000000000E+00 0.  1.
         11    1    4    4    0    0 -0.32154013565E+02  0.31785079121E+02  0.26670110349E+03  0.27050628541E+03  0.00000000000E+00 0. -1.
        -11    1    3    3    0    0  0.89365592017E+01 -0.44965710614E+02  0.92715842626E+02  0.10343115921E+03  0.00000000000E+00 0.  1.
         11    1    3    3    0    0  0.65378750838E+01  0.46469567618E+02  0.11642907457E+03  0.12553045022E+03  0.00000000000E+00 0. -1.
         21    1    1    2  502  501  0.81278613341E+02  0.13168763625E+02  0.50710503625E+03  0.51374618939E+03  0.00000000000E+00 0. -1.
<scales pt_clust_5="13000.00000" pt_clust_6="13000.00000" pt_clust_7="13000.00000" pt_clust_8="13000.00000" pt_clust_9="82.33850"></scales>
<clustering>
<clus scale="   82.339">  1  9  2 -1</clus>
<clus scale="   90.830">  5  6 -1 -1</clus>
<clus scale="   91.870">  7  8 -1 -1</clus>
<clus scale="   99.686">  1  5  2 -1</clus>
<clus scale="   82.339">  1  5  2 -1</clus>
</clustering>
</event>
<event>
 9    1  0.2423659E-006  0.1166455E+03  0.7546771E-02  0.1249713E+00
          1   -1    0    0  502    0  0.00000000000E+00  0.00000000000E+00  0.15431042197E+04  0.15431042197E+04  0.00000000000E+00 0. -1.
         -1   -1    0    0    0  501 -0.00000000000E+00 -0.00000000000E+00 -0.22177060672E+02  0.22177060672E+02  0.00000000000E+00 0.  1.
         23    2    1    2    0    0  0.74706498011E+01 -0.88748144302E+02  0.37386774571E+03  0.39468206231E+03  0.89804205369E+02 0.  0.
         23    2    1    2    0    0 -0.83408840470E+02  0.13557209560E+02  0.68030455263E+03  0.69176690352E+03  0.92662462095E+02 0.  0.
        -11    1    3    3    0    0 -0.82351899408E+01 -0.64965700642E+02  0.35383903799E+03  0.35984778090E+03  0.00000000000E+00 0. -1.
         11    1    3    3    0    0  0.15705839742E+02 -0.23782443660E+02  0.20028707721E+02  0.34834281411E+02  0.00000000000E+00 0.  1.
        -11    1    4    4    0    0 -0.14422945526E+01  0.39328242658E+02  0.22864511651E+03  0.23200728477E+03  0.00000000000E+00 0.  1.
         11    1    4    4    0    0 -0.81966545918E+02 -0.25771033099E+02  0.45165943613E+03  0.45975961876E+03  0.00000000000E+00 0. -1.
         21    1    1    2  502  501  0.75938190669E+02  0.75190934743E+02  0.46675486065E+03  0.47883231450E+03  0.00000000000E+00 0.  1.
<scales pt_clust_5="13000.00000" pt_clust_6="13000.00000" pt_clust_7="13000.00000" pt_clust_8="13000.00000" pt_clust_9="106.86574"></scales>
<clustering>
<clus scale="   89.804">  5  6 -1 -1</clus>
<clus scale="   92.662">  7  8 -1 -1</clus>
<clus scale="  106.866">  1  9  2 -1</clus>
<clus scale="  114.388">  2  5  1 -1</clus>
<clus scale="  106.866">  1  5  2 -1</clus>
</clustering>
</event>
<event>
 9    1  0.2423659E-006  0.1484773E+03  0.7546771E-02  0.1219819E+00
          1   -1    0    0  502    0  0.00000000000E+00  0.00000000000E+00  0.56824369001E+03  0.56824369001E+03  0.00000000000E+00 0. -1.
         -1   -1    0    0    0  501 -0.00000000000E+00 -0.00000000000E+00 -0.14258705098E+03  0.14258705098E+03  0.00000000000E+00 0.  1.
         23    2    1    2    0    0  0.29703068481E+02 -0.30825209388E+02 -0.25185819151E+02  0.10538610051E+03  0.92948581931E+02 0.  0.
         23    2    1    2    0    0  0.10685470455E+03  0.33495143775E+02  0.44538965243E+03  0.46875196689E+03  0.93896812658E+02 0.  0.
        -11    1    4    4    0    0  0.37299180122E+02  0.11724896744E+02  0.36733621193E+02  0.53647562548E+02  0.00000000000E+00 0.  1.
         11    1    4    4    0    0  0.69555524426E+02  0.21770247030E+02  0.40865603124E+03  0.41510440434E+03  0.00000000000E+00 0. -1.
        -13    1    3    3    0    0 -0.11276349248E+02 -0.30096772503E+02 -0.48538059659E+02  0.58214388281E+02  0.00000000000E+00 0.  1.
         13    1    3    3    0    0  0.40979417729E+02 -0.72843688558E+00  0.23352240508E+02  0.47171712227E+02  0.00000000000E+00 0. -1.
         21    1    1    2  502  501 -0.13655777303E+03 -0.26699343865E+01  0.54528057505E+01  0.13669267360E+03  0.00000000000E+00 0.  1.
<scales pt_clust_5="13000.00000" pt_clust_6="13000.00000" pt_clust_7="13000.00000" pt_clust_8="13000.00000" pt_clust_9="115.01690"></scales>
<clustering>
<clus scale="   92.949">  7  8 -1 -1</clus>
<clus scale="   93.897">  5  6 -1 -1</clus>
<clus scale="  102.332">  2  7  1 -1</clus>
<clus scale="  115.017">  2  9  1 -1</clus>
<clus scale="  148.477">  1  5  2 -1</clus>
</clustering>
</event>
<event>
 9    1  0.2423659E-006  0.1953170E+03  0.7546771E-02  0.1154282E+00
         -1   -1    0    0    0  501 -0.00000000000E+00  0.00000000000E+00  0.22925571165E+03  0.22925571165E+03  0.00000000000E+00 0.  1.
          1   -1    0    0  502    0  0.00000000000E+00 -0.00000000000E+00 -0.31439915705E+03  0.31439915705E+03  0.00000000000E+00 0. -1.
         23    2    1    2    0    0  0.12940947725E+03 -0.14398524971E+03  0.95459504730E+02  0.23321540517E+03  0.88308228567E+02 0.  0.
         23    2    1    2    0    0 -0.12054074764E+03  0.55368591949E+02 -0.10214878167E+03  0.19175238358E+03  0.93481817470E+02 0.  0.
        -11    1    4    4    0    0 -0.37588884663E+02 -0.19499704541E+02 -0.31479402786E+01  0.42462598311E+02  0.00000000000E+00 0.  1.
         11    1    4    4    0    0 -0.82951862975E+02  0.74868296489E+02 -0.99000841388E+02  0.14928978527E+03  0.00000000000E+00 0. -1.
        -13    1    3    3    0    0  0.70395068787E+02 -0.13180221401E+03  0.85450475210E+02  0.17213097642E+03  0.00000000000E+00 0.  1.
         13    1    3    3    0    0  0.59014408459E+02 -0.12183035690E+02  0.10009029520E+02  0.61084428755E+02  0.00000000000E+00 0. -1.
         21    1    1    2  502  501 -0.88687296088E+01  0.88616657756E+02 -0.78454168467E+02  0.11868707995E+03  0.00000000000E+00 0. -1.
<scales pt_clust_5="13000.00000" pt_clust_6="13000.00000" pt_clust_7="13000.00000" pt_clust_8="13000.00000" pt_clust_9="89.05934"></scales>
<clustering>
<clus scale="   88.308">  7  8 -1 -1</clus>
<clus scale="   89.059">  2  9  1 -1</clus>
<clus scale="   93.482">  5  6 -1 -1</clus>
<clus scale="  192.894">  1  7  2 -1</clus>
<clus scale="   89.059">  2  5  1 -1</clus>
</clustering>
</event>
<event>
 9    1  0.2423659E-006  0.1097187E+03  0.7546771E-02  0.1261783E+00
         -1   -1    0    0    0  501 -0.00000000000E+00  0.00000000000E+00  0.15473615520E+03  0.15473615520E+03  0.00000000000E+00 0.  1.
          1   -1    0    0  502    0  0.00000000000E+00 -0.00000000000E+00 -0.56987135847E+03  0.56987135847E+03  0.00000000000E+00 0. -1.
         23    2    1    2    0    0  0.57210676348E+02  0.25062963029E+02 -0.23080170720E+03  0.25681532780E+03  0.93720173599E+02 0.  0.
         23    2    1    2    0    0 -0.51655396134E+02  0.54707318944E+02 -0.30256044928E+03  0.32506247105E+03  0.91987031261E+02 0.  0.
        -11    1    3    3    0    0  0.71392438374E+02 -0.12328948809E+02 -0.15567048930E+03  0.17170376954E+03  0.00000000000E+00 0.  1.
         11    1    3    3    0    0 -0.14181762026E+02  0.37391911838E+02 -0.75131217904E+02  0.85111558256E+02  0.00000000000E+00 0. -1.
        -11    1    4    4    0    0 -0.42282062612E+02  0.74609828387E+02 -0.28271163138E+03  0.29543233714E+03  0.00000000000E+00 0. -1.
         11    1    4    4    0    0 -0.93733335220E+01 -0.19902509442E+02 -0.19848817899E+02  0.29630133908E+02  0.00000000000E+00 0.  1.
         21    1    1    2  502  501 -0.55552802142E+01 -0.79770281973E+02  0.11822695322E+03  0.14272971482E+03  0.00000000000E+00 0.  1.
<scales pt_clust_5="13000.00000" pt_clust_6="13000.00000" pt_clust_7="13000.00000" pt_clust_8="13000.00000" pt_clust_9="79.96349"></scales>
<clustering>
<clus scale="   79.963">  1  9  2 -1</clus>
<clus scale="   91.987">  7  8 -1 -1</clus>
<clus scale="   93.720">  5  6 -1 -1</clus>
<clus scale="  108.242">  2  7  1 -1</clus>
<clus scale="  108.242">  2  5  1 -1</clus>
</clustering>
</event>
<event>
 9    1  0.2423659E-006  0.1127500E+03  0.7546771E-02  0.1265587E+00
         -2   -1    0    0    0  501 -0.00000000000E+00  0.00000000000E+00  0.68014774434E+02  0.68014774434E+02  0.00000000000E+00 0.  1.
          2   -1    0    0  502    0  0.00000000000E+00 -0.00000000000E+00 -0.49970931121E+03  0.49970931121E+03  0.00000000000E+00 0. -1.
         23    2    1    2    0    0 -0.14327065756E+02  0.30992490740E+02 -0.11787943102E+02  0.11555059549E+03  0.10975967028E+03 0.  0.
         23    2    1    2    0    0  0.20397279031E+02  0.22104365600E+02 -0.35932986149E+03  0.37139190732E+03  0.88934512398E+02 0.  0.
        -11    1    4    4    0    0  0.55402049171E+01  0.54140131023E+02 -0.26805728222E+03  0.27352614904E+03  0.00000000000E+00 0. -1.
         11    1    4    4    0    0  0.14857074114E+02 -0.32035765423E+02 -0.91272579269E+02  0.97865758281E+02  0.00000000000E+00 0.  1.
        -13    1    3    3    0    0  0.19805514548E+02  0.63795457152E+02 -0.13627393696E+02  0.68174955949E+02  0.00000000000E+00 0. -1.
         13    1    3    3    0    0 -0.34132580303E+02 -0.32802966412E+02  0.18394505937E+01  0.47375639542E+02  0.00000000000E+00 0.  1.
         21    1    1    2  502  501 -0.60702132754E+01 -0.53096856341E+02 -0.60576732187E+02  0.80781582832E+02  0.00000000000E+00 0.  1.
<scales pt_clust_5="13000.00000" pt_clust_6="13000.00000" pt_clust_7="13000.00000" pt_clust_8="13000.00000" pt_clust_9="53.44271"></scales>
<clustering>
<clus scale="   53.443">  1  9  2 -1</clus>
<clus scale="   88.935">  5  6 -1 -1</clus>
<clus scale="   92.600">  2  5  1 -1</clus>
<clus scale="  109.760">  7  8 -1 -1</clus>
<clus scale="   92.600">  2  5  1 -1</clus>
</clustering>
</event>
<event>
 9    1  0.2423659E-006  0.1999822E+03  0.7546771E-02  0.1178815E+00
          1   -1    0    0  502    0  0.00000000000E+00  0.00000000000E+00  0.28986736976E+03  0.28986736976E+03  0.00000000000E+00 0. -1.
         -1   -1    0    0    0  501 -0.00000000000E+00 -0.00000000000E+00 -0.51439927858E+03  0.51439927858E+03  0.00000000000E+00 0.  1.
         23    2    1    2    0    0 -0.40294076631E+02 -0.15147309148E+03  0.15708926485E+03  0.23972077513E+03  0.90671400357E+02 0.  0.
         23    2    1    2    0    0 -0.42405735745E+02 -0.90599063969E+01  0.36973254904E+02  0.10866058281E+03  0.92519037778E+02 0.  0.
        -13    1    4    4    0    0  0.25042486973E+02 -0.82490390442E+01 -0.80430856510E+01  0.27565631241E+02  0.00000000000E+00 0.  1.
         13    1    4    4    0    0 -0.67448222718E+02 -0.81086735268E+00  0.45016340555E+02  0.81094951573E+02  0.00000000000E+00 0. -1.
        -13    1    3    3    0    0 -0.63650766145E+02 -0.13792174605E+03  0.11866444789E+03  0.19275652845E+03  0.00000000000E+00 0. -1.
         13    1    3    3    0    0  0.23356689514E+02 -0.13551345423E+02  0.38424816961E+02  0.46964246681E+02  0.00000000000E+00 0.  1.
         21    1    1    2  502  501  0.82699812376E+02  0.16053299787E+03 -0.41859442857E+03  0.45588529040E+03  0.00000000000E+00 0.  1.
<scales pt_clust_5="13000.00000" pt_clust_6="13000.00000" pt_clust_7="13000.00000" pt_clust_8="13000.00000" pt_clust_9="178.24584"></scales>
<clustering>
<clus scale="   90.671">  7  8 -1 -1</clus>
<clus scale="   92.519">  5  6 -1 -1</clus>
<clus scale="  102.177">  1  5  2 -1</clus>
<clus scale="  178.246">  2  9  1 -1</clus>
<clus scale="  102.177">  1  5  2 -1</clus>
</clustering>
</event>
<event>
 9    1  0.2423659E-006  0.1091863E+03  0.7546771E-02  0.1266893E+00
         -3   -1    0    0    0  501 -0.00000000000E+00  0.00000000000E+00  0.10662568464E+03  0.10662568464E+03  0.00000000000E+00 0.  1.
          3   -1    0    0  502    0  0.00000000000E+00 -0.00000000000E+00 -0.21600188224E+03  0.21600188224E+03  0.00000000000E+00 0. -1.
         23    2    1    2    0    0 -0.21267970941E+02 -0.58528645476E+02  0.12627186073E+02  0.10982917247E+03  0.89582768259E+02 0.  0.
         23    2    1    2    0    0 -0.67966490539E+01  0.19672351379E+02 -0.26328918820E+02  0.10578887280E+03  0.10032386454E+03 0.  0.
        -11    1    3    3    0    0 -0.25676422660E+02  0.15651662867E+02 -0.10739171335E+02  0.31930910292E+02  0.00000000000E+00 0. -1.
         11    1    3    3    0    0  0.44084517190E+01 -0.74180308343E+02  0.23366357408E+02  0.77898262182E+02  0.00000000000E+00 0.  1.
        -13    1    4    4    0    0  0.24690133275E+02 -0.48512054258E+01  0.28470768706E+02  0.37996335954E+02  0.00000000000E+00 0.  1.
         13    1    4    4    0    0 -0.31486782329E+02  0.24523556804E+02 -0.54799687526E+02  0.67792536851E+02  0.00000000000E+00 0. -1.
         21    1    1    2  502  501  0.28064619995E+02  0.38856294098E+02 -0.95674464860E+02  0.10700952160E+03  0.00000000000E+00 0. -1.
<scales pt_clust_5="13000.00000" pt_clust_6="13000.00000" pt_clust_7="13000.00000" pt_clust_8="13000.00000" pt_clust_9="47.93156"></scales>
<clustering>
<clus scale="   47.932">  2  9  1 -1</clus>
<clus scale="   89.583">  5  6 -1 -1</clus>
<clus scale="   99.407">  1  5  2 -1</clus>
<clus scale="  100.324">  7  8 -1 -1</clus>
<clus scale="   47.932">  2  5  1 -1</clus>
</clustering>
</event>
<event>
 9    1  0.2423659E-006  0.9519775E+02  0.7546771E-02  0.1290891E+00
         -2   -1    0    0    0  501 -0.00000000000E+00  0.00000000000E+00  0.27824384575E+03  0.27824384575E+03  0.00000000000E+00 0.  1.
          2   -1    0    0  502    0  0.00000000000E+00 -0.00000000000E+00 -0.52994591356E+02  0.52994591356E+02  0.00000000000E+00 0. -1.
         23    2    1    2    0    0  0.20276071896E+02 -0.82219738524E+01  0.16817875498E+03  0.19265986920E+03  0.91405752713E+02 0.  0.
         23    2    1    2    0    0 -0.38728040710E+02 -0.28879784824E+00  0.63080604379E+02  0.11738824583E+03  0.91109237016E+02 0.  0.
        -11    1    4    4    0    0 -0.18298593298E+02  0.44909224867E+02  0.23275748367E+02  0.53790681878E+02  0.00000000000E+00 0.  1.
         11    1    4    4    0    0 -0.20429447412E+02 -0.45198022715E+02  0.39804856012E+02  0.63597563956E+02  0.00000000000E+00 0. -1.
        -13    1    3    3    0    0  0.49251830921E+02 -0.28794075338E+02  0.11918074550E+03  0.13213209951E+03  0.00000000000E+00 0.  1.
         13    1    3    3    0    0 -0.28975759025E+02  0.20572101485E+02  0.48998009474E+02  0.60527769685E+02  0.00000000000E+00 0. -1.
         21    1    1    2  502  501  0.18451968814E+02  0.85107717006E+01 -0.60101049584E+01  0.21190322075E+02  0.00000000000E+00 0. -1.
<scales pt_clust_5="13000.00000" pt_clust_6="13000.00000" pt_clust_7="13000.00000" pt_clust_8="13000.00000" pt_clust_9="20.32015"></scales>
<clustering>
<clus scale="   20.320">  2  9  1 -1</clus>
<clus scale="   91.109">  5  6 -1 -1</clus>
<clus scale="   91.406">  7  8 -1 -1</clus>
<clus scale="   94.913">  2  5  1 -1</clus>
<clus scale="   20.320">  2  5  1 -1</clus>
</clustering>
</event>
<event>
 9    1  0.2423659E-006  0.9883621E+02  0.7546771E-02  0.1284296E+00
          2   -1    0    0  502    0  0.00000000000E+00  0.00000000000E+00  0.42421895951E+03  0.42421895951E+03  0.00000000000E+00 0. -1.
         -2   -1    0    0    0  501 -0.00000000000E+00 -0.00000000000E+00 -0.49769858937E+02  0.49769858937E+02  0.00000000000E+00 0.  1.
         23    2    1    2    0    0  0.36338849863E+02 -0.35678627230E+02  0.10778120731E+03  0.14997338917E+03  0.91004133740E+02 0.  0.
         23    2    1    2    0    0  0.38333820134E+02  0.25052288335E+02  0.18745447090E+03  0.21463676132E+03  0.93982241583E+02 0.  0.
        -11    1    3    3    0    0 -0.17842393729E+02 -0.43959028210E+02  0.35463175532E+02  0.59231613129E+02  0.00000000000E+00 0.  1.
         11    1    3    3    0    0  0.54181243592E+02  0.82804009795E+01  0.72318031782E+02  0.90741776037E+02  0.00000000000E+00 0. -1.
        -13    1    4    4    0    0  0.27118803611E+01 -0.24030865537E+02  0.84169139356E+01  0.25606273328E+02  0.00000000000E+00 0.  1.
         13    1    4    4    0    0  0.35621939773E+02  0.49083153872E+02  0.17903755696E+03  0.18903048799E+03  0.00000000000E+00 0. -1.
         21    1    1    2  502  501 -0.74672669998E+02  0.10626338895E+02  0.79213422366E+02  0.10937866797E+03  0.00000000000E+00 0.  1.
<scales pt_clust_5="13000.00000" pt_clust_6="13000.00000" pt_clust_7="13000.00000" pt_clust_8="13000.00000" pt_clust_9="75.42497"></scales>
<clustering>
<clus scale="   75.425">  2  9  1 -1</clus>
<clus scale="   91.004">  5  6 -1 -1</clus>
<clus scale="   93.982">  7  8 -1 -1</clus>
<clus scale="   96.009">  2  5  1 -1</clus>
<clus scale="   98.836">  1  5  2 -1</clus>
</clustering>
</event>
<event>
 9    1  0.2423659E-006  0.9345882E+02  0.7546771E-02  0.1295362E+00
          1   -1    0    0  502    0  0.00000000000E+00  0.00000000000E+00  0.24229128611E+02  0.24229128611E+02  0.00000000000E+00 0. -1.
         -1   -1    0    0    0  501 -0.00000000000E+00 -0.00000000000E+00 -0.57729914457E+03  0.57729914457E+03  0.00000000000E+00 0.  1.
         23    2    1    2    0    0 -0.60491568182E+01  0.30737105659E+01 -0.24717756008E+03  0.26317053409E+03  0.90088533180E+02 0.  0.
         23    2    1    2    0    0  0.39101606621E+02 -0.25512779886E+02 -0.25208725369E+03  0.27134299405E+03  0.88877440172E+02 0.  0.
        -11    1    4    4    0    0 -0.20990206526E+02 -0.29222215850E+02 -0.59180607555E+02  0.69259446863E+02  0.00000000000E+00 0.  1.
         11    1    4    4    0    0  0.60091813148E+02  0.37094359639E+01 -0.19290664613E+03  0.20208354719E+03  0.00000000000E+00 0. -1.
        -13    1    3    3    0    0  0.14402754767E+02 -0.40079714780E+02 -0.11629931462E+03  0.12385214356E+03  0.00000000000E+00 0. -1.
         13    1    3    3    0    0 -0.20451911585E+02  0.43153425346E+02 -0.13087824546E+03  0.13931839053E+03  0.00000000000E+00 0.  1.
         21    1    1    2  502  501 -0.33052449803E+02  0.22439069320E+02 -0.53805202188E+02  0.67014745037E+02  0.00000000000E+00 0.  1.
<scales pt_clust_5="13000.00000" pt_clust_6="13000.00000" pt_clust_7="13000.00000" pt_clust_8="13000.00000" pt_clust_9="39.94967"></scales>
<clustering>
<clus scale="   39.950">  1  9  2 -1</clus>
<clus scale="   88.877">  5  6 -1 -1</clus>
<clus scale="   90.089">  7  8 -1 -1</clus>
<clus scale="   92.292">  1  5  2 -1</clus>
<clus scale="   39.950">  1  5  2 -1</clus>
</clustering>
</event>
<event>
 9    1  0.2423659E-006  0.1076082E+03  0.7546771E-02  0.1265088E+00
         -1   -1    0    0    0  501 -0.00000000000E+00  0.00000000000E+00  0.50121689136E+02  0.50121689136E+02  0.00000000000E+00 0.  1.
          1   -1    0    0  502    0  0.00000000000E+00 -0.00000000000E+00 -0.64671012379E+03  0.64671012379E+03  0.00000000000E+00 0. -1.
         23    2    1    2    0    0  0.55015725191E+02 -0.84178832516E+02 -0.37433337100E+03  0.39836494841E+03  0.91958434153E+02 0.  0.
         23    2    1    2    0    0 -0.43702429425E+01  0.13092158333E+02 -0.17755425094E+03  0.20040340152E+03  0.91899443310E+02 0.  0.
        -13    1    3    3    0    0  0.53002856318E+02 -0.85911470845E+01 -0.96574407898E+02  0.11049763277E+03  0.00000000000E+00 0.  1.
         13    1    3    3    0    0  0.20128688737E+01 -0.75587685432E+02 -0.27775896310E+03  0.28786731564E+03  0.00000000000E+00 0. -1.
        -13    1    4    4    0    0  0.12008252370E+02  0.47917470153E+02 -0.66292638781E+02  0.82674034783E+02  0.00000000000E+00 0.  1.
         13    1    4    4    0    0 -0.16378495312E+02 -0.34825311820E+02 -0.11126161216E+03  0.11772936673E+03  0.00000000000E+00 0. -1.
         21    1    1    2  502  501 -0.50645482249E+02  0.71086674184E+02 -0.44700812717E+02  0.98063463004E+02  0.00000000000E+00 0.  1.
<scales pt_clust_5="13000.00000" pt_clust_6="13000.00000" pt_clust_7="13000.00000" pt_clust_8="13000.00000" pt_clust_9="87.28276"></scales>
<clustering>
<clus scale="   87.283">  1  9  2 -1</clus>
<clus scale="   91.899">  7  8 -1 -1</clus>
<clus scale="   91.958">  5  6 -1 -1</clus>
<clus scale="  107.558">  2  7  1 -1</clus>
<clus scale="  107.558">  2  5  1 -1</clus>
</clustering>
</event>
<event>
 9    1  0.2423659E-006  0.1159144E+03  0.7546771E-02  0.1250293E+00
         -2   -1    0    0    0  501 -0.00000000000E+00  0.00000000000E+00  0.35478901263E+03  0.35478901263E+03  0.00000000000E+00 0.  1.
          2   -1    0    0  502    0  0.00000000000E+00 -0.00000000000E+00 -0.71276445981E+02  0.71276445981E+02  0.00000000000E+00 0. -1.
         23    2    1    2    0    0  0.64800642244E+02  0.18237612234E+02  0.13591954644E+03  0.17782187268E+03  0.92815739857E+02 0.  0.
         23    2    1    2    0    0 -0.73388280320E+02  0.47403152363E+02  0.12555785557E+03  0.17847248887E+03  0.91949745218E+02 0.  0.
        -11    1    3    3    0    0  0.36355682864E+02 -0.16926425362E+02  0.12502558439E+03  0.13129979552E+03  0.00000000000E+00 0.  1.
         11    1    3    3    0    0  0.28444959380E+02  0.35164037596E+02  0.10893962047E+02  0.46522077160E+02  0.00000000000E+00 0. -1.
        -11    1    4    4    0    0 -0.36535704854E+02 -0.24889105137E+02  0.31683019098E+02  0.54388776258E+02  0.00000000000E+00 0.  1.
         11    1    4    4    0    0 -0.36852575466E+02  0.72292257499E+02  0.93874836468E+02  0.12408371261E+03  0.00000000000E+00 0. -1.
         21    1    1    2  502  501  0.85876380762E+01 -0.65640764596E+02  0.22035164648E+02  0.69771097064E+02  0.00000000000E+00 0.  1.
<scales pt_clust_5="13000.00000" pt_clust_6="13000.00000" pt_clust_7="13000.00000" pt_clust_8="13000.00000" pt_clust_9="66.20013"></scales>
<clustering>
<clus scale="   66.200">  2  9  1 -1</clus>
<clus scale="   91.950">  7  8 -1 -1</clus>
<clus scale="   92.816">  5  6 -1 -1</clus>
<clus scale="  115.222">  2  7  1 -1</clus>
<clus scale="   66.200">  2  5  1 -1</clus>
</clustering>
</event>
<event>
 9    1  0.2423659E-006  0.1498748E+03  0.7546771E-02  0.1206263E+00
          2   -1    0    0  502    0  0.00000000000E+00  0.00000000000E+00  0.87609182752E+03  0.87609182752E+03  0.00000000000E+00 0. -1.
         -2   -1    0    0    0  501 -0.00000000000E+00 -0.00000000000E+00 -0.17359303993E+03  0.17359303993E+03  0.00000000000E+00 0.  1.
         23    2    1    2    0    0 -0.43480771838E+02  0.89008882014E+02 -0.11701059432E+03  0.19115263666E+03  0.11416957880E+03 0.  0.
         23    2    1    2    0    0  0.10629441006E+03 -0.15791643881E+02  0.63473235990E+03  0.65008831755E+03  0.90453160716E+02 0.  0.
        -11    1    4    4    0    0  0.29596833116E+02  0.29122911746E+02  0.10430743192E+03  0.11226823626E+03  0.00000000000E+00 0.  1.
         11    1    4    4    0    0  0.76697576942E+02 -0.44914555627E+02  0.53042492798E+03  0.53782008129E+03  0.00000000000E+00 0. -1.
        -13    1    3    3    0    0 -0.78484425885E+02  0.46758542407E+02 -0.95665557232E+02  0.13228025263E+03  0.00000000000E+00 0.  1.
         13    1    3    3    0    0  0.35003654046E+02  0.42250339607E+02 -0.21345037084E+02  0.58872384032E+02  0.00000000000E+00 0. -1.
         21    1    1    2  502  501 -0.62813638220E+02 -0.73217238133E+02  0.18477702200E+03  0.20844391324E+03  0.00000000000E+00 0. -1.
<scales pt_clust_5="13000.00000" pt_clust_6="13000.00000" pt_clust_7="13000.00000" pt_clust_8="13000.00000" pt_clust_9="96.46925"></scales>
<clustering>
<clus scale="   90.453">  5  6 -1 -1</clus>
<clus scale="   96.469">  1  9  2 -1</clus>
<clus scale="  114.170">  7  8 -1 -1</clus>
<clus scale="  132.701">  1  5  2 -1</clus>
<clus scale="   96.469">  1  5  2 -1</clus>
</clustering>
</event>
<event>
 9    1  0.2423659E-006  0.9437013E+02  0.7546771E-02  0.1293042E+00
         -2   -1    0    0    0  501 -0.00000000000E+00  0.00000000000E+00  0.38688533871E+02  0.38688533871E+02  0.00000000000E+00 0.  1.
          2   -1    0    0  502    0  0.00000000000E+00 -0.00000000000E+00 -0.51199711276E+03  0.51199711276E+03  0.00000000000E+00 0. -1.
         23    2    1    2    0    0 -0.91464704607E+01  0.39590689764E+01 -0.43880065266E+02  0.10141954211E+03  0.90890765459E+02 0.  0.
         23    2    1    2    0    0  0.34093779351E+01 -0.29111074868E+02 -0.39524527519E+03  0.40644051146E+03  0.90088752120E+02 0.  0.
        -11    1    3    3    0    0 -0.32869797143E+02 -0.11186599309E+02  0.13701792287E+02  0.37326969877E+02  0.00000000000E+00 0.  1.
         11    1    3    3    0    0  0.23723326682E+02  0.15145668285E+02 -0.57581857554E+02  0.64092572237E+02  0.00000000000E+00 0. -1.
        -13    1    4    4    0    0 -0.18648872867E+02  0.26205611340E+02 -0.93579017408E+02  0.98952246180E+02  0.00000000000E+00 0.  1.
         13    1    4    4    0    0  0.22058250803E+02 -0.55316686208E+02 -0.30166625778E+03  0.30748826528E+03  0.00000000000E+00 0. -1.
         21    1    1    2  502  501  0.57370925256E+01  0.25152005892E+02 -0.34183238437E+02  0.42825593061E+02  0.00000000000E+00 0. -1.
<scales pt_clust_5="13000.00000" pt_clust_6="13000.00000" pt_clust_7="13000.00000" pt_clust_8="13000.00000" pt_clust_9="25.79802"></scales>
<clustering>
<clus scale="   25.798">  1  9  2 -1</clus>
<clus scale="   90.089">  7  8 -1 -1</clus>
<clus scale="   90.891">  5  6 -1 -1</clus>
<clus scale="   93.598">  2  7  1 -1</clus>
<clus scale="   93.598">  2  5  1 -1</clus>
</clustering>
</event>
<event>
 9    1  0.2423659E-006  0.1701932E+03  0.7546771E-02  0.1184250E+00
         -1   -1    0    0    0  501 -0.00000000000E+00  0.00000000000E+00  0.76126260653E+03  0.76126260653E+03  0.00000000000E+00 0.  1.
          1   -1    0    0  502    0  0.00000000000E+00 -0.00000000000E+00 -0.98529554910E+02  0.98529554910E+02  0.00000000000E+00 0. -1.
         23    2    1    2    0    0 -0.43267961296E+02 -0.11430553331E+03  0.64508033192E+03  0.66265112908E+03  0.89666118550E+02 0.  0.
         23    2    1    2    0    0  0.14395165448E+02  0.72682554403E+02  0.21388138887E+02  0.14634670128E+03  0.12437817328E+03 0.  0.
        -11    1    4    4    0    0  0.44203095067E+02  0.90114931565E+02 -0.84262556537E+01  0.10072545005E+03  0.00000000000E+00 0. -1.
         11    1    4    4    0    0 -0.29807929618E+02 -0.17432377161E+02  0.29814394541E+02  0.45621251227E+02  0.00000000000E+00 0.  1.
        -11    1    3    3    0    0  0.24010223151E+02 -0.48300811992E+02  0.30591497669E+03  0.31063391994E+03  0.00000000000E+00 0. -1.
         11    1    3    3    0    0 -0.67278184448E+02 -0.66004721323E+02  0.33916535524E+03  0.35201720914E+03  0.00000000000E+00 0.  1.
         21    1    1    2  502  501  0.28872795848E+02  0.41622978911E+02 -0.37354191878E+01  0.50794331082E+02  0.00000000000E+00 0. -1.
<scales pt_clust_5="13000.00000" pt_clust_6="13000.00000" pt_clust_7="13000.00000" pt_clust_8="13000.00000" pt_clust_9="50.65679"></scales>
<clustering>
<clus scale="   50.657">  2  9  1 -1</clus>
<clus scale="   89.666">  7  8 -1 -1</clus>
<clus scale="  124.378">  5  6 -1 -1</clus>
<clus scale="  146.751">  1  7  2 -1</clus>
<clus scale="   50.657">  2  5  1 -1</clus>
</clustering>
</event>
<event>
 9    1  0.2423659E-006  0.1385164E+03  0.7546771E-02  0.1215375E+00
         -2   -1    0    0    0  501 -0.00000000000E+00  0.00000000000E+00  0.13136436048E+03  0.13136436048E+03  0.00000000000E+00 0.  1.
          2   -1    0    0  502    0  0.00000000000E+00 -0.00000000000E+00 -0.28092779915E+03  0.28092779915E+03  0.00000000000E+00 0. -1.
         23    2    1    2    0    0  0.66671540746E+02 -0.12800268142E+03 -0.18841985871E+02  0.17200909730E+03  0.91664215087E+02 0.  0.
         23    2    1    2    0    0 -0.68863983270E+01  0.59160658295E+02 -0.84474436714E+02  0.13804669943E+03  0.91507129747E+02 0.  0.
        -11    1    3    3    0    0  0.40823991621E+02 -0.47623978164E+00 -0.31810881789E+01  0.40950511819E+02  0.00000000000E+00 0. -1.
         11    1    3    3    0    0  0.25847549124E+02 -0.12752644164E+03 -0.15660897692E+02  0.13105858548E+03  0.00000000000E+00 0.  1.
        -11    1    4    4    0    0  0.39157929257E+02  0.25445625951E+02 -0.59796581562E+02  0.75871302020E+02  0.00000000000E+00 0.  1.
         11    1    4    4    0    0 -0.46044327584E+02  0.33715032344E+02 -0.24677855153E+02  0.62175397414E+02  0.00000000000E+00 0. -1.
         21    1    1    2  502  501 -0.59785142419E+02  0.68842023125E+02 -0.46247016081E+02  0.10223636290E+03  0.00000000000E+00 0. -1.
<scales pt_clust_5="13000.00000" pt_clust_6="13000.00000" pt_clust_7="13000.00000" pt_clust_8="13000.00000" pt_clust_9="91.17833"></scales>
<clustering>
<clus scale="   91.178">  2  9  1 -1</clus>
<clus scale="   91.507">  7  8 -1 -1</clus>
<clus scale="   91.664">  5  6 -1 -1</clus>
<clus scale="  138.412">  2  7  1 -1</clus>
<clus scale="   91.178">  2  5  1 -1</clus>
</clustering>
</event>
<event>
 9    1  0.2423659E-006  0.1554265E+03  0.7546771E-02  0.1207029E+00
         -1   -1    0    0    0  501 -0.00000000000E+00  0.00000000000E+00  0.85969533503E+03  0.85969533503E+03  0.00000000000E+00 0.  1.
          1   -1    0    0  502    0  0.00000000000E+00 -0.00000000000E+00 -0.51443795502E+02  0.51443795502E+02  0.00000000000E+00 0. -1.
         23    2    1    2    0    0  0.69854433199E+02 -0.87805290120E+01  0.32862094707E+03  0.34884231509E+03  0.93501307023E+02 0.  0.
         23    2    1    2    0    0  0.79716429219E+02  0.22780989580E+02  0.31997884751E+03  0.34307971883E+03  0.91888780863E+02 0.  0.
        -11    1    3    3    0    0  0.77290952214E+02  0.16117206636E+02  0.29986672480E+03  0.31008661416E+03  0.00000000000E+00 0.  1.
         11    1    3    3    0    0 -0.74365190144E+01 -0.24897735648E+02  0.28754222274E+02  0.38755700923E+02  0.00000000000E+00 0. -1.
        -13    1    4    4    0    0  0.76439964184E+01 -0.28259430355E+02  0.40455853939E+02  0.49936982320E+02  0.00000000000E+00 0. -1.
         13    1    4    4    0    0  0.72072432801E+02  0.51040419936E+02  0.27952299357E+03  0.29314273651E+03  0.00000000000E+00 0.  1.
         21    1    1    2  502  501 -0.14957086242E+03 -0.14000460568E+02  0.15965174495E+03  0.21921709661E+03  0.00000000000E+00 0. -1.
<scales pt_clust_5="13000.00000" pt_clust_6="13000.00000" pt_clust_7="13000.00000" pt_clust_8="13000.00000" pt_clust_9="125.35486"></scales>
<clustering>
<clus scale="   91.889">  7  8 -1 -1</clus>
<clus scale="   93.501">  5  6 -1 -1</clus>
<clus scale="  117.044">  1  5  2 -1</clus>
<clus scale="  125.355">  2  9  1 -1</clus>
<clus scale="  125.355">  2  5  1 -1</clus>
</clustering>
</event>
<event>
 9    1  0.2423659E-006  0.1023943E+03  0.7546771E-02  0.1281960E+00
          1   -1    0    0  502    0  0.00000000000E+00  0.00000000000E+00  0.45974729762E+03  0.45974729762E+03  0.00000000000E+00 0. -1.
         -1   -1    0    0    0  501 -0.00000000000E+00 -0.00000000000E+00 -0.68966355532E+02  0.68966355532E+02  0.00000000000E+00 0.  1.
         23    2    1    2    0    0 -0.86383505420E+02  0.87582808209E+01  0.11077170299E+03  0.16732454008E+03  0.90489303442E+02 0.  0.
         23    2    1    2    0    0  0.33864703876E+02 -0.22854806437E+02  0.29293380097E+03  0.30549652993E+03  0.76477171119E+02 0.  0.
        -11    1    3    3    0    0 -0.51692251300E+02 -0.29705071909E+02  0.20128267071E+02  0.62925569341E+02  0.00000000000E+00 0. -1.
         11    1    3    3    0    0 -0.34691254120E+02  0.38463352730E+02  0.90643435924E+02  0.10439897074E+03  0.00000000000E+00 0.  1.
        -11    1    4    4    0    0 -0.92641021461E+01 -0.37608136120E+02  0.17072855717E+03  0.17506694640E+03  0.00000000000E+00 0. -1.
         11    1    4    4    0    0  0.43128806022E+02  0.14753329683E+02  0.12220524380E+03  0.13042958352E+03  0.00000000000E+00 0.  1.
         21    1    1    2  502  501  0.52518801544E+02  0.14096525616E+02 -0.12924561879E+02  0.55892583138E+02  0.00000000000E+00 0.  1.
<scales pt_clust_5="13000.00000" pt_clust_6="13000.00000" pt_clust_7="13000.00000" pt_clust_8="13000.00000" pt_clust_9="54.37772"></scales>
<clustering>
<clus scale="   54.378">  2  9  1 -1</clus>
<clus scale="   76.477">  7  8 -1 -1</clus>
<clus scale="   90.250">  1  7  2 -1</clus>
<clus scale="   90.489">  5  6 -1 -1</clus>
<clus scale="   90.250">  1  5  2 -1</clus>
</clustering>
</event>
<event>
 9    1  0.2423659E-006  0.1325420E+03  0.7546771E-02  0.1224077E+00
          2   -1    0    0  502    0  0.00000000000E+00  0.00000000000E+00  0.28790614550E+03  0.28790614550E+03  0.00000000000E+00 0. -1.
         -2   -1    0    0    0  501 -0.00000000000E+00 -0.00000000000E+00 -0.11933695218E+03  0.11933695218E+03  0.00000000000E+00 0.  1.
         23    2    1    2    0    0  0.10347875717E+03  0.68997691675E+02  0.28293591717E+02  0.15612943983E+03  0.90040768586E+02 0.  0.
         23    2    1    2    0    0 -0.19667637129E+02 -0.76422491595E+02  0.60131807202E+02  0.13491357490E+03  0.91425517676E+02 0.  0.
        -13    1    3    3    0    0  0.73255342976E+02  0.87090445803E+02  0.37320679560E+02  0.11976612270E+03  0.00000000000E+00 0. -1.
         13    1    3    3    0    0  0.30223414193E+02 -0.18092754129E+02 -0.90270878435E+01  0.36363317125E+02  0.00000000000E+00 0.  1.
        -13    1    4    4    0    0 -0.91896049876E+01 -0.95895827190E+02  0.37800036975E+02  0.10348575413E+03  0.00000000000E+00 0.  1.
         13    1    4    4    0    0 -0.10478032141E+02  0.19473335595E+02  0.22331770227E+02  0.31427820768E+02  0.00000000000E+00 0. -1.
         21    1    1    2  502  501 -0.83811120040E+02  0.74247999204E+01  0.80143794409E+02  0.11620008295E+03  0.00000000000E+00 0. -1.
<scales pt_clust_5="13000.00000" pt_clust_6="13000.00000" pt_clust_7="13000.00000" pt_clust_8="13000.00000" pt_clust_9="84.13936"></scales>
<clustering>
<clus scale="   84.139">  1  9  2 -1</clus>
<clus scale="   90.041">  5  6 -1 -1</clus>
<clus scale="   91.426">  7  8 -1 -1</clus>
<clus scale="  131.591">  2  5  1 -1</clus>
<clus scale="   84.139">  1  5  2 -1</clus>
</clustering>
</event>
<event>
 9    1  0.2423659E-006  0.8983164E+02  0.7546771E-02  0.1308138E+00
         -1   -1    0    0    0  501 -0.00000000000E+00  0.00000000000E+00  0.25751959424E+03  0.25751959424E+03  0.00000000000E+00 0.  1.
          1   -1    0    0  502    0  0.00000000000E+00 -0.00000000000E+00 -0.10511948989E+03  0.10511948989E+03  0.00000000000E+00 0. -1.
         23    2    1    2    0    0  0.62048449717E+00  0.17208055604E+02  0.19179924371E+03  0.20837881465E+03  0.79613304985E+02 0.  0.
         23    2    1    2    0    0 -0.22552258299E+02  0.28610778719E+01 -0.67911566022E+02  0.11306887117E+03  0.87497421146E+02 0.  0.
        -11    1    3    3    0    0  0.34382253723E+02  0.21970244272E+01  0.43204737304E+02  0.55259529612E+02  0.00000000000E+00 0. -1.
         11    1    3    3    0    0 -0.33761769226E+02  0.15011031177E+02  0.14859450640E+03  0.15311928504E+03  0.00000000000E+00 0.  1.
        -11    1    4    4    0    0  0.34429827732E+01 -0.39649653724E+02 -0.37560302496E+02  0.54724085140E+02  0.00000000000E+00 0. -1.
         11    1    4    4    0    0 -0.25995241072E+02  0.42510731596E+02 -0.30351263526E+02  0.58344786030E+02  0.00000000000E+00 0.  1.
         21    1    1    2  502  501  0.21931773802E+02 -0.20069133476E+02  0.28512426659E+02  0.41191398308E+02  0.00000000000E+00 0.  1.
<scales pt_clust_5="13000.00000" pt_clust_6="13000.00000" pt_clust_7="13000.00000" pt_clust_8="13000.00000" pt_clust_9="29.72832"></scales>
<clustering>
<clus scale="   29.728">  1  9  2 -1</clus>
<clus scale="   79.613">  5  6 -1 -1</clus>
<clus scale="   82.172">  1  5  2 -1</clus>
<clus scale="   87.497">  7  8 -1 -1</clus>
<clus scale="   89.832">  2  5  1 -1</clus>
</clustering>
</event>
<event>
 9    1  0.2423659E-006  0.9871381E+02  0.7546771E-02  0.1283382E+00
          1   -1    0    0  502    0  0.00000000000E+00  0.00000000000E+00  0.18500723122E+03  0.18500723122E+03  0.00000000000E+00 0. -1.
         -1   -1    0    0    0  501 -0.00000000000E+00 -0.00000000000E+00 -0.13315527046E+03  0.13315527046E+03  0.00000000000E+00 0.  1.
         23    2    1    2    0    0  0.26806680910E+02  0.35373863059E+02 -0.89121444650E+02  0.13370605345E+03  0.89245551723E+02 0.  0.
         23    2    1    2    0    0 -0.18613903909E+02 -0.11731025234E+02  0.98894841911E+02  0.13550023431E+03  0.89977938232E+02 0.  0.
        -13    1    3    3    0    0  0.74585463992E+01  0.53197305149E+02 -0.92717881383E+02  0.10715497523E+03  0.00000000000E+00 0.  1.
         13    1    3    3    0    0  0.19348134511E+02 -0.17823442090E+02  0.35964367329E+01  0.26551078211E+02  0.00000000000E+00 0. -1.
        -13    1    4    4    0    0 -0.81670580781E+01  0.38132228561E+02  0.59315677295E+02  0.70986740069E+02  0.00000000000E+00 0.  1.
         13    1    4    4    0    0 -0.10446845831E+02 -0.49863253796E+02  0.39579164617E+02  0.64513494237E+02  0.00000000000E+00 0. -1.
         21    1    1    2  502  501 -0.81927770010E+01 -0.23642837825E+02  0.42078563505E+02  0.48956213927E+02  0.00000000000E+00 0.  1.
<scales pt_clust_5="13000.00000" pt_clust_6="13000.00000" pt_clust_7="13000.00000" pt_clust_8="13000.00000" pt_clust_9="25.02210"></scales>
<clustering>
<clus scale="   25.022">  1  9  2 -1</clus>
<clus scale="   89.246">  5  6 -1 -1</clus>
<clus scale="   89.978">  7  8 -1 -1</clus>
<clus scale="   98.047">  2  5  1 -1</clus>
<clus scale="   25.022">  1  5  2 -1</clus>
</clustering>
</event>
<event>
 9    1  0.2423659E-006  0.1217609E+03  0.7546771E-02  0.1243746E+00
         -1   -1    0    0    0  501 -0.00000000000E+00  0.00000000000E+00  0.96697531403E+02  0.96697531403E+02  0.00000000000E+00 0.  1.
          1   -1    0    0  502    0  0.00000000000E+00 -0.00000000000E+00 -0.37356295656E+03  0.37356295656E+03  0.00000000000E+00 0. -1.
         23    2    1    2    0    0 -0.12804560705E+02  0.74496659132E+02  0.31911044102E+02  0.13014159249E+03  0.10101886143E+03 0.  0.
         23    2    1    2    0    0 -0.66941209727E+01 -0.38958632485E+02 -0.18407662726E+03  0.20899605033E+03  0.90733445030E+02 0.  0.
        -11    1    3    3    0    0 -0.23340648451E+02  0.21842837023E+02 -0.32969192762E+02  0.45922359159E+02  0.00000000000E+00 0.  1.
         11    1    3    3    0    0  0.10536087746E+02  0.52653822109E+02  0.64880236864E+02  0.84219233333E+02  0.00000000000E+00 0. -1.
        -13    1    4    4    0    0 -0.15858574385E+02 -0.63090837085E+02 -0.16355955692E+03  0.17602180764E+03  0.00000000000E+00 0. -1.
         13    1    4    4    0    0  0.91644534127E+01  0.24132204600E+02 -0.20517070343E+02  0.32974242685E+02  0.00000000000E+00 0.  1.
         21    1    1    2  502  501  0.19498681677E+02 -0.35538026647E+02 -0.12469984199E+03  0.13112284514E+03  0.00000000000E+00 0. -1.
<scales pt_clust_5="13000.00000" pt_clust_6="13000.00000" pt_clust_7="13000.00000" pt_clust_8="13000.00000" pt_clust_9="40.53579"></scales>
<clustering>
<clus scale="   40.536">  2  9  1 -1</clus>
<clus scale="   90.733">  7  8 -1 -1</clus>
<clus scale="  101.019">  5  6 -1 -1</clus>
<clus scale="  113.373">  2  7  1 -1</clus>
<clus scale="   40.536">  2  5  1 -1</clus>
</clustering>
</event>
<event>
 9    1  0.2423659E-006  0.9707850E+02  0.7546771E-02  0.1286685E+00
          2   -1    0    0  502    0  0.00000000000E+00  0.00000000000E+00  0.78128545799E+03  0.78128545799E+03  0.00000000000E+00 0. -1.
         -2   -1    0    0    0  501 -0.00000000000E+00 -0.00000000000E+00 -0.18339257016E+02  0.18339257016E+02  0.00000000000E+00 0.  1.
         23    2    1    2    0    0 -0.18512642005E+02 -0.47561002347E+01  0.23595214002E+03  0.25372277206E+03  0.91304404487E+02 0.  0.
         23    2    1    2    0    0  0.52193922869E+02  0.16945797755E+02  0.37858489383E+03  0.39323138818E+03  0.91066114258E+02 0.  0.
        -13    1    3    3    0    0  0.32527628422E+02 -0.78044181532E+01  0.45169198383E+02  0.56206868228E+02  0.00000000000E+00 0.  1.
         13    1    3    3    0    0 -0.51040270426E+02  0.30483179184E+01  0.19078294163E+03  0.19751590383E+03  0.00000000000E+00 0. -1.
        -13    1    4    4    0    0 -0.46761520410E+01  0.37128303319E+02  0.76309231040E+02  0.84991035099E+02  0.00000000000E+00 0. -1.
         13    1    4    4    0    0  0.56870074910E+02 -0.20182505564E+02  0.30227566279E+03  0.30824035308E+03  0.00000000000E+00 0.  1.
         21    1    1    2  502  501 -0.33681280864E+02 -0.12189697520E+02  0.14840916712E+03  0.15267055477E+03  0.00000000000E+00 0. -1.
<scales pt_clust_5="13000.00000" pt_clust_6="13000.00000" pt_clust_7="13000.00000" pt_clust_8="13000.00000" pt_clust_9="35.81923"></scales>
<clustering>
<clus scale="   35.819">  1  9  2 -1</clus>
<clus scale="   91.066">  7  8 -1 -1</clus>
<clus scale="   91.304">  5  6 -1 -1</clus>
<clus scale="   96.854">  1  7  2 -1</clus>
<clus scale="   35.819">  1  5  2 -1</clus>
</clustering>
</event>
<event>
 9    1  0.2423659E-006  0.2093586E+03  0.7546771E-02  0.1142195E+00
          1   -1    0    0  502    0  0.00000000000E+00  0.00000000000E+00  0.11367926247E+04  0.11367926247E+04  0.00000000000E+00 0. -1.
         -1   -1    0    0    0  501 -0.00000000000E+00 -0.00000000000E+00 -0.81718753953E+02  0.81718753953E+02  0.00000000000E+00 0.  1.
         23    2    1    2    0    0  0.17292931377E+03 -0.60379439982E+02  0.10460443534E+03  0.22930040953E+03  0.89924221358E+02 0.  0.
         23    2    1    2    0    0 -0.20354654475E+03  0.56487591949E+02  0.70028340945E+03  0.73712842530E+03  0.91320413445E+02 0.  0.
        -11    1    3    3    0    0  0.56290010101E+02  0.22102595657E+02  0.22456898252E+02  0.64508931560E+02  0.00000000000E+00 0.  1.
         11    1    3    3    0    0  0.11663930367E+03 -0.82482035639E+02  0.82147537086E+02  0.16479147797E+03  0.00000000000E+00 0. -1.
        -13    1    4    4    0    0 -0.76857933867E+02  0.49284607351E+02  0.18304477820E+03  0.20455196246E+03  0.00000000000E+00 0.  1.
         13    1    4    4    0    0 -0.12668861088E+03  0.72029845982E+01  0.51723863125E+03  0.53257646284E+03  0.00000000000E+00 0. -1.
         21    1    1    2  502  501  0.30617230983E+02  0.38918480328E+01  0.25018602600E+03  0.25208254386E+03  0.00000000000E+00 0. -1.
<scales pt_clust_5="13000.00000" pt_clust_6="13000.00000" pt_clust_7="13000.00000" pt_clust_8="13000.00000" pt_clust_9="30.86359"></scales>
<clustering>
<clus scale="   30.864">  1  9  2 -1</clus>
<clus scale="   89.924">  5  6 -1 -1</clus>
<clus scale="   91.320">  7  8 -1 -1</clus>
<clus scale="  208.753">  2  5  1 -1</clus>
<clus scale="   30.864">  1  5  2 -1</clus>
</clustering>
</event>
<event>
 9    1  0.2423659E-006  0.1770812E+03  0.7546771E-02  0.1186169E+00
          2   -1    0    0  502    0  0.00000000000E+00  0.00000000000E+00  0.54517980653E+03  0.54517980653E+03  0.00000000000E+00 0. -1.
         -2   -1    0    0    0  501 -0.00000000000E+00 -0.00000000000E+00 -0.16077053129E+03  0.16077053129E+03  0.00000000000E+00 0.  1.
         23    2    1    2    0    0  0.92010756906E+02  0.45689734046E+02  0.12199539040E+03  0.18534900989E+03  0.94434363480E+02 0.  0.
         23    2    1    2    0    0  0.58682916355E+02  0.29210183877E+02  0.31940476023E+03  0.34293157601E+03  0.10623438922E+03 0.  0.
        -11    1    3    3    0    0  0.27519615326E+02  0.28308087747E+02 -0.69917102798E+01  0.40094402007E+02  0.00000000000E+00 0.  1.
         11    1    3    3    0    0  0.64491141580E+02  0.17381646298E+02  0.12898710068E+03  0.14525460789E+03  0.00000000000E+00 0. -1.
        -13    1    4    4    0    0  0.19190429317E+01 -0.36316796318E+02  0.12254908214E+03  0.12783141223E+03  0.00000000000E+00 0.  1.
         13    1    4    4    0    0  0.56763873424E+02  0.65526980196E+02  0.19685567809E+03  0.21510016378E+03  0.00000000000E+00 0. -1.
         21    1    1    2  502  501 -0.15069367326E+03 -0.74899917923E+02 -0.56990875394E+02  0.17766975191E+03  0.00000000000E+00 0.  1.
<scales pt_clust_5="13000.00000" pt_clust_6="13000.00000" pt_clust_7="13000.00000" pt_clust_8="13000.00000" pt_clust_9="149.79953"></scales>
<clustering>
<clus scale="   94.434">  5  6 -1 -1</clus>
<clus scale="  106.234">  7  8 -1 -1</clus>
<clus scale="  124.831">  1  7  2 -1</clus>
<clus scale="  149.800">  2  9  1 -1</clus>
<clus scale="  124.831">  1  5  2 -1</clus>
</clustering>
</event>
<event>
 9    1  0.2423659E-006  0.2162839E+03  0.7546771E-02  0.1138692E+00
         -2   -1    0    0    0  501 -0.00000000000E+00  0.00000000000E+00  0.10874200858E+03  0.10874200858E+03  0.00000000000E+00 0.  1.
          2   -1    0    0  502    0  0.00000000000E+00 -0.00000000000E+00 -0.11430639798E+04  0.11430639798E+04  0.00000000000E+00 0. -1.
         23    2    1    2    0    0  0.15615631863E+03  0.85004283996E+02 -0.47949509291E+02  0.21592457553E+03  0.11275523371E+03 0.  0.
         23    2    1    2    0    0 -0.20497872459E+03 -0.10808432242E+03 -0.90140202991E+03  0.93520226996E+03  0.91537795112E+02 0.  0.
        -11    1    4    4    0    0 -0.16055089378E+03 -0.36258043749E+02 -0.58283979092E+03  0.60563475553E+03  0.00000000000E+00 0. -1.
         11    1    4    4    0    0 -0.44427830810E+02 -0.71826278673E+02 -0.31856223899E+03  0.32956751443E+03  0.00000000000E+00 0.  1.
        -13    1    3    3    0    0  0.82698561204E+02  0.10444518657E+03 -0.18811351322E+02  0.13454261764E+03  0.00000000000E+00 0. -1.
         13    1    3    3    0    0  0.73457757429E+02 -0.19440902574E+02 -0.29138157970E+02  0.81381957885E+02  0.00000000000E+00 0.  1.
         21    1    1    2  502  501  0.48822405959E+02  0.23080038426E+02 -0.84970432040E+02  0.10067914292E+03  0.00000000000E+00 0.  1.
<scales pt_clust_5="13000.00000" pt_clust_6="13000.00000" pt_clust_7="13000.00000" pt_clust_8="13000.00000" pt_clust_9="54.00292"></scales>
<clustering>
<clus scale="   54.003">  2  9  1 -1</clus>
<clus scale="   91.538">  5  6 -1 -1</clus>
<clus scale="  112.755">  7  8 -1 -1</clus>
<clus scale="  206.020">  2  5  1 -1</clus>
<clus scale="   54.003">  2  5  1 -1</clus>
</clustering>
</event>
<event>
 9    1  0.2423659E-006  0.1051781E+03  0.7546771E-02  0.1274838E+00
         -3   -1    0    0    0  501 -0.00000000000E+00  0.00000000000E+00  0.33602347652E+03  0.33602347652E+03  0.00000000000E+00 0.  1.
          3   -1    0    0  502    0  0.00000000000E+00 -0.00000000000E+00 -0.87031574869E+02  0.87031574869E+02  0.00000000000E+00 0. -1.
         23    2    1    2    0    0  0.46753297754E+02  0.14441369884E+02  0.18514775416E+03  0.21251605619E+03  0.92135548267E+02 0.  0.
         23    2    1    2    0    0  0.14608811636E+02  0.14935871006E+02  0.89856184457E+02  0.13770386070E+03  0.10223366249E+03 0.  0.
        -11    1    4    4    0    0  0.30317379482E+02  0.53264832575E+02  0.41428689788E+02  0.73977173678E+02  0.00000000000E+00 0.  1.
         11    1    4    4    0    0 -0.15708567846E+02 -0.38328961569E+02  0.48427494669E+02  0.63726687021E+02  0.00000000000E+00 0. -1.
        -13    1    3    3    0    0  0.73945156986E+02  0.33432880863E+01  0.14465869010E+03  0.16249677054E+03  0.00000000000E+00 0.  1.
         13    1    3    3    0    0 -0.27191859232E+02  0.11098081798E+02  0.40489064060E+02  0.50019285646E+02  0.00000000000E+00 0. -1.
         21    1    1    2  502  501 -0.61362109390E+02 -0.29377240890E+02 -0.26012036960E+02  0.72835134502E+02  0.00000000000E+00 0. -1.
<scales pt_clust_5="13000.00000" pt_clust_6="13000.00000" pt_clust_7="13000.00000" pt_clust_8="13000.00000" pt_clust_9="68.03184"></scales>
<clustering>
<clus scale="   68.032">  2  9  1 -1</clus>
<clus scale="   92.136">  7  8 -1 -1</clus>
<clus scale="   95.392">  1  7  2 -1</clus>
<clus scale="  102.234">  5  6 -1 -1</clus>
<clus scale="   68.032">  2  5  1 -1</clus>
</clustering>
</event>
<event>
 9    1  0.2423659E-006  0.2310936E+03  0.7546771E-02  0.1126608E+00
         -1   -1    0    0    0  501 -0.00000000000E+00  0.00000000000E+00  0.27240582629E+03  0.27240582629E+03  0.00000000000E+00 0.  1.
          1   -1    0    0  502    0  0.00000000000E+00 -0.00000000000E+00 -0.11547698688E+04  0.11547698688E+04  0.00000000000E+00 0. -1.
         23    2    1    2    0    0 -0.42941837821E+02 -0.17020567171E+03  0.17635782487E+03  0.26275454879E+03  0.84403189529E+02 0.  0.
         23    2    1    2    0    0  0.49308583258E+02  0.20681831777E+03 -0.10907664092E+04  0.11153510541E+04  0.95034001920E+02 0.  0.
        -11    1    3    3    0    0 -0.53209425351E+00 -0.26477940009E+02  0.80790942986E+02  0.85020826272E+02  0.00000000000E+00 0. -1.
         11    1    3    3    0    0 -0.42409743568E+02 -0.14372773170E+03  0.95566881883E+02  0.17773372252E+03  0.00000000000E+00 0.  1.
        -13    1    4    4    0    0  0.96542697104E+00  0.13702702479E+03 -0.82648215047E+03  0.83776493279E+03  0.00000000000E+00 0. -1.
         13    1    4    4    0    0  0.48343156287E+02  0.69791292986E+02 -0.26428425870E+03  0.27758612129E+03  0.00000000000E+00 0.  1.
         21    1    1    2  502  501 -0.63667454366E+01 -0.36612646067E+02  0.32044541737E+02  0.49070092262E+02  0.00000000000E+00 0.  1.
<scales pt_clust_5="13000.00000" pt_clust_6="13000.00000" pt_clust_7="13000.00000" pt_clust_8="13000.00000" pt_clust_9="37.16209"></scales>
<clustering>
<clus scale="   37.162">  1  9  2 -1</clus>
<clus scale="   84.403">  5  6 -1 -1</clus>
<clus scale="   95.034">  7  8 -1 -1</clus>
<clus scale="  226.929">  1  5  2 -1</clus>
<clus scale="  231.094">  2  5  1 -1</clus>
</clustering>
</event>
<event>
 9    1  0.2423659E-006  0.1076086E+03  0.7546771E-02  0.1267808E+00
         -1   -1    0    0    0  501 -0.00000000000E+00  0.00000000000E+00  0.29808440760E+03  0.29808440760E+03  0.00000000000E+00 0.  1.
          1   -1    0    0  502    0  0.00000000000E+00 -0.00000000000E+00 -0.29318398036E+03  0.29318398036E+03  0.00000000000E+00 0. -1.
         23    2    1    2    0    0 -0.24389088230E+02 -0.13982878579E+02  0.67001697237E+02  0.11687603397E+03  0.91544696000E+02 0.  0.
         23    2    1    2    0    0 -0.34293403517E+02  0.38171695067E+02 -0.25148962498E+03  0.27465081429E+03  0.97739053028E+02 0.  0.
        -13    1    4    4    0    0 -0.73928952214E+00 -0.26190547019E+02 -0.13408572534E+03  0.13662164193E+03  0.00000000000E+00 0.  1.
         13    1    4    4    0    0 -0.33554113994E+02  0.64362242086E+02 -0.11740389964E+03  0.13802917236E+03  0.00000000000E+00 0. -1.
        -13    1    3    3    0    0 -0.35714308430E+02 -0.37194001398E+02  0.73929926972E+02  0.90136228392E+02  0.00000000000E+00 0.  1.
         13    1    3    3    0    0  0.11325220200E+02  0.23211122819E+02 -0.69282297342E+01  0.26739805578E+02  0.00000000000E+00 0. -1.
         21    1    1    2  502  501  0.58682491746E+02 -0.24188816488E+02  0.18938835498E+03  0.19974153971E+03  0.00000000000E+00 0.  1.
<scales pt_clust_5="13000.00000" pt_clust_6="13000.00000" pt_clust_7="13000.00000" pt_clust_8="13000.00000" pt_clust_9="63.47231"></scales>
<clustering>
<clus scale="   63.472">  1  9  2 -1</clus>
<clus scale="   91.545">  7  8 -1 -1</clus>
<clus scale="   97.739">  5  6 -1 -1</clus>
<clus scale="  102.015">  1  7  2 -1</clus>
<clus scale="  107.609">  2  5  1 -1</clus>
</clustering>
</event>
<event>
 9    1  0.2423659E-006  0.1713686E+03  0.7546771E-02  0.1177000E+00
         -1   -1    0    0    0  501 -0.00000000000E+00  0.00000000000E+00  0.31602811956E+03  0.31602811956E+03  0.00000000000E+00 0.  1.
          1   -1    0    0  502    0  0.00000000000E+00 -0.00000000000E+00 -0.30355559955E+03  0.30355559955E+03  0.00000000000E+00 0. -1.
         23    2    1    2    0    0 -0.11880628635E+03  0.16736363104E+03  0.17290829301E+03  0.28218903623E+03  0.87223022805E+02 0.  0.
         23    2    1    2    0    0  0.42133957209E+02 -0.13111445696E+03 -0.18597939130E+03  0.24882197199E+03  0.91420832313E+02 0.  0.
        -11    1    3    3    0    0 -0.49944322653E+02  0.27232012144E+02  0.87087515493E+02  0.10402044609E+03  0.00000000000E+00 0.  1.
         11    1    3    3    0    0 -0.68861963698E+02  0.14013161890E+03  0.85820777515E+02  0.17816859014E+03  0.00000000000E+00 0. -1.
        -13    1    4    4    0    0 -0.15930046392E+02 -0.15764638538E+02 -0.75876968041E+02  0.79117662285E+02  0.00000000000E+00 0.  1.
         13    1    4    4    0    0  0.58064003601E+02 -0.11534981842E+03 -0.11010242326E+03  0.16970430970E+03  0.00000000000E+00 0. -1.
         21    1    1    2  502  501  0.76672329141E+02 -0.36249174084E+02  0.25543618308E+02  0.88572710888E+02  0.00000000000E+00 0. -1.
<scales pt_clust_5="13000.00000" pt_clust_6="13000.00000" pt_clust_7="13000.00000" pt_clust_8="13000.00000" pt_clust_9="84.80948"></scales>
<clustering>
<clus scale="   84.809">  1  9  2 -1</clus>
<clus scale="   87.223">  5  6 -1 -1</clus>
<clus scale="   91.421">  7  8 -1 -1</clus>
<clus scale="  169.166">  1  5  2 -1</clus>
<clus scale="  171.369">  2  5  1 -1</clus>
</clustering>
</event>
<event>
 9    1  0.2423659E-006  0.1797458E+03  0.7546771E-02  0.1193160E+00
          1   -1    0    0  502    0  0.00000000000E+00  0.00000000000E+00  0.73494605745E+03  0.73494605745E+03  0.00000000000E+00 0. -1.
         -1   -1    0    0    0  501 -0.00000000000E+00 -0.00000000000E+00 -0.99151544935E+02  0.99151544935E+02  0.00000000000E+00 0.  1.
         23    2    1    2    0    0  0.40550204267E+02 -0.33681840011E+02 -0.90056071285E-01  0.10227018898E+03  0.87637880118E+02 0.  0.
         23    2    1    2    0    0  0.92973253693E+02  0.11922573046E+03  0.19454314493E+03  0.26286203808E+03  0.91600300861E+02 0.  0.
        -11    1    4    4    0    0  0.33465170371E+02  0.94161804442E+01  0.10100747552E+03  0.10682271385E+03  0.00000000000E+00 0. -1.
         11    1    4    4    0    0  0.59508083322E+02  0.10980955002E+03  0.93535669409E+02  0.15603932423E+03  0.00000000000E+00 0.  1.
        -13    1    3    3    0    0  0.56225442930E+02  0.87479415097E+01  0.25642166604E+01  0.56959653443E+02  0.00000000000E+00 0.  1.
         13    1    3    3    0    0 -0.15675238663E+02 -0.42429781520E+02 -0.26542727316E+01  0.45310535538E+02  0.00000000000E+00 0. -1.
         21    1    1    2  502  501 -0.13352345796E+03 -0.85543890449E+02  0.44134142366E+03  0.46896537533E+03  0.00000000000E+00 0. -1.
<scales pt_clust_5="13000.00000" pt_clust_6="13000.00000" pt_clust_7="13000.00000" pt_clust_8="13000.00000" pt_clust_9="154.65428"></scales>
<clustering>
<clus scale="   87.638">  7  8 -1 -1</clus>
<clus scale="   91.600">  5  6 -1 -1</clus>
<clus scale="  102.270">  2  7  1 -1</clus>
<clus scale="  154.654">  1  9  2 -1</clus>
<clus scale="  154.654">  1  5  2 -1</clus>
</clustering>
</event>
<event>
 9    1  0.2423659E-006  0.9108614E+02  0.7546771E-02  0.1307183E+00
          2   -1    0    0  502    0  0.00000000000E+00  0.00000000000E+00  0.51321847741E+03  0.51321847741E+03  0.00000000000E+00 0. -1.
         -2   -1    0    0    0  501 -0.00000000000E+00 -0.00000000000E+00 -0.35876481856E+02  0.35876481856E+02  0.00000000000E+00 0.  1.
         23    2    1    2    0    0  0.54976015110E+01  0.34153700779E+02  0.15344360794E+03  0.18025396622E+03  0.88033247244E+02 0.  0.
         23    2    1    2    0    0 -0.32079696391E+02  0.39276150659E+02  0.22323904310E+03  0.24144062221E+03  0.76721449158E+02 0.  0.
        -11    1    4    4    0    0  0.17911851684E+02  0.17357781894E+02  0.13789956188E+03  0.14013713351E+03  0.00000000000E+00 0.  1.
         11    1    4    4    0    0 -0.49991548075E+02  0.21918368766E+02  0.85339481220E+02  0.10130348870E+03  0.00000000000E+00 0. -1.
        -11    1    3    3    0    0 -0.11623186012E+00 -0.28953190763E+02  0.67797466730E+02  0.73721077449E+02  0.00000000000E+00 0.  1.
         11    1    3    3    0    0  0.56138333711E+01  0.63106891542E+02  0.85646141209E+02  0.10653288877E+03  0.00000000000E+00 0. -1.
         21    1    1    2  502  501  0.26582094880E+02 -0.73429851438E+02  0.10065934452E+03  0.12740037084E+03  0.00000000000E+00 0.  1.
<scales pt_clust_5="13000.00000" pt_clust_6="13000.00000" pt_clust_7="13000.00000" pt_clust_8="13000.00000" pt_clust_9="78.09322"></scales>
<clustering>
<clus scale="   76.721">  5  6 -1 -1</clus>
<clus scale="   78.093">  2  9  1 -1</clus>
<clus scale="   80.206">  1  5  2 -1</clus>
<clus scale="   88.033">  7  8 -1 -1</clus>
<clus scale="   80.206">  1  5  2 -1</clus>
</clustering>
</event>
<event>
 9    1  0.2423659E-006  0.1087793E+03  0.7546771E-02  0.1263459E+00
         -2   -1    0    0    0  501 -0.00000000000E+00  0.00000000000E+00  0.31848401777E+02  0.31848401777E+02  0.00000000000E+00 0.  1.
          2   -1    0    0  502    0  0.00000000000E+00 -0.00000000000E+00 -0.49364819742E+03  0.49364819742E+03  0.00000000000E+00 0. -1.
         23    2    1    2    0    0 -0.15637623813E+01  0.56233068648E+02 -0.20164730870E+03  0.22838772072E+03  0.91294635693E+02 0.  0.
         23    2    1    2    0    0 -0.30486089695E+02 -0.58445994066E+02 -0.19961122891E+03  0.22857177917E+03  0.89750095491E+02 0.  0.
        -11    1    3    3    0    0  0.39710350101E+02  0.34761690214E+02 -0.63231807180E+02  0.82362299937E+02  0.00000000000E+00 0.  1.
         11    1    3    3    0    0 -0.41274112482E+02  0.21471378434E+02 -0.13841550152E+03  0.14602542078E+03  0.00000000000E+00 0. -1.
        -13    1    4    4    0    0 -0.48717104437E+02 -0.48710810681E+02 -0.19578637692E+03  0.20755337802E+03  0.00000000000E+00 0. -1.
         13    1    4    4    0    0  0.18231014742E+02 -0.97351833847E+01 -0.38248519871E+01  0.21018401147E+02  0.00000000000E+00 0.  1.
         21    1    1    2  502  501  0.32049852076E+02  0.22129254172E+01 -0.60541258028E+02  0.68537099301E+02  0.00000000000E+00 0. -1.
<scales pt_clust_5="13000.00000" pt_clust_6="13000.00000" pt_clust_7="13000.00000" pt_clust_8="13000.00000" pt_clust_9="32.12616"></scales>
<clustering>
<clus scale="   32.126">  2  9  1 -1</clus>
<clus scale="   89.750">  7  8 -1 -1</clus>
<clus scale="   91.295">  5  6 -1 -1</clus>
<clus scale="  107.486">  2  7  1 -1</clus>
<clus scale="   32.126">  2  5  1 -1</clus>
</clustering>
</event>
<event>
 9    1  0.2423659E-006  0.1236864E+03  0.7546771E-02  0.1239952E+00
          1   -1    0    0  502    0  0.00000000000E+00  0.00000000000E+00  0.13371946748E+03  0.13371946748E+03  0.00000000000E+00 0. -1.
         -1   -1    0    0    0  501 -0.00000000000E+00 -0.00000000000E+00 -0.39152800893E+03  0.39152800893E+03  0.00000000000E+00 0.  1.
         23    2    1    2    0    0  0.20900472242E+02 -0.23641868891E+00 -0.40270198717E+02  0.11024571870E+03  0.10047658411E+03 0.  0.
         23    2    1    2    0    0 -0.11098590348E+03  0.92134982807E+00  0.33816414558E+02  0.14799039453E+03  0.91863416680E+02 0.  0.
        -11    1    4    4    0    0 -0.53504926287E+01 -0.32747103578E+02  0.88948860604E+01  0.34352868325E+02  0.00000000000E+00 0.  1.
         11    1    4    4    0    0 -0.10563541085E+03  0.33668453406E+02  0.24921528498E+02  0.11363752621E+03  0.00000000000E+00 0. -1.
        -13    1    3    3    0    0  0.29421387112E+02 -0.36100731896E+02 -0.53637510575E+02  0.71034241065E+02  0.00000000000E+00 0.  1.
         13    1    3    3    0    0 -0.85209148701E+01  0.35864313207E+02  0.13367311858E+02  0.39211477635E+02  0.00000000000E+00 0. -1.
         21    1    1    2  502  501  0.90085431238E+02 -0.68493113916E+00 -0.25135475729E+03  0.26701136318E+03  0.00000000000E+00 0.  1.
<scales pt_clust_5="13000.00000" pt_clust_6="13000.00000" pt_clust_7="13000.00000" pt_clust_8="13000.00000" pt_clust_9="90.08804"></scales>
<clustering>
<clus scale="   90.088">  2  9  1 -1</clus>
<clus scale="   91.863">  5  6 -1 -1</clus>
<clus scale="  100.477">  7  8 -1 -1</clus>
<clus scale="  116.798">  1  5  2 -1</clus>
<clus scale="  116.798">  1  5  2 -1</clus>
</clustering>
</event>
<event>
 9    1  0.2423659E-006  0.1492613E+03  0.7546771E-02  0.1202373E+00
          1   -1    0    0  502    0  0.00000000000E+00  0.00000000000E+00  0.22691737257E+03  0.22691737257E+03  0.00000000000E+00 0. -1.
         -1   -1    0    0    0  501 -0.00000000000E+00 -0.00000000000E+00 -0.18607125727E+03  0.18607125727E+03  0.00000000000E+00 0.  1.
         23    2    1    2    0    0 -0.18308562004E+02 -0.15912646000E+03  0.66905388020E+02  0.19412118558E+03  0.86892289827E+02 0.  0.
         23    2    1    2    0    0 -0.10630628394E+02  0.82421375805E+02  0.18701010476E+02  0.12546171834E+03  0.92112005328E+02 0.  0.
        -11    1    4    4    0    0  0.39131159224E+02  0.35117496338E+02  0.21362238683E+02  0.56752369227E+02  0.00000000000E+00 0.  1.
         11    1    4    4    0    0 -0.49761787618E+02  0.47303879467E+02 -0.26612282074E+01  0.68709349110E+02  0.00000000000E+00 0. -1.
        -13    1    3    3    0    0 -0.37158705106E+02 -0.39948880539E+02 -0.30593832457E+01  0.54644690935E+02  0.00000000000E+00 0.  1.
         13    1    3    3    0    0  0.18850143102E+02 -0.11917757946E+03  0.69964771266E+02  0.13947649465E+03  0.00000000000E+00 0. -1.
         21    1    1    2  502  501  0.28939190398E+02  0.76705084196E+02 -0.44760283198E+02  0.93405725919E+02  0.00000000000E+00 0.  1.
<scales pt_clust_5="13000.00000" pt_clust_6="13000.00000" pt_clust_7="13000.00000" pt_clust_8="13000.00000" pt_clust_9="81.98260"></scales>
<clustering>
<clus scale="   81.983">  2  9  1 -1</clus>
<clus scale="   86.892">  7  8 -1 -1</clus>
<clus scale="   92.112">  5  6 -1 -1</clus>
<clus scale="  146.098">  2  7  1 -1</clus>
<clus scale="  149.261">  1  5  2 -1</clus>
</clustering>
</event>
<event>
 9    1  0.2423659E-006  0.9927792E+02  0.7546771E-02  0.1282299E+00
          1   -1    0    0  502    0  0.00000000000E+00  0.00000000000E+00  0.19926821682E+03  0.19926821682E+03  0.00000000000E+00 0. -1.
         -1   -1    0    0    0  501 -0.00000000000E+00 -0.00000000000E+00 -0.12909740807E+03  0.12909740807E+03  0.00000000000E+00 0.  1.
         23    2    1    2    0    0  0.35192810447E+02  0.25955618886E+02 -0.81291149533E+02  0.12804792262E+03  0.88745655872E+02 0.  0.
         23    2    1    2    0    0 -0.98418748262E+01 -0.43038128086E+02  0.12323657734E+03  0.15871056121E+03  0.89736532568E+02 0.  0.
        -13    1    3    3    0    0  0.58106471882E+02  0.10845465078E+02 -0.22649506172E+02  0.63300760794E+02  0.00000000000E+00 0.  1.
         13    1    3    3    0    0 -0.22913661435E+02  0.15110153808E+02 -0.58641643361E+02  0.64747161826E+02  0.00000000000E+00 0. -1.
        -13    1    4    4    0    0 -0.25373510070E+02  0.21185418067E+02  0.51361754017E+02  0.61079184078E+02  0.00000000000E+00 0.  1.
         13    1    4    4    0    0  0.15531635244E+02 -0.64223546153E+02  0.71874823322E+02  0.97631377135E+02  0.00000000000E+00 0. -1.
         21    1    1    2  502  501 -0.25350935621E+02  0.17082509201E+02  0.28225380945E+02  0.41607141057E+02  0.00000000000E+00 0. -1.
<scales pt_clust_5="13000.00000" pt_clust_6="13000.00000" pt_clust_7="13000.00000" pt_clust_8="13000.00000" pt_clust_9="30.56930"></scales>
<clustering>
<clus scale="   30.569">  1  9  2 -1</clus>
<clus scale="   88.746">  5  6 -1 -1</clus>
<clus scale="   89.737">  7  8 -1 -1</clus>
<clus scale="   98.383">  2  5  1 -1</clus>
<clus scale="   30.569">  1  5  2 -1</clus>
</clustering>
</event>
<event>
 9    1  0.2423659E-006  0.1077913E+03  0.7546771E-02  0.1266344E+00
          1   -1    0    0  502    0  0.00000000000E+00  0.00000000000E+00  0.35565025144E+03  0.35565025144E+03  0.00000000000E+00 0. -1.
         -1   -1    0    0    0  501 -0.00000000000E+00 -0.00000000000E+00 -0.79494769203E+02  0.79494769203E+02  0.00000000000E+00 0.  1.
         23    2    1    2    0    0  0.46705404462E+02  0.42985800455E+01 -0.12116878156E+02  0.10356086381E+03  0.91532295830E+02 0.  0.
         23    2    1    2    0    0 -0.47833244612E+02  0.37564364311E+02  0.26014185450E+03  0.28113513806E+03  0.87544735039E+02 0.  0.
        -13    1    3    3    0    0  0.17603902898E+02  0.29437869796E+02 -0.42454264706E+02  0.54578843585E+02  0.00000000000E+00 0.  1.
         13    1    3    3    0    0  0.29101501563E+02 -0.25139289750E+02  0.30337386550E+02  0.48982020222E+02  0.00000000000E+00 0. -1.
        -13    1    4    4    0    0 -0.17082814831E+02  0.63875245196E+02  0.16300982527E+03  0.17590927390E+03  0.00000000000E+00 0.  1.
         13    1    4    4    0    0 -0.30750429781E+02 -0.26310880886E+02  0.97132029230E+02  0.10522586415E+03  0.00000000000E+00 0. -1.
         21    1    1    2  502  501  0.11278401504E+01 -0.41862944356E+02  0.28130505894E+02  0.50449018776E+02  0.00000000000E+00 0. -1.
<scales pt_clust_5="13000.00000" pt_clust_6="13000.00000" pt_clust_7="13000.00000" pt_clust_8="13000.00000" pt_clust_9="41.87813"></scales>
<clustering>
<clus scale="   41.878">  2  9  1 -1</clus>
<clus scale="   87.545">  7  8 -1 -1</clus>
<clus scale="   91.532">  5  6 -1 -1</clus>
<clus scale="  104.426">  1  7  2 -1</clus>
<clus scale="  104.426">  1  5  2 -1</clus>
</clustering>
</event>
<event>
 9    1  0.2423659E-006  0.1189137E+03  0.7546771E-02  0.1246160E+00
         -2   -1    0    0    0  501 -0.00000000000E+00  0.00000000000E+00  0.58336684760E+02  0.58336684760E+02  0.00000000000E+00 0.  1.
          2   -1    0    0  502    0  0.00000000000E+00 -0.00000000000E+00 -0.45688596870E+03  0.45688596870E+03  0.00000000000E+00 0. -1.
         23    2    1    2    0    0 -0.12460645494E+02 -0.35351938704E+02 -0.42315887215E+02  0.10945424984E+03  0.93726043556E+02 0.  0.
         23    2    1    2    0    0  0.54630986816E+02  0.67107685392E+02 -0.31488724916E+03  0.33871417890E+03  0.89918458303E+02 0.  0.
        -11    1    4    4    0    0  0.73670958812E+01  0.28363118290E+02 -0.15496492540E+02  0.33149387052E+02  0.00000000000E+00 0.  1.
         11    1    4    4    0    0  0.47263890935E+02  0.38744567102E+02 -0.29939075662E+03  0.30556479185E+03  0.00000000000E+00 0. -1.
        -13    1    3    3    0    0  0.30906981889E+02 -0.41265826848E+02 -0.40648133113E+02  0.65653489782E+02  0.00000000000E+00 0. -1.
         13    1    3    3    0    0 -0.43367627383E+02  0.59138881444E+01 -0.16677541023E+01  0.43800760057E+02  0.00000000000E+00 0.  1.
         21    1    1    2  502  501 -0.42170341322E+02 -0.31755746688E+02 -0.41346147566E+02  0.67054224725E+02  0.00000000000E+00 0.  1.
<scales pt_clust_5="13000.00000" pt_clust_6="13000.00000" pt_clust_7="13000.00000" pt_clust_8="13000.00000" pt_clust_9="52.78982"></scales>
<clustering>
<clus scale="   52.790">  1  9  2 -1</clus>
<clus scale="   89.918">  5  6 -1 -1</clus>
<clus scale="   93.726">  7  8 -1 -1</clus>
<clus scale="  115.936">  2  5  1 -1</clus>
<clus scale="  115.936">  2  5  1 -1</clus>
</clustering>
</event>
<event>
 9    1  0.2423659E-006  0.9987667E+02  0.7546771E-02  0.1282281E+00
          1   -1    0    0  502    0  0.00000000000E+00  0.00000000000E+00  0.94706752697E+02  0.94706752697E+02  0.00000000000E+00 0. -1.
         -1   -1    0    0    0  501 -0.00000000000E+00 -0.00000000000E+00 -0.36040664364E+03  0.36040664364E+03  0.00000000000E+00 0.  1.
         23    2    1    2    0    0 -0.39721565363E+02 -0.93310801242E+01 -0.29844333255E+03  0.31402302569E+03  0.88753400552E+02 0.  0.
         23    2    1    2    0    0  0.13562257269E+02  0.30442645411E+02  0.62394881263E+01  0.98283044889E+02  0.92249315546E+02 0.  0.
        -11    1    4    4    0    0 -0.71783257037E+01 -0.31736230672E+02  0.20229266938E+01  0.32600750445E+02  0.00000000000E+00 0.  1.
         11    1    4    4    0    0  0.20740582972E+02  0.62178876084E+02  0.42165614325E+01  0.65682294443E+02  0.00000000000E+00 0. -1.
        -11    1    3    3    0    0 -0.14742761684E+02 -0.43829872640E+02 -0.21954515134E+03  0.22436238597E+03  0.00000000000E+00 0.  1.
         11    1    3    3    0    0 -0.24978803679E+02  0.34498792516E+02 -0.78898181205E+02  0.89660639724E+02  0.00000000000E+00 0. -1.
         21    1    1    2  502  501  0.26159308095E+02 -0.21111565287E+02  0.26503953477E+02  0.42807325761E+02  0.00000000000E+00 0.  1.
<scales pt_clust_5="13000.00000" pt_clust_6="13000.00000" pt_clust_7="13000.00000" pt_clust_8="13000.00000" pt_clust_9="33.61559"></scales>
<clustering>
<clus scale="   33.616">  1  9  2 -1</clus>
<clus scale="   88.753">  7  8 -1 -1</clus>
<clus scale="   92.249">  5  6 -1 -1</clus>
<clus scale="   96.657">  2  7  1 -1</clus>
<clus scale="   33.616">  1  5  2 -1</clus>
</clustering>
</event>
<event>
 9    1  0.2423659E-006  0.9570347E+02  0.7546771E-02  0.1290289E+00
          4   -1    0    0  502    0  0.00000000000E+00  0.00000000000E+00  0.94483439398E+02  0.94483439398E+02  0.00000000000E+00 0. -1.
         -4   -1    0    0    0  501 -0.00000000000E+00 -0.00000000000E+00 -0.36348281602E+03  0.36348281602E+03  0.00000000000E+00 0.  1.
         23    2    1    2    0    0  0.11735460352E+02  0.23151304790E+02 -0.20733049211E+03  0.22732582310E+03  0.89539895850E+02 0.  0.
         23    2    1    2    0    0 -0.64068112844E+02  0.10958350731E+02 -0.10604331004E+03  0.15401625365E+03  0.90835093710E+02 0.  0.
        -13    1    3    3    0    0  0.23490145004E+02  0.50218567182E+02 -0.17491061989E+03  0.18348682882E+03  0.00000000000E+00 0.  1.
         13    1    3    3    0    0 -0.11754684652E+02 -0.27067262393E+02 -0.32419872219E+02  0.43838994279E+02  0.00000000000E+00 0. -1.
        -13    1    4    4    0    0  0.80309479100E+01  0.27937307414E+02 -0.62428014630E+01  0.29731495757E+02  0.00000000000E+00 0.  1.
         13    1    4    4    0    0 -0.72099060754E+02 -0.16978956683E+02 -0.99800508575E+02  0.12428475789E+03  0.00000000000E+00 0. -1.
         21    1    1    2  502  501  0.52332652493E+02 -0.34109655521E+02  0.44374425521E+02  0.76624178671E+02  0.00000000000E+00 0. -1.
<scales pt_clust_5="13000.00000" pt_clust_6="13000.00000" pt_clust_7="13000.00000" pt_clust_8="13000.00000" pt_clust_9="62.46739"></scales>
<clustering>
<clus scale="   62.467">  1  9  2 -1</clus>
<clus scale="   89.540">  5  6 -1 -1</clus>
<clus scale="   90.835">  7  8 -1 -1</clus>
<clus scale="   94.475">  2  5  1 -1</clus>
<clus scale="   62.467">  1  5  2 -1</clus>
</clustering>
</event>
<event>
 9    1  0.2423659E-006  0.1032431E+03  0.7546771E-02  0.1273844E+00
         -1   -1    0    0    0  501 -0.00000000000E+00  0.00000000000E+00  0.14950360853E+03  0.14950360853E+03  0.00000000000E+00 0.  1.
          1   -1    0    0  502    0  0.00000000000E+00 -0.00000000000E+00 -0.39858982025E+03  0.39858982025E+03  0.00000000000E+00 0. -1.
         23    2    1    2    0    0 -0.34027047371E+02 -0.65946347172E+02  0.95866405610E+02  0.15140994370E+03  0.90707456518E+02 0.  0.
         23    2    1    2    0    0  0.32776353376E+02  0.33697065683E+02 -0.34935393443E+03  0.36411122718E+03  0.91208731384E+02 0.  0.
        -11    1    3    3    0    0 -0.16982598925E+02 -0.54457850029E+02  0.11172711759E+03  0.12544725944E+03  0.00000000000E+00 0.  1.
         11    1    3    3    0    0 -0.17044448446E+02 -0.11488497143E+02 -0.15860711979E+02  0.25962684259E+02  0.00000000000E+00 0. -1.
        -11    1    4    4    0    0  0.52580398278E+02  0.47439979725E+02 -0.30979616303E+03  0.31778752742E+03  0.00000000000E+00 0. -1.
         11    1    4    4    0    0 -0.19804044902E+02 -0.13742914042E+02 -0.39557771406E+02  0.46323699760E+02  0.00000000000E+00 0.  1.
         21    1    1    2  502  501  0.12506939952E+01  0.32249281489E+02  0.44013171045E+01  0.32572257893E+02  0.00000000000E+00 0. -1.
<scales pt_clust_5="13000.00000" pt_clust_6="13000.00000" pt_clust_7="13000.00000" pt_clust_8="13000.00000" pt_clust_9="32.27352"></scales>
<clustering>
<clus scale="   32.274">  1  9  2 -1</clus>
<clus scale="   90.707">  5  6 -1 -1</clus>
<clus scale="   91.209">  7  8 -1 -1</clus>
<clus scale="  102.801">  1  5  2 -1</clus>
<clus scale="  103.243">  2  5  1 -1</clus>
</clustering>
</event>
<event>
 9    1  0.2423659E-006  0.1032921E+03  0.7546771E-02  0.1275973E+00
         -1   -1    0    0    0  501 -0.00000000000E+00  0.00000000000E+00  0.75629236083E+03  0.75629236083E+03  0.00000000000E+00 0.  1.
          1   -1    0    0  502    0  0.00000000000E+00 -0.00000000000E+00 -0.21789923429E+02  0.21789923429E+02  0.00000000000E+00 0. -1.
         23    2    1    2    0    0 -0.23180619600E+02 -0.11567353702E+02  0.38965324043E+03  0.40222624538E+03  0.96359534561E+02 0.  0.
         23    2    1    2    0    0  0.49482648294E+02  0.16596087779E+02  0.32747689863E+03  0.34393611360E+03  0.91252224582E+02 0.  0.
        -11    1    4    4    0    0 -0.24190828434E+02 -0.78438983276E+01  0.54562481313E+02  0.60197901029E+02  0.00000000000E+00 0.  1.
         11    1    4    4    0    0  0.73673476728E+02  0.24439986107E+02  0.27291441732E+03  0.28373821257E+03  0.00000000000E+00 0. -1.
        -13    1    3    3    0    0 -0.17698114805E+02  0.41288202239E+02  0.21611944219E+03  0.22073865136E+03  0.00000000000E+00 0. -1.
         13    1    3    3    0    0 -0.54825047948E+01 -0.52855555941E+02  0.17353379824E+03  0.18148759402E+03  0.00000000000E+00 0.  1.
         21    1    1    2  502  501 -0.26302028694E+02 -0.50287340772E+01  0.17372298342E+02  0.31919925275E+02  0.00000000000E+00 0.  1.
<scales pt_clust_5="13000.00000" pt_clust_6="13000.00000" pt_clust_7="13000.00000" pt_clust_8="13000.00000" pt_clust_9="26.77844"></scales>
<clustering>
<clus scale="   26.778">  2  9  1 -1</clus>
<clus scale="   91.252">  5  6 -1 -1</clus>
<clus scale="   96.360">  7  8 -1 -1</clus>
<clus scale="   98.545">  2  5  1 -1</clus>
<clus scale="   26.778">  2  5  1 -1</clus>
</clustering>
</event>
<event>
 9    1  0.2423659E-006  0.3451106E+03  0.7546771E-02  0.1103619E+00
         -1   -1    0    0    0  501 -0.00000000000E+00  0.00000000000E+00  0.83192402967E+03  0.83192402967E+03  0.00000000000E+00 0.  1.
          1   -1    0    0  502    0  0.00000000000E+00 -0.00000000000E+00 -0.28869999318E+03  0.28869999318E+03  0.00000000000E+00 0. -1.
         23    2    1    2    0    0 -0.19839806127E+03 -0.21324225425E+03  0.66147925282E+02  0.31238092189E+03  0.91499959704E+02 0.  0.
         23    2    1    2    0    0 -0.81105308214E+02  0.78894724425E+00 -0.82932823814E+02  0.14728277801E+03  0.90750592148E+02 0.  0.
        -13    1    3    3    0    0 -0.81485774102E+02 -0.14930098721E+03  0.19536077092E+02  0.17120857008E+03  0.00000000000E+00 0.  1.
         13    1    3    3    0    0 -0.11691228717E+03 -0.63941267048E+02  0.46611848191E+02  0.14117235181E+03  0.00000000000E+00 0. -1.
        -13    1    4    4    0    0 -0.22460842334E+02 -0.42262178149E+02 -0.42751393703E+02  0.64173692459E+02  0.00000000000E+00 0.  1.
         13    1    4    4    0    0 -0.58644465879E+02  0.43051125393E+02 -0.40181430110E+02  0.83109085554E+02  0.00000000000E+00 0. -1.
         21    1    1    2  502  501  0.27950336949E+03  0.21245330701E+03  0.56000893502E+03  0.66096032295E+03  0.00000000000E+00 0.  1.
<scales pt_clust_5="13000.00000" pt_clust_6="13000.00000" pt_clust_7="13000.00000" pt_clust_8="13000.00000" pt_clust_9="332.75983"></scales>
<clustering>
<clus scale="   90.751">  7  8 -1 -1</clus>
<clus scale="   91.500">  5  6 -1 -1</clus>
<clus scale="  121.714">  2  7  1 -1</clus>
<clus scale="  332.760">  1  9  2 -1</clus>
<clus scale="  121.714">  2  5  1 -1</clus>
</clustering>
</event>
<event>
 9    1  0.2423659E-006  0.1426474E+03  0.7546771E-02  0.1229814E+00
          2   -1    0    0  502    0  0.00000000000E+00  0.00000000000E+00  0.10878881992E+04  0.10878881992E+04  0.00000000000E+00 0. -1.
         -2   -1    0    0    0  501 -0.00000000000E+00 -0.00000000000E+00 -0.43578722407E+02  0.43578722407E+02  0.00000000000E+00 0.  1.
         23    2    1    2    0    0 -0.18799123478E+02  0.14973201373E+02  0.55666487506E+02  0.10899652818E+03  0.90575280959E+02 0.  0.
         23    2    1    2    0    0  0.90628497139E+02 -0.79825150559E+02  0.74789705816E+03  0.76300201850E+03  0.90755118177E+02 0.  0.
        -11    1    4    4    0    0  0.16985086374E+01 -0.59536733047E+02  0.27249042304E+03  0.27892389314E+03  0.00000000000E+00 0.  1.
         11    1    4    4    0    0  0.88929988502E+02 -0.20288417512E+02  0.47540663512E+03  0.48407812536E+03  0.00000000000E+00 0. -1.
        -11    1    3    3    0    0  0.27952597019E+01 -0.36784430534E+02  0.28856207683E+02  0.46835761213E+02  0.00000000000E+00 0.  1.
         11    1    3    3    0    0 -0.21594383180E+02  0.51757631907E+02  0.26810279823E+02  0.62160766965E+02  0.00000000000E+00 0. -1.
         21    1    1    2  502  501 -0.71829373662E+02  0.64851949186E+02  0.24074593112E+03  0.25946837492E+03  0.00000000000E+00 0.  1.
<scales pt_clust_5="13000.00000" pt_clust_6="13000.00000" pt_clust_7="13000.00000" pt_clust_8="13000.00000" pt_clust_9="110.05357"></scales>
<clustering>
<clus scale="   90.575">  7  8 -1 -1</clus>
<clus scale="   90.755">  5  6 -1 -1</clus>
<clus scale="   93.710">  2  7  1 -1</clus>
<clus scale="  110.054">  2  9  1 -1</clus>
<clus scale="  142.647">  1  5  2 -1</clus>
</clustering>
</event>
<event>
 9    1  0.2423659E-006  0.1852126E+03  0.7546771E-02  0.1173854E+00
         -2   -1    0    0    0  501 -0.00000000000E+00  0.00000000000E+00  0.23184815972E+03  0.23184815972E+03  0.00000000000E+00 0.  1.
          2   -1    0    0  502    0  0.00000000000E+00 -0.00000000000E+00 -0.28920241202E+03  0.28920241202E+03  0.00000000000E+00 0. -1.
         23    2    1    2    0    0  0.96136149693E+02  0.59093265778E+02  0.27889338309E+02  0.14657484120E+03  0.89287152176E+02 0.  0.
         23    2    1    2    0    0 -0.83388836615E+02  0.12547834897E+03 -0.15721287904E+02  0.17683331217E+03  0.91237860935E+02 0.  0.
        -13    1    4    4    0    0 -0.59282829560E+02  0.79404194708E+02  0.34122009158E+02  0.10480358547E+03  0.00000000000E+00 0.  1.
         13    1    4    4    0    0 -0.24106007055E+02  0.46074154264E+02 -0.49843297062E+02  0.72029726706E+02  0.00000000000E+00 0. -1.
        -13    1    3    3    0    0  0.98176544469E+02  0.16008951326E+02  0.10341562714E+02  0.10000934119E+03  0.00000000000E+00 0. -1.
         13    1    3    3    0    0 -0.20403947767E+01  0.43084314452E+02  0.17547775596E+02  0.46565500008E+02  0.00000000000E+00 0.  1.
         21    1    1    2  502  501 -0.12747313078E+02 -0.18457161475E+03 -0.69522302710E+02  0.19764241836E+03  0.00000000000E+00 0. -1.
<scales pt_clust_5="13000.00000" pt_clust_6="13000.00000" pt_clust_7="13000.00000" pt_clust_8="13000.00000" pt_clust_9="161.18114"></scales>
<clustering>
<clus scale="   89.287">  7  8 -1 -1</clus>
<clus scale="   91.238">  5  6 -1 -1</clus>
<clus scale="  143.897">  1  7  2 -1</clus>
<clus scale="  161.181">  2  9  1 -1</clus>
<clus scale="  161.181">  2  5  1 -1</clus>
</clustering>
</event>
<event>
 9    1  0.2423659E-006  0.1112485E+03  0.7546771E-02  0.1262633E+00
          3   -1    0    0  502    0  0.00000000000E+00  0.00000000000E+00  0.14814786787E+03  0.14814786787E+03  0.00000000000E+00 0. -1.
         -3   -1    0    0    0  501 -0.00000000000E+00 -0.00000000000E+00 -0.25703627608E+03  0.25703627608E+03  0.00000000000E+00 0.  1.
         23    2    1    2    0    0  0.30256958050E+02  0.41868392559E+02 -0.42090469616E+02  0.11229767097E+03  0.90391998907E+02 0.  0.
         23    2    1    2    0    0 -0.77648717759E+02  0.82288846395E+01  0.75853253721E+02  0.13444065025E+03  0.78889380962E+02 0.  0.
        -11    1    4    4    0    0 -0.22547651719E+02  0.10602804370E+02 -0.14320175798E+02  0.28738188765E+02  0.00000000000E+00 0.  1.
         11    1    4    4    0    0 -0.55101066040E+02 -0.23739197309E+01  0.90173429519E+02  0.10570246149E+03  0.00000000000E+00 0. -1.
        -13    1    3    3    0    0 -0.62447796762E+01  0.53500058434E+02 -0.49642180209E+02  0.73250253116E+02  0.00000000000E+00 0.  1.
         13    1    3    3    0    0  0.36501737726E+02 -0.11631665875E+02  0.75517105924E+01  0.39047417852E+02  0.00000000000E+00 0. -1.
         21    1    1    2  502  501  0.47391759709E+02 -0.50097277198E+02 -0.14265119232E+03  0.15844582273E+03  0.00000000000E+00 0. -1.
<scales pt_clust_5="13000.00000" pt_clust_6="13000.00000" pt_clust_7="13000.00000" pt_clust_8="13000.00000" pt_clust_9="68.96170"></scales>
<clustering>
<clus scale="   68.962">  2  9  1 -1</clus>
<clus scale="   78.889">  5  6 -1 -1</clus>
<clus scale="   90.392">  7  8 -1 -1</clus>
<clus scale="  102.123">  1  5  2 -1</clus>
<clus scale="  102.123">  1  5  2 -1</clus>
</clustering>
</event>
<event>
 9    1  0.2423659E-006  0.1420888E+03  0.7546771E-02  0.1211376E+00
         -2   -1    0    0    0  501 -0.00000000000E+00  0.00000000000E+00  0.39609901639E+02  0.39609901639E+02  0.00000000000E+00 0.  1.
          2   -1    0    0  502    0  0.00000000000E+00 -0.00000000000E+00 -0.10804749625E+04  0.10804749625E+04  0.00000000000E+00 0. -1.
         23    2    1    2    0    0  0.12049105478E+03  0.80580524597E+02 -0.27505041743E+03  0.32323828979E+03  0.88424796459E+02 0.  0.
         23    2    1    2    0    0 -0.35974033267E+02 -0.67056235833E+02 -0.29533459238E+03  0.31864419905E+03  0.92308906915E+02 0.  0.
        -11    1    4    4    0    0 -0.25268340559E+02  0.15302673311E+02 -0.37346070117E+02  0.47617116652E+02  0.00000000000E+00 0. -1.
         11    1    4    4    0    0 -0.10705692708E+02 -0.82358909144E+02 -0.25798852226E+03  0.27102708239E+03  0.00000000000E+00 0.  1.
        -11    1    3    3    0    0  0.56805113994E+02  0.79948320059E+02 -0.21215890059E+03  0.23373051568E+03  0.00000000000E+00 0. -1.
         11    1    3    3    0    0  0.63685940788E+02  0.63220453808E+00 -0.62891516838E+02  0.89507774114E+02  0.00000000000E+00 0.  1.
         21    1    1    2  502  501 -0.84517021515E+02 -0.13524288763E+02 -0.47048005103E+03  0.47820237529E+03  0.00000000000E+00 0.  1.
<scales pt_clust_5="13000.00000" pt_clust_6="13000.00000" pt_clust_7="13000.00000" pt_clust_8="13000.00000" pt_clust_9="85.59225"></scales>
<clustering>
<clus scale="   85.592">  2  9  1 -1</clus>
<clus scale="   88.425">  7  8 -1 -1</clus>
<clus scale="   92.309">  5  6 -1 -1</clus>
<clus scale="  139.597">  1  7  2 -1</clus>
<clus scale="   85.592">  2  5  1 -1</clus>
</clustering>
</event>
<event>
 9    1  0.2423659E-006  0.9605041E+02  0.7546771E-02  0.1290412E+00
         -1   -1    0    0    0  501 -0.00000000000E+00  0.00000000000E+00  0.21762313803E+02  0.21762313803E+02  0.00000000000E+00 0.  1.
          1   -1    0    0  502    0  0.00000000000E+00 -0.00000000000E+00 -0.63230301486E+03  0.63230301486E+03  0.00000000000E+00 0. -1.
         23    2    1    2    0    0  0.34603633666E+02 -0.53982037630E+01 -0.20784567613E+03  0.22988896457E+03  0.91774500153E+02 0.  0.
         23    2    1    2    0    0 -0.21134982491E+02 -0.20774344560E+02 -0.36222848520E+03  0.37413690279E+03  0.88829531468E+02 0.  0.
        -11    1    3    3    0    0 -0.29008237320E+02 -0.16063845287E+02 -0.59229766740E+02  0.67879969254E+02  0.00000000000E+00 0. -1.
         11    1    3    3    0    0  0.63611870986E+02  0.10665641524E+02 -0.14861590938E+03  0.16200899531E+03  0.00000000000E+00 0.  1.
        -13    1    4    4    0    0  0.16954675023E+02  0.25323824436E+02 -0.17366374256E+03  0.17631747664E+03  0.00000000000E+00 0.  1.
         13    1    4    4    0    0 -0.38089657514E+02 -0.46098168995E+02 -0.18856474264E+03  0.19781942615E+03  0.00000000000E+00 0. -1.
         21    1    1    2  502  501 -0.13468651175E+02  0.26172548323E+02 -0.40466539728E+02  0.50039461305E+02  0.00000000000E+00 0.  1.
<scales pt_clust_5="13000.00000" pt_clust_6="13000.00000" pt_clust_7="13000.00000" pt_clust_8="13000.00000" pt_clust_9="29.43479"></scales>
<clustering>
<clus scale="   29.435">  1  9  2 -1</clus>
<clus scale="   88.830">  7  8 -1 -1</clus>
<clus scale="   91.775">  5  6 -1 -1</clus>
<clus scale="   93.241">  2  7  1 -1</clus>
<clus scale="   93.241">  2  5  1 -1</clus>
</clustering>
</event>
<event>
 9    1  0.2423659E-006  0.1555827E+03  0.7546771E-02  0.1194538E+00
         -3   -1    0    0    0  501 -0.00000000000E+00  0.00000000000E+00  0.31216090426E+03  0.31216090426E+03  0.00000000000E+00 0.  1.
          3   -1    0    0  502    0  0.00000000000E+00 -0.00000000000E+00 -0.14353522422E+03  0.14353522422E+03  0.00000000000E+00 0. -1.
         23    2    1    2    0    0 -0.73749783104E+02  0.69230453334E+02  0.76847462678E+02  0.15500725570E+03  0.88824718529E+02 0.  0.
         23    2    1    2    0    0  0.15923806430E+03 -0.53483737435E+02  0.93712365898E+02  0.21374092160E+03  0.93198190702E+02 0.  0.
        -11    1    4    4    0    0  0.77582954870E+02 -0.67459370383E+02  0.78873999393E+02  0.12958004985E+03  0.00000000000E+00 0.  1.
         11    1    4    4    0    0  0.81655109433E+02  0.13975632948E+02  0.14838366505E+02  0.84160871748E+02  0.00000000000E+00 0. -1.
        -11    1    3    3    0    0 -0.55583938006E+02  0.81967779826E+02  0.30506199037E+02  0.10362875698E+03  0.00000000000E+00 0. -1.
         11    1    3    3    0    0 -0.18165845097E+02 -0.12737326492E+02  0.46341263642E+02  0.51378498715E+02  0.00000000000E+00 0.  1.
         21    1    1    2  502  501 -0.85488281200E+02 -0.15746715899E+02 -0.19341485352E+01  0.86947951182E+02  0.00000000000E+00 0.  1.
<scales pt_clust_5="13000.00000" pt_clust_6="13000.00000" pt_clust_7="13000.00000" pt_clust_8="13000.00000" pt_clust_9="86.92644"></scales>
<clustering>
<clus scale="   86.926">  2  9  1 -1</clus>
<clus scale="   88.825">  7  8 -1 -1</clus>
<clus scale="   93.198">  5  6 -1 -1</clus>
<clus scale="  153.003">  1  7  2 -1</clus>
<clus scale="   86.926">  2  5  1 -1</clus>
</clustering>
</event>
<event>
 9    1  0.2423659E-006  0.1041591E+03  0.7546771E-02  0.1274168E+00
         -1   -1    0    0    0  501 -0.00000000000E+00  0.00000000000E+00  0.25698555956E+03  0.25698555956E+03  0.00000000000E+00 0.  1.
          1   -1    0    0  502    0  0.00000000000E+00 -0.00000000000E+00 -0.19278142041E+03  0.19278142041E+03  0.00000000000E+00 0. -1.
         23    2    1    2    0    0 -0.30462964009E+02  0.20483133280E+02  0.16312241479E+03  0.19270717346E+03  0.95810132916E+02 0.  0.
         23    2    1    2    0    0  0.94004709702E+00 -0.42388993984E+02 -0.15824608693E+03  0.18726540453E+03  0.90712717984E+02 0.  0.
        -11    1    4    4    0    0 -0.17060762126E+02  0.24036680640E+02 -0.32194522846E+02  0.43649959013E+02  0.00000000000E+00 0.  1.
         11    1    4    4    0    0  0.18000809223E+02 -0.66425674624E+02 -0.12605156409E+03  0.14361544552E+03  0.00000000000E+00 0. -1.
        -13    1    3    3    0    0  0.13516114775E+02  0.22808222259E+02  0.14090944882E+03  0.14338191353E+03  0.00000000000E+00 0.  1.
         13    1    3    3    0    0 -0.43979078784E+02 -0.23250889782E+01  0.22212965971E+02  0.49325259925E+02  0.00000000000E+00 0. -1.
         21    1    1    2  502  501  0.29522916912E+02  0.21905860703E+02  0.59327811287E+02  0.69794401983E+02  0.00000000000E+00 0.  1.
<scales pt_clust_5="13000.00000" pt_clust_6="13000.00000" pt_clust_7="13000.00000" pt_clust_8="13000.00000" pt_clust_9="36.76234"></scales>
<clustering>
<clus scale="   36.762">  1  9  2 -1</clus>
<clus scale="   90.713">  5  6 -1 -1</clus>
<clus scale="   95.810">  7  8 -1 -1</clus>
<clus scale="   99.490">  2  5  1 -1</clus>
<clus scale="   99.490">  2  5  1 -1</clus>
</clustering>
</event>
<event>
 9    1  0.2423659E-006  0.1418632E+03  0.7546771E-02  0.1229333E+00
          2   -1    0    0  502    0  0.00000000000E+00  0.00000000000E+00  0.60279342822E+03  0.60279342822E+03  0.00000000000E+00 0. -1.
         -2   -1    0    0    0  501 -0.00000000000E+00 -0.00000000000E+00 -0.11011653943E+03  0.11011653943E+03  0.00000000000E+00 0.  1.
         23    2    1    2    0    0  0.44774085024E+02  0.66332977352E+02  0.94702228571E+02  0.15429714407E+03  0.91838521314E+02 0.  0.
         23    2    1    2    0    0  0.24447472980E+02  0.30152228850E+02  0.42589247757E+03  0.43662748170E+03  0.88047257132E+02 0.  0.
        -11    1    4    4    0    0  0.31650896719E+02  0.58350781626E+02  0.31969354050E+03  0.32651271463E+03  0.00000000000E+00 0. -1.
         11    1    4    4    0    0 -0.72034237394E+01 -0.28198552776E+02  0.10619893706E+03  0.11011476707E+03  0.00000000000E+00 0.  1.
        -13    1    3    3    0    0 -0.22631390063E+02 -0.43748290511E+01  0.26683453991E+02  0.35260823336E+02  0.00000000000E+00 0. -1.
         13    1    3    3    0    0  0.67405475087E+02  0.70707806403E+02  0.68018774580E+02  0.11903632073E+03  0.00000000000E+00 0.  1.
         21    1    1    2  502  501 -0.69221558004E+02 -0.96485206202E+02 -0.27917817343E+02  0.12198534188E+03  0.00000000000E+00 0.  1.
<scales pt_clust_5="13000.00000" pt_clust_6="13000.00000" pt_clust_7="13000.00000" pt_clust_8="13000.00000" pt_clust_9="108.12430"></scales>
<clustering>
<clus scale="   88.047">  5  6 -1 -1</clus>
<clus scale="   91.839">  7  8 -1 -1</clus>
<clus scale="   96.225">  1  5  2 -1</clus>
<clus scale="  108.124">  2  9  1 -1</clus>
<clus scale="   96.225">  1  5  2 -1</clus>
</clustering>
</event>
<event>
 9    1  0.2423659E-006  0.1219571E+03  0.7546771E-02  0.1239976E+00
         -1   -1    0    0    0  501 -0.00000000000E+00  0.00000000000E+00  0.12222605274E+03  0.12222605274E+03  0.00000000000E+00 0.  1.
          1   -1    0    0  502    0  0.00000000000E+00 -0.00000000000E+00 -0.16516516900E+03  0.16516516900E+03  0.00000000000E+00 0. -1.
         23    2    1    2    0    0  0.73676762640E+02  0.56813280523E+02  0.77722656246E+00  0.13006716127E+03  0.90889208171E+02 0.  0.
         23    2    1    2    0    0 -0.69514396860E+02 -0.29310926629E+02 -0.51126564047E+02  0.12853836720E+03  0.90646591230E+02 0.  0.
        -11    1    3    3    0    0  0.28063637023E+02 -0.10353141811E+02 -0.30816181741E+02  0.42946388968E+02  0.00000000000E+00 0. -1.
         11    1    3    3    0    0  0.45613125617E+02  0.67166422334E+02  0.31593408303E+02  0.87120772299E+02  0.00000000000E+00 0.  1.
        -13    1    4    4    0    0 -0.20551888173E+02  0.24502127083E+02  0.10007198555E+02  0.33509377224E+02  0.00000000000E+00 0.  1.
         13    1    4    4    0    0 -0.48962508687E+02 -0.53813053711E+02 -0.61133762603E+02  0.95028989980E+02  0.00000000000E+00 0. -1.
         21    1    1    2  502  501 -0.41623657801E+01 -0.27502353894E+02  0.74102212244E+01  0.28785693273E+02  0.00000000000E+00 0. -1.
<scales pt_clust_5="13000.00000" pt_clust_6="13000.00000" pt_clust_7="13000.00000" pt_clust_8="13000.00000" pt_clust_9="27.81555"></scales>
<clustering>
<clus scale="   27.816">  1  9  2 -1</clus>
<clus scale="   90.647">  7  8 -1 -1</clus>
<clus scale="   90.889">  5  6 -1 -1</clus>
<clus scale="  121.776">  2  7  1 -1</clus>
<clus scale="  121.776">  2  5  1 -1</clus>
</clustering>
</event>
<event>
 9    1  0.2423659E-006  0.9917056E+02  0.7546771E-02  0.1285047E+00
         -1   -1    0    0    0  501 -0.00000000000E+00  0.00000000000E+00  0.44828974765E+02  0.44828974765E+02  0.00000000000E+00 0.  1.
          1   -1    0    0  502    0  0.00000000000E+00 -0.00000000000E+00 -0.44162701619E+03  0.44162701619E+03  0.00000000000E+00 0. -1.
         23    2    1    2    0    0  0.54571547378E+02  0.19717802777E+02 -0.78156076194E+02  0.13386833542E+03  0.91899474717E+02 0.  0.
         23    2    1    2    0    0 -0.58996096539E+01  0.19184355410E+02 -0.17473483909E+03  0.19577057615E+03  0.85970981184E+02 0.  0.
        -13    1    4    4    0    0  0.23377317175E+02 -0.10165110114E+02 -0.12629982594E+02  0.28448987368E+02  0.00000000000E+00 0.  1.
         13    1    4    4    0    0 -0.29276926829E+02  0.29349465525E+02 -0.16210485650E+03  0.16732158878E+03  0.00000000000E+00 0. -1.
        -13    1    3    3    0    0  0.73593662828E+02 -0.75294176678E+01 -0.63723644183E+02  0.97639245014E+02  0.00000000000E+00 0.  1.
         13    1    3    3    0    0 -0.19022115450E+02  0.27247220445E+02 -0.14432432011E+02  0.36229090410E+02  0.00000000000E+00 0. -1.
         21    1    1    2  502  501 -0.48671937724E+02 -0.38902158188E+02 -0.14390712614E+03  0.15681707938E+03  0.00000000000E+00 0. -1.
<scales pt_clust_5="13000.00000" pt_clust_6="13000.00000" pt_clust_7="13000.00000" pt_clust_8="13000.00000" pt_clust_9="62.30839"></scales>
<clustering>
<clus scale="   62.308">  2  9  1 -1</clus>
<clus scale="   85.971">  5  6 -1 -1</clus>
<clus scale="   91.899">  7  8 -1 -1</clus>
<clus scale="   93.703">  2  5  1 -1</clus>
<clus scale="   62.308">  2  5  1 -1</clus>
</clustering>
</event>
<event>
 9    1  0.2423659E-006  0.2246994E+03  0.7546771E-02  0.1154861E+00
          1   -1    0    0  502    0  0.00000000000E+00  0.00000000000E+00  0.19582567670E+03  0.19582567670E+03  0.00000000000E+00 0. -1.
         -1   -1    0    0    0  501 -0.00000000000E+00 -0.00000000000E+00 -0.44353072923E+03  0.44353072923E+03  0.00000000000E+00 0.  1.
         23    2    1    2    0    0 -0.90488037354E+02  0.13876167249E+03  0.43830423573E+01  0.18854478135E+03  0.89927953710E+02 0.  0.
         23    2    1    2    0    0  0.27167594376E+02  0.80425245232E+02 -0.22208684621E+02  0.12693367432E+03  0.91720410751E+02 0.  0.
        -11    1    4    4    0    0  0.30169716532E+00  0.75596145430E+02  0.18586977712E+02  0.77848211062E+02  0.00000000000E+00 0. -1.
         11    1    4    4    0    0  0.26865897211E+02  0.48290998023E+01 -0.40795662333E+02  0.49085463256E+02  0.00000000000E+00 0.  1.
        -13    1    3    3    0    0 -0.81408611786E+02  0.88282639338E+02 -0.33625785593E+02  0.12470717677E+03  0.00000000000E+00 0.  1.
         13    1    3    3    0    0 -0.90794255686E+01  0.50479033150E+02  0.38008827950E+02  0.63837604580E+02  0.00000000000E+00 0. -1.
         21    1    1    2  502  501  0.63320442978E+02 -0.21918691772E+03 -0.22987941027E+03  0.32387795026E+03  0.00000000000E+00 0.  1.
<scales pt_clust_5="13000.00000" pt_clust_6="13000.00000" pt_clust_7="13000.00000" pt_clust_8="13000.00000" pt_clust_9="205.91936"></scales>
<clustering>
<clus scale="   89.928">  7  8 -1 -1</clus>
<clus scale="   91.720">  5  6 -1 -1</clus>
<clus scale="  124.976">  1  5  2 -1</clus>
<clus scale="  205.919">  2  9  1 -1</clus>
<clus scale="  124.976">  1  5  2 -1</clus>
</clustering>
</event>
<event>
 9    1  0.2423659E-006  0.1312805E+03  0.7546771E-02  0.1226405E+00
         -2   -1    0    0    0  501 -0.00000000000E+00  0.00000000000E+00  0.89362122530E+02  0.89362122530E+02  0.00000000000E+00 0.  1.
          2   -1    0    0  502    0  0.00000000000E+00 -0.00000000000E+00 -0.43798652696E+03  0.43798652696E+03  0.00000000000E+00 0. -1.
         23    2    1    2    0    0 -0.70584185999E+02 -0.26308239814E+02 -0.86454921252E+02  0.14561284149E+03  0.89746283497E+02 0.  0.
         23    2    1    2    0    0  0.10467982244E+03 -0.36572186450E+02 -0.27339714665E+03  0.30933055364E+03  0.92973122823E+02 0.  0.
        -11    1    3    3    0    0  0.12361181033E+00 -0.43059607691E+02 -0.21412431306E+02  0.48089887802E+02  0.00000000000E+00 0.  1.
         11    1    3    3    0    0 -0.70707797809E+02  0.16751367877E+02 -0.65042489946E+02  0.97522953683E+02  0.00000000000E+00 0. -1.
        -13    1    4    4    0    0  0.32071251961E+02  0.27575048317E+02 -0.12629113772E+03  0.13318558465E+03  0.00000000000E+00 0. -1.
         13    1    4    4    0    0  0.72608570482E+02 -0.64147234767E+02 -0.14710600894E+03  0.17614496899E+03  0.00000000000E+00 0.  1.
         21    1    1    2  502  501 -0.34095636445E+02  0.62880426264E+02  0.11227663482E+02  0.72405254360E+02  0.00000000000E+00 0.  1.
<scales pt_clust_5="13000.00000" pt_clust_6="13000.00000" pt_clust_7="13000.00000" pt_clust_8="13000.00000" pt_clust_9="71.52944"></scales>
<clustering>
<clus scale="   71.529">  1  9  2 -1</clus>
<clus scale="   89.746">  5  6 -1 -1</clus>
<clus scale="   92.973">  7  8 -1 -1</clus>
<clus scale="  129.015">  1  5  2 -1</clus>
<clus scale="  131.280">  2  5  1 -1</clus>
</clustering>
</event>
<event>
 9    1  0.2423659E-006  0.9358449E+02  0.7546771E-02  0.1294597E+00
          1   -1    0    0  502    0  0.00000000000E+00  0.00000000000E+00  0.68527193745E+02  0.68527193745E+02  0.00000000000E+00 0. -1.
         -1   -1    0    0    0  501 -0.00000000000E+00 -0.00000000000E+00 -0.17434340593E+03  0.17434340593E+03  0.00000000000E+00 0.  1.
         23    2    1    2    0    0 -0.90337484512E+01  0.31396405705E+02 -0.43784720141E+02  0.10661390873E+03  0.91553705079E+02 0.  0.
         23    2    1    2    0    0  0.80153657574E+00 -0.81728099988E+01 -0.31085372508E+02  0.96699554750E+02  0.91197950748E+02 0.  0.
        -11    1    4    4    0    0  0.16478630916E+02 -0.36019892957E+02  0.13497124743E+02  0.41846748283E+02  0.00000000000E+00 0. -1.
         11    1    4    4    0    0 -0.15677094340E+02  0.27847082958E+02 -0.44582497250E+02  0.54852806467E+02  0.00000000000E+00 0.  1.
        -13    1    3    3    0    0 -0.11588176016E+02 -0.21375550717E+02 -0.47799052416E+02  0.53627878978E+02  0.00000000000E+00 0. -1.
         13    1    3    3    0    0  0.25544275647E+01  0.52771956422E+02  0.40143322754E+01  0.52986029748E+02  0.00000000000E+00 0.  1.
         21    1    1    2  502  501  0.82322118755E+01 -0.23223595706E+02 -0.30946119538E+02  0.39557136200E+02  0.00000000000E+00 0.  1.
<scales pt_clust_5="13000.00000" pt_clust_6="13000.00000" pt_clust_7="13000.00000" pt_clust_8="13000.00000" pt_clust_9="24.63949"></scales>
<clustering>
<clus scale="   24.639">  2  9  1 -1</clus>
<clus scale="   91.198">  5  6 -1 -1</clus>
<clus scale="   91.554">  7  8 -1 -1</clus>
<clus scale="   93.236">  1  5  2 -1</clus>
<clus scale="   93.236">  1  5  2 -1</clus>
</clustering>
</event>
<event>
 9    1  0.2423659E-006  0.2123713E+03  0.7546771E-02  0.1173287E+00
          2   -1    0    0  502    0  0.00000000000E+00  0.00000000000E+00  0.34729948267E+03  0.34729948267E+03  0.00000000000E+00 0. -1.
         -2   -1    0    0    0  501 -0.00000000000E+00 -0.00000000000E+00 -0.25227584434E+03  0.25227584434E+03  0.00000000000E+00 0.  1.
         23    2    1    2    0    0  0.12099969942E+02  0.19972289147E+03 -0.10910573474E+03  0.24529287719E+03  0.90713238275E+02 0.  0.
         23    2    1    2    0    0 -0.18252489333E+02 -0.22918739752E+02  0.13108229672E+03  0.16288381626E+03  0.92141994166E+02 0.  0.
        -13    1    4    4    0    0  0.36200952795E+02 -0.66176287857E+01  0.32543453045E+02  0.49126147113E+02  0.00000000000E+00 0.  1.
         13    1    4    4    0    0 -0.54453442128E+02 -0.16301110966E+02  0.98538843671E+02  0.11375766915E+03  0.00000000000E+00 0. -1.
        -13    1    3    3    0    0 -0.19052064540E+02  0.56446730082E+02 -0.73120930296E+02  0.94317999064E+02  0.00000000000E+00 0.  1.
         13    1    3    3    0    0  0.31152034482E+02  0.14327616139E+03 -0.35984804442E+02  0.15097487813E+03  0.00000000000E+00 0. -1.
         21    1    1    2  502  501  0.61525193912E+01 -0.17680415172E+03  0.73047076353E+02  0.19139863355E+03  0.00000000000E+00 0. -1.
<scales pt_clust_5="13000.00000" pt_clust_6="13000.00000" pt_clust_7="13000.00000" pt_clust_8="13000.00000" pt_clust_9="192.02264"></scales>
<clustering>
<clus scale="   90.713">  7  8 -1 -1</clus>
<clus scale="   92.142">  5  6 -1 -1</clus>
<clus scale="   96.688">  1  5  2 -1</clus>
<clus scale="  192.023">  1  9  2 -1</clus>
<clus scale="   96.688">  1  5  2 -1</clus>
</clustering>
</event>
<event>
 9    1  0.2423659E-006  0.1423343E+03  0.7546771E-02  0.1230882E+00
          1   -1    0    0  502    0  0.00000000000E+00  0.00000000000E+00  0.61703838705E+03  0.61703838705E+03  0.00000000000E+00 0. -1.
         -1   -1    0    0    0  501 -0.00000000000E+00 -0.00000000000E+00 -0.80996580587E+02  0.80996580587E+02  0.00000000000E+00 0.  1.
         23    2    1    2    0    0  0.52921169283E+02 -0.96502567366E+02  0.21339457000E+03  0.25733549747E+03  0.92579263795E+02 0.  0.
         23    2    1    2    0    0 -0.42359172211E+00  0.25150323467E+01  0.31997181460E+03  0.33301098300E+03  0.92237995658E+02 0.  0.
        -13    1    3    3    0    0  0.19658642852E+02  0.16586323860E+02  0.43897339754E+02  0.50877743812E+02  0.00000000000E+00 0.  1.
         13    1    3    3    0    0  0.33262526431E+02 -0.11308889123E+03  0.16949723024E+03  0.20645775365E+03  0.00000000000E+00 0. -1.
        -13    1    4    4    0    0  0.13691641632E+02 -0.42645154130E+02  0.14553537087E+03  0.15227151537E+03  0.00000000000E+00 0. -1.
         13    1    4    4    0    0 -0.14115233354E+02  0.45160186477E+02  0.17443644373E+03  0.18073946762E+03  0.00000000000E+00 0.  1.
         21    1    1    2  502  501 -0.52497577561E+02  0.93987535019E+02  0.26754218734E+01  0.10768848718E+03  0.00000000000E+00 0.  1.
<scales pt_clust_5="13000.00000" pt_clust_6="13000.00000" pt_clust_7="13000.00000" pt_clust_8="13000.00000" pt_clust_9="108.11162"></scales>
<clustering>
<clus scale="   92.238">  7  8 -1 -1</clus>
<clus scale="   92.273">  1  7  2 -1</clus>
<clus scale="   92.579">  5  6 -1 -1</clus>
<clus scale="  108.112">  2  9  1 -1</clus>
<clus scale="   92.273">  1  5  2 -1</clus>
</clustering>
</event>
<event>
 9    1  0.2423659E-006  0.1024396E+03  0.7546771E-02  0.1275389E+00
          1   -1    0    0  502    0  0.00000000000E+00  0.00000000000E+00  0.55348120462E+02  0.55348120462E+02  0.00000000000E+00 0. -1.
         -1   -1    0    0    0  501 -0.00000000000E+00 -0.00000000000E+00 -0.38452411339E+03  0.38452411339E+03  0.00000000000E+00 0.  1.
         23    2    1    2    0    0 -0.25083242431E+02  0.68442928229E+02 -0.18052157410E+03  0.21501760115E+03  0.91273909817E+02 0.  0.
         23    2    1    2    0    0 -0.11120918039E+02 -0.37320493988E+02 -0.42031253275E+02  0.10803063439E+03  0.91583282459E+02 0.  0.
        -13    1    4    4    0    0 -0.72674201038E+01  0.26263520062E+02  0.64212099633E+01  0.27996782287E+02  0.00000000000E+00 0.  1.
         13    1    4    4    0    0 -0.38534979349E+01 -0.63584014050E+02 -0.48452463238E+02  0.80033852106E+02  0.00000000000E+00 0. -1.
        -13    1    3    3    0    0 -0.14222094023E+01  0.78800971133E+02 -0.16951552925E+03  0.18694151595E+03  0.00000000000E+00 0.  1.
         13    1    3    3    0    0 -0.23661033029E+02 -0.10358042903E+02 -0.11006044858E+02  0.28076085200E+02  0.00000000000E+00 0. -1.
         21    1    1    2  502  501  0.36204160470E+02 -0.31122434241E+02 -0.10662316555E+03  0.11682399831E+03  0.00000000000E+00 0.  1.
<scales pt_clust_5="13000.00000" pt_clust_6="13000.00000" pt_clust_7="13000.00000" pt_clust_8="13000.00000" pt_clust_9="47.74251"></scales>
<clustering>
<clus scale="   47.743">  2  9  1 -1</clus>
<clus scale="   91.274">  7  8 -1 -1</clus>
<clus scale="   91.583">  5  6 -1 -1</clus>
<clus scale="  102.163">  2  7  1 -1</clus>
<clus scale="  102.440">  1  5  2 -1</clus>
</clustering>
</event>
<event>
 9    1  0.2423659E-006  0.1179058E+03  0.7546771E-02  0.1250002E+00
         -1   -1    0    0    0  501 -0.00000000000E+00  0.00000000000E+00  0.77349610514E+02  0.77349610514E+02  0.00000000000E+00 0.  1.
          1   -1    0    0  502    0  0.00000000000E+00 -0.00000000000E+00 -0.35702897634E+03  0.35702897634E+03  0.00000000000E+00 0. -1.
         23    2    1    2    0    0 -0.77012876323E+01 -0.95325955174E+02 -0.17597296073E+03  0.22033076713E+03  0.91830367917E+02 0.  0.
         23    2    1    2    0    0  0.14631878362E+02  0.22122092331E+02 -0.92771652093E+02  0.13970800908E+03  0.10103598140E+03 0.  0.
        -11    1    4    4    0    0 -0.10540798542E+02  0.51122453887E+02 -0.86164815771E+02  0.10074219177E+03  0.00000000000E+00 0.  1.
         11    1    4    4    0    0  0.25172676904E+02 -0.29000361556E+02 -0.66068363215E+01  0.38965817316E+02  0.00000000000E+00 0. -1.
        -13    1    3    3    0    0  0.27447410207E+02 -0.46072460806E+02 -0.14003815264E+03  0.14995571402E+03  0.00000000000E+00 0. -1.
         13    1    3    3    0    0 -0.35148697840E+02 -0.49253494368E+02 -0.35934808096E+02  0.70375053110E+02  0.00000000000E+00 0.  1.
         21    1    1    2  502  501 -0.69305907301E+01  0.73203862844E+02 -0.10934752997E+02  0.74339810641E+02  0.00000000000E+00 0.  1.
<scales pt_clust_5="13000.00000" pt_clust_6="13000.00000" pt_clust_7="13000.00000" pt_clust_8="13000.00000" pt_clust_9="73.53121"></scales>
<clustering>
<clus scale="   73.531">  1  9  2 -1</clus>
<clus scale="   91.830">  7  8 -1 -1</clus>
<clus scale="  101.036">  5  6 -1 -1</clus>
<clus scale="  110.120">  1  7  2 -1</clus>
<clus scale="  117.906">  2  5  1 -1</clus>
</clustering>
</event>
<event>
 9    1  0.2423659E-006  0.8949329E+02  0.7546771E-02  0.1304562E+00
          1   -1    0    0  502    0  0.00000000000E+00  0.00000000000E+00  0.11956383584E+03  0.11956383584E+03  0.00000000000E+00 0. -1.
         -1   -1    0    0    0  501 -0.00000000000E+00 -0.00000000000E+00 -0.93381304878E+02  0.93381304878E+02  0.00000000000E+00 0.  1.
         23    2    1    2    0    0  0.15767504312E+02  0.76793161980E+01  0.58724497129E+01  0.90075020242E+02  0.88155757138E+02 0.  0.
         23    2    1    2    0    0 -0.14937822293E+01  0.17151128343E+02  0.24687850751E+02  0.93896770923E+02  0.88942234210E+02 0.  0.
        -11    1    4    4    0    0  0.16908024601E+02  0.47484548597E+02 -0.46380874972E+00  0.50407130150E+02  0.00000000000E+00 0. -1.
         11    1    4    4    0    0 -0.18401806830E+02 -0.30333420254E+02  0.25151659501E+02  0.43489640773E+02  0.00000000000E+00 0.  1.
        -11    1    3    3    0    0  0.30871528194E+02 -0.96027592767E+01 -0.32193083798E+02  0.45625200090E+02  0.00000000000E+00 0.  1.
         11    1    3    3    0    0 -0.15104023882E+02  0.17282075475E+02  0.38065533511E+02  0.44449820153E+02  0.00000000000E+00 0. -1.
         21    1    1    2  502  501 -0.14273722083E+02 -0.24830444541E+02 -0.43777695055E+01  0.28973349548E+02  0.00000000000E+00 0. -1.
<scales pt_clust_5="13000.00000" pt_clust_6="13000.00000" pt_clust_7="13000.00000" pt_clust_8="13000.00000" pt_clust_9="28.64071"></scales>
<clustering>
<clus scale="   28.641">  2  9  1 -1</clus>
<clus scale="   88.156">  7  8 -1 -1</clus>
<clus scale="   88.712">  2  7  1 -1</clus>
<clus scale="   88.942">  5  6 -1 -1</clus>
<clus scale="   89.493">  1  5  2 -1</clus>
</clustering>
</event>
<event>
 9    1  0.2423659E-006  0.1232081E+03  0.7546771E-02  0.1237921E+00
          1   -1    0    0  502    0  0.00000000000E+00  0.00000000000E+00  0.22912583605E+03  0.22912583605E+03  0.00000000000E+00 0. -1.
         -1   -1    0    0    0  501 -0.00000000000E+00 -0.00000000000E+00 -0.20419129770E+03  0.20419129770E+03  0.00000000000E+00 0.  1.
         23    2    1    2    0    0 -0.57288337898E+02  0.65650084571E+02 -0.15640369392E+03  0.20136395073E+03  0.92159849803E+02 0.  0.
         23    2    1    2    0    0  0.36854656306E+02 -0.33353457695E+02  0.11569173006E+03  0.15599220156E+03  0.92077530988E+02 0.  0.
        -11    1    4    4    0    0  0.34309688780E+02  0.25681113757E+02  0.31738861260E+02  0.53329444607E+02  0.00000000000E+00 0.  1.
         11    1    4    4    0    0  0.25449675253E+01 -0.59034571452E+02  0.83952868799E+02  0.10266275696E+03  0.00000000000E+00 0. -1.
        -13    1    3    3    0    0 -0.42136847552E+02  0.44989705353E+02 -0.16353745002E+03  0.17476866157E+03  0.00000000000E+00 0.  1.
         13    1    3    3    0    0 -0.15151490346E+02  0.20660379218E+02  0.71337560946E+01  0.26595289153E+02  0.00000000000E+00 0. -1.
         21    1    1    2  502  501  0.20433681593E+02 -0.32296626876E+02  0.65646502220E+02  0.75960981463E+02  0.00000000000E+00 0. -1.
<scales pt_clust_5="13000.00000" pt_clust_6="13000.00000" pt_clust_7="13000.00000" pt_clust_8="13000.00000" pt_clust_9="38.21789"></scales>
<clustering>
<clus scale="   38.218">  1  9  2 -1</clus>
<clus scale="   92.078">  5  6 -1 -1</clus>
<clus scale="   92.160">  7  8 -1 -1</clus>
<clus scale="  123.147">  1  5  2 -1</clus>
<clus scale="   38.218">  1  5  2 -1</clus>
</clustering>
</event>
<event>
 9    1  0.2423659E-006  0.4375783E+03  0.7546771E-02  0.1081200E+00
          1   -1    0    0  502    0  0.00000000000E+00  0.00000000000E+00  0.24801812968E+03  0.24801812968E+03  0.00000000000E+00 0. -1.
         -1   -1    0    0    0  501 -0.00000000000E+00 -0.00000000000E+00 -0.10809439396E+04  0.10809439396E+04  0.00000000000E+00 0.  1.
         23    2    1    2    0    0  0.28950774682E+02  0.47834698791E+02 -0.27644859118E+03  0.29669512981E+03  0.92075353530E+02 0.  0.
         23    2    1    2    0    0  0.11540841682E+03  0.38525421360E+03 -0.25689228226E+03  0.48622965465E+03  0.93197213508E+02 0.  0.
        -11    1    3    3    0    0 -0.15771417017E+02 -0.20429793068E+02 -0.57300188635E+02  0.62844456057E+02  0.00000000000E+00 0.  1.
         11    1    3    3    0    0  0.44722191699E+02  0.68264491859E+02 -0.21914840254E+03  0.23385067376E+03  0.00000000000E+00 0. -1.
        -13    1    4    4    0    0  0.12346769226E+03  0.29244174563E+03 -0.17667638644E+03  0.36329188147E+03  0.00000000000E+00 0. -1.
         13    1    4    4    0    0 -0.80592754400E+01  0.92812467977E+02 -0.80215895813E+02  0.12293777318E+03  0.00000000000E+00 0.  1.
         21    1    1    2  502  501 -0.14435919151E+03 -0.43308891240E+03 -0.29958493644E+03  0.54603728477E+03  0.00000000000E+00 0.  1.
<scales pt_clust_5="13000.00000" pt_clust_6="13000.00000" pt_clust_7="13000.00000" pt_clust_8="13000.00000" pt_clust_9="427.53838"></scales>
<clustering>
<clus scale="   92.075">  5  6 -1 -1</clus>
<clus scale="   93.197">  7  8 -1 -1</clus>
<clus scale="  107.723">  2  5  1 -1</clus>
<clus scale="  427.538">  2  9  1 -1</clus>
<clus scale="  437.578">  1  5  2 -1</clus>
</clustering>
</event>
<event>
 9    1  0.2423659E-006  0.9361292E+02  0.7546771E-02  0.1295062E+00
          1   -1    0    0  502    0  0.00000000000E+00  0.00000000000E+00  0.46728234048E+03  0.46728234048E+03  0.00000000000E+00 0. -1.
         -1   -1    0    0    0  501 -0.00000000000E+00 -0.00000000000E+00 -0.27738301940E+02  0.27738301940E+02  0.00000000000E+00 0.  1.
         23    2    1    2    0    0 -0.27648668419E+02  0.18710960492E+02  0.15879169083E+03  0.18521314915E+03  0.89300395492E+02 0.  0.
         23    2    1    2    0    0  0.28445554493E+02  0.17334417258E+02  0.18618121953E+03  0.20859680920E+03  0.87974716305E+02 0.  0.
        -11    1    4    4    0    0 -0.11115739755E+02  0.36073893264E+02  0.35986345723E+02  0.52152684725E+02  0.00000000000E+00 0.  1.
         11    1    4    4    0    0  0.39561294247E+02 -0.18739476006E+02  0.15019487381E+03  0.15644412447E+03  0.00000000000E+00 0. -1.
        -13    1    3    3    0    0 -0.74804487875E+01 -0.29529963569E+02  0.18852038313E+02  0.35824226593E+02  0.00000000000E+00 0.  1.
         13    1    3    3    0    0 -0.20168219631E+02  0.48240924061E+02  0.13993965251E+03  0.14938892256E+03  0.00000000000E+00 0. -1.
         21    1    1    2  502  501 -0.79688607416E+00 -0.36045377750E+02  0.94571128175E+02  0.10121068406E+03  0.00000000000E+00 0.  1.
<scales pt_clust_5="13000.00000" pt_clust_6="13000.00000" pt_clust_7="13000.00000" pt_clust_8="13000.00000" pt_clust_9="36.05419"></scales>
<clustering>
<clus scale="   36.054">  1  9  2 -1</clus>
<clus scale="   87.975">  5  6 -1 -1</clus>
<clus scale="   89.300">  7  8 -1 -1</clus>
<clus scale="   92.349">  1  5  2 -1</clus>
<clus scale="   36.054">  1  5  2 -1</clus>
</clustering>
</event>
<event>
 9    1  0.2423659E-006  0.2908642E+03  0.7546771E-02  0.1089993E+00
          1   -1    0    0  502    0  0.00000000000E+00  0.00000000000E+00  0.11397293548E+04  0.11397293548E+04  0.00000000000E+00 0. -1.
         -1   -1    0    0    0  501 -0.00000000000E+00 -0.00000000000E+00 -0.18465178313E+03  0.18465178313E+03  0.00000000000E+00 0.  1.
         23    2    1    2    0    0 -0.29499213720E+03 -0.17045441241E+03  0.71136580644E+03  0.79360965432E+03  0.87749103304E+02 0.  0.
         23    2    1    2    0    0  0.20394764815E+03  0.72468774991E+02  0.30412914497E+03  0.38400451223E+03  0.90103063516E+02 0.  0.
        -11    1    3    3    0    0 -0.26789785793E+03 -0.17500129506E+03  0.61318957089E+03  0.69166188663E+03  0.00000000000E+00 0. -1.
         11    1    3    3    0    0 -0.27094279271E+02  0.45468826508E+01  0.98176235550E+02  0.10194776769E+03  0.00000000000E+00 0.  1.
        -13    1    4    4    0    0  0.10548265283E+02  0.34818360681E+02  0.35201426950E+02  0.50623360224E+02  0.00000000000E+00 0.  1.
         13    1    4    4    0    0  0.19339938286E+03  0.37650414310E+02  0.26892771802E+03  0.33338115200E+03  0.00000000000E+00 0. -1.
         21    1    1    2  502  501  0.91044489058E+02  0.97985637421E+02 -0.60417379712E+02  0.14676697142E+03  0.00000000000E+00 0.  1.
<scales pt_clust_5="13000.00000" pt_clust_6="13000.00000" pt_clust_7="13000.00000" pt_clust_8="13000.00000" pt_clust_9="133.75457"></scales>
<clustering>
<clus scale="   87.749">  5  6 -1 -1</clus>
<clus scale="   90.103">  7  8 -1 -1</clus>
<clus scale="  133.755">  2  9  1 -1</clus>
<clus scale="  290.144">  2  5  1 -1</clus>
<clus scale="  290.864">  1  5  2 -1</clus>
</clustering>
</event>
<event>
 9    1  0.2423659E-006  0.9734167E+02  0.7546771E-02  0.1289102E+00
          1   -1    0    0  502    0  0.00000000000E+00  0.00000000000E+00  0.48710158517E+03  0.48710158517E+03  0.00000000000E+00 0. -1.
         -1   -1    0    0    0  501 -0.00000000000E+00 -0.00000000000E+00 -0.59020697002E+02  0.59020697002E+02  0.00000000000E+00 0.  1.
         23    2    1    2    0    0  0.12222382117E+02  0.21687648891E+02  0.31495346749E+02  0.10217448215E+03  0.93957049748E+02 0.  0.
         23    2    1    2    0    0 -0.21727994941E+02  0.20893922813E+02  0.38856126815E+03  0.39958637663E+03  0.88208568199E+02 0.  0.
        -11    1    3    3    0    0 -0.37118827576E+02 -0.10065998990E+02  0.10663738949E+02  0.39910487652E+02  0.00000000000E+00 0.  1.
         11    1    3    3    0    0  0.49341209692E+02  0.31753647881E+02  0.20831607800E+02  0.62263994501E+02  0.00000000000E+00 0. -1.
        -13    1    4    4    0    0  0.19521267608E+02  0.42075882007E+02  0.21420173134E+03  0.21916624157E+03  0.00000000000E+00 0. -1.
         13    1    4    4    0    0 -0.41249262549E+02 -0.21181959194E+02  0.17435953682E+03  0.18042013506E+03  0.00000000000E+00 0.  1.
         21    1    1    2  502  501  0.95056128238E+01 -0.42581571703E+02  0.80242732675E+01  0.44361423392E+02  0.00000000000E+00 0.  1.
<scales pt_clust_5="13000.00000" pt_clust_6="13000.00000" pt_clust_7="13000.00000" pt_clust_8="13000.00000" pt_clust_9="43.62966"></scales>
<clustering>
<clus scale="   43.630">  2  9  1 -1</clus>
<clus scale="   88.209">  7  8 -1 -1</clus>
<clus scale="   91.805">  1  7  2 -1</clus>
<clus scale="   93.957">  5  6 -1 -1</clus>
<clus scale="   91.805">  1  5  2 -1</clus>
</clustering>
</event>
<event>
 9    1  0.2423659E-006  0.2160026E+03  0.7546771E-02  0.1154878E+00
          1   -1    0    0  502    0  0.00000000000E+00  0.00000000000E+00  0.65403129038E+03  0.65403129038E+03  0.00000000000E+00 0. -1.
         -1   -1    0    0    0  501 -0.00000000000E+00 -0.00000000000E+00 -0.12884698409E+03  0.12884698409E+03  0.00000000000E+00 0.  1.
         23    2    1    2    0    0  0.15707619332E+03 -0.17943946938E+02  0.13742478544E+03  0.23055778726E+03  0.96314100077E+02 0.  0.
         23    2    1    2    0    0  0.92687534482E+02  0.50084877660E+02  0.15676770933E+03  0.21060104653E+03  0.93151554439E+02 0.  0.
        -13    1    4    4    0    0  0.62031885524E+02  0.77142487036E+02  0.10069491703E+03  0.14120334431E+03  0.00000000000E+00 0. -1.
         13    1    4    4    0    0  0.30655648958E+02 -0.27057609377E+02  0.56072792296E+02  0.69397702225E+02  0.00000000000E+00 0.  1.
        -13    1    3    3    0    0  0.47518160355E+02 -0.48695003309E+02  0.31050411991E+02  0.74788414849E+02  0.00000000000E+00 0. -1.
         13    1    3    3    0    0  0.10955803296E+03  0.30751056371E+02  0.10637437344E+03  0.15576937241E+03  0.00000000000E+00 0.  1.
         21    1    1    2  502  501 -0.24976372780E+03 -0.32140930722E+02  0.23099181153E+03  0.34171944069E+03  0.00000000000E+00 0.  1.
<scales pt_clust_5="13000.00000" pt_clust_6="13000.00000" pt_clust_7="13000.00000" pt_clust_8="13000.00000" pt_clust_9="193.34092"></scales>
<clustering>
<clus scale="   93.152">  5  6 -1 -1</clus>
<clus scale="   96.314">  7  8 -1 -1</clus>
<clus scale="  140.630">  1  5  2 -1</clus>
<clus scale="  193.341">  1  9  2 -1</clus>
<clus scale="  140.630">  1  5  2 -1</clus>
</clustering>
</event>
<event>
 9    1  0.2423659E-006  0.1353344E+03  0.7546771E-02  0.1220152E+00
          1   -1    0    0  502    0  0.00000000000E+00  0.00000000000E+00  0.50194657698E+03  0.50194657698E+03  0.00000000000E+00 0. -1.
         -1   -1    0    0    0  501 -0.00000000000E+00 -0.00000000000E+00 -0.89049108796E+02  0.89049108796E+02  0.00000000000E+00 0.  1.
         23    2    1    2    0    0  0.86056230565E+02 -0.15798090028E+02  0.11366103939E+03  0.17138420282E+03  0.93800099324E+02 0.  0.
         23    2    1    2    0    0 -0.84687414876E+02 -0.10316760704E+03  0.23163481211E+03  0.28277329635E+03  0.92144113045E+02 0.  0.
        -13    1    3    3    0    0  0.11351794819E+02 -0.34578857587E+02  0.29519994272E+01  0.36514037550E+02  0.00000000000E+00 0.  1.
         13    1    3    3    0    0  0.74704435746E+02  0.18780767558E+02  0.11070903996E+03  0.13487016527E+03  0.00000000000E+00 0. -1.
        -13    1    4    4    0    0 -0.16212870384E+00 -0.72126880459E+02  0.10521023569E+03  0.12755981681E+03  0.00000000000E+00 0.  1.
         13    1    4    4    0    0 -0.84525286172E+02 -0.31040726578E+02  0.12642457642E+03  0.15521347954E+03  0.00000000000E+00 0. -1.
         21    1    1    2  502  501 -0.13688156891E+01  0.11896569706E+03  0.67601616683E+02  0.13683818660E+03  0.00000000000E+00 0. -1.
<scales pt_clust_5="13000.00000" pt_clust_6="13000.00000" pt_clust_7="13000.00000" pt_clust_8="13000.00000" pt_clust_9="118.97357"></scales>
<clustering>
<clus scale="   92.144">  7  8 -1 -1</clus>
<clus scale="   93.800">  5  6 -1 -1</clus>
<clus scale="  118.974">  2  9  1 -1</clus>
<clus scale="  134.192">  1  7  2 -1</clus>
<clus scale="  134.192">  1  5  2 -1</clus>
</clustering>
</event>
<event>
 9    1  0.2423659E-006  0.9455850E+02  0.7546771E-02  0.1293544E+00
          2   -1    0    0  502    0  0.00000000000E+00  0.00000000000E+00  0.28976458856E+03  0.28976458856E+03  0.00000000000E+00 0. -1.
         -2   -1    0    0    0  501 -0.00000000000E+00 -0.00000000000E+00 -0.16508477885E+03  0.16508477885E+03  0.00000000000E+00 0.  1.
         23    2    1    2    0    0  0.83182045212E+01 -0.94990975565E+01 -0.12547280892E+03  0.15730987834E+03  0.94040133267E+02 0.  0.
         23    2    1    2    0    0  0.13570197910E+02 -0.29604078040E+02  0.22730838548E+03  0.24724018996E+03  0.91640917270E+02 0.  0.
        -11    1    3    3    0    0 -0.40386797447E+02  0.10887912446E+02 -0.49771274620E+02  0.65013997129E+02  0.00000000000E+00 0. -1.
         11    1    3    3    0    0  0.48705001968E+02 -0.20387010002E+02 -0.75701534297E+02  0.92295881211E+02  0.00000000000E+00 0.  1.
        -13    1    4    4    0    0 -0.75009457614E+01  0.23886487047E+02  0.19813924974E+02  0.31928358455E+02  0.00000000000E+00 0. -1.
         13    1    4    4    0    0  0.21071143672E+02 -0.53490565087E+02  0.20749446050E+03  0.21531183151E+03  0.00000000000E+00 0.  1.
         21    1    1    2  502  501 -0.21888402432E+02  0.39103175596E+02  0.22844233147E+02  0.50299299108E+02  0.00000000000E+00 0. -1.
<scales pt_clust_5="13000.00000" pt_clust_6="13000.00000" pt_clust_7="13000.00000" pt_clust_8="13000.00000" pt_clust_9="44.81250"></scales>
<clustering>
<clus scale="   44.813">  1  9  2 -1</clus>
<clus scale="   91.641">  7  8 -1 -1</clus>
<clus scale="   92.173">  1  7  2 -1</clus>
<clus scale="   94.040">  5  6 -1 -1</clus>
<clus scale="   44.813">  1  5  2 -1</clus>
</clustering>
</event>
<event>
 9    1  0.2423659E-006  0.9118606E+02  0.7546771E-02  0.1301312E+00
          1   -1    0    0  502    0  0.00000000000E+00  0.00000000000E+00  0.57480796053E+02  0.57480796053E+02  0.00000000000E+00 0. -1.
         -1   -1    0    0    0  501 -0.00000000000E+00 -0.00000000000E+00 -0.75595305359E+03  0.75595305359E+03  0.00000000000E+00 0.  1.
         23    2    1    2    0    0 -0.83291380501E+01  0.58381326920E+02 -0.29676619058E+03  0.31575753274E+03  0.90304450274E+02 0.  0.
         23    2    1    2    0    0  0.83147652084E+01 -0.27465255003E+01  0.35502278869E+01  0.88618991032E+02  0.88113805563E+02 0.  0.
        -11    1    3    3    0    0  0.35180568560E+02  0.53337785099E+02 -0.16757992995E+03  0.17934777569E+03  0.00000000000E+00 0.  1.
         11    1    3    3    0    0 -0.43509706610E+02  0.50435418213E+01 -0.12918626063E+03  0.13640975706E+03  0.00000000000E+00 0. -1.
        -11    1    4    4    0    0  0.33117619888E+02  0.93571669758E+01 -0.29664338369E+02  0.45434637577E+02  0.00000000000E+00 0.  1.
         11    1    4    4    0    0 -0.24802854679E+02 -0.12103692476E+02  0.33214566256E+02  0.43184353456E+02  0.00000000000E+00 0. -1.
         21    1    1    2  502  501  0.14372841708E-01 -0.55634801420E+02 -0.40525629485E+03  0.40905732587E+03  0.00000000000E+00 0.  1.
<scales pt_clust_5="13000.00000" pt_clust_6="13000.00000" pt_clust_7="13000.00000" pt_clust_8="13000.00000" pt_clust_9="55.63480"></scales>
<clustering>
<clus scale="   55.635">  2  9  1 -1</clus>
<clus scale="   88.114">  7  8 -1 -1</clus>
<clus scale="   89.017">  1  7  2 -1</clus>
<clus scale="   90.304">  5  6 -1 -1</clus>
<clus scale="   89.017">  1  5  2 -1</clus>
</clustering>
</event>
<event>
 9    1  0.2423659E-006  0.1715887E+03  0.7546771E-02  0.1194554E+00
          2   -1    0    0  502    0  0.00000000000E+00  0.00000000000E+00  0.53989193578E+03  0.53989193578E+03  0.00000000000E+00 0.  1.
         -2   -1    0    0    0  501 -0.00000000000E+00 -0.00000000000E+00 -0.93478140570E+02  0.93478140570E+02  0.00000000000E+00 0. -1.
         23    2    1    2    0    0  0.68534777797E+02 -0.12851744728E+02  0.58425554712E+02  0.12811425886E+03  0.90208285475E+02 0.  0.
         23    2    1    2    0    0 -0.34210546214E+01 -0.13378180682E+03  0.18701501225E+03  0.24809549035E+03  0.93099312959E+02 0.  0.
        -11    1    4    4    0    0  0.30965572774E+02 -0.98866224517E+02  0.81711990890E+02  0.13194789313E+03  0.00000000000E+00 0. -1.
         11    1    4    4    0    0 -0.34386627395E+02 -0.34915582305E+02  0.10530302136E+03  0.11614759721E+03  0.00000000000E+00 0.  1.
        -13    1    3    3    0    0  0.11367507252E+02  0.36549916551E+02  0.23115087679E+02  0.44714918086E+02  0.00000000000E+00 0.  1.
         13    1    3    3    0    0  0.57167270545E+02 -0.49401661279E+02  0.35310467033E+02  0.83399340770E+02  0.00000000000E+00 0. -1.
         21    1    1    2  502  501 -0.65113723176E+02  0.14663355155E+03  0.20097322825E+03  0.25716032715E+03  0.00000000000E+00 0.  1.
<scales pt_clust_5="13000.00000" pt_clust_6="13000.00000" pt_clust_7="13000.00000" pt_clust_8="13000.00000" pt_clust_9="144.13609"></scales>
<clustering>
<clus scale="   90.208">  7  8 -1 -1</clus>
<clus scale="   93.099">  5  6 -1 -1</clus>
<clus scale="  114.016">  2  7  1 -1</clus>
<clus scale="  144.136">  2  9  1 -1</clus>
<clus scale="  171.589">  1  5  2 -1</clus>
</clustering>
</event>
<event>
 9    1  0.2423659E-006  0.1289514E+03  0.7546771E-02  0.1236725E+00
         -2   -1    0    0    0  501 -0.00000000000E+00  0.00000000000E+00  0.18220528331E+03  0.18220528331E+03  0.00000000000E+00 0.  1.
          2   -1    0    0  502    0  0.00000000000E+00 -0.00000000000E+00 -0.19435460263E+03  0.19435460263E+03  0.00000000000E+00 0. -1.
         23    2    1    2    0    0  0.69449544419E+02  0.31760432399E+00  0.14744322864E+02  0.11365227768E+03  0.88747422903E+02 0.  0.
         23    2    1    2    0    0  0.34378153057E+02 -0.49962381888E+02 -0.80088977203E+02  0.13612220544E+03  0.91852672974E+02 0.  0.
        -11    1    3    3    0    0  0.18949398584E+02  0.42258706196E+02 -0.26171766823E+00  0.46313566611E+02  0.00000000000E+00 0. -1.
         11    1    3    3    0    0  0.50500145834E+02 -0.41941101872E+02  0.15006040532E+02  0.67338711066E+02  0.00000000000E+00 0.  1.
        -11    1    4    4    0    0  0.14179494451E+02 -0.16661846302E+02  0.19425309973E+02  0.29257782771E+02  0.00000000000E+00 0.  1.
         11    1    4    4    0    0  0.20198658606E+02 -0.33300535586E+02 -0.99514287177E+02  0.10686442267E+03  0.00000000000E+00 0. -1.
         21    1    1    2  502  501 -0.10382769748E+03  0.49644777564E+02  0.53195335021E+02  0.12678540283E+03  0.00000000000E+00 0. -1.
<scales pt_clust_5="13000.00000" pt_clust_6="13000.00000" pt_clust_7="13000.00000" pt_clust_8="13000.00000" pt_clust_9="93.55409"></scales>
<clustering>
<clus scale="   88.747">  5  6 -1 -1</clus>
<clus scale="   91.853">  7  8 -1 -1</clus>
<clus scale="  110.068">  2  7  1 -1</clus>
<clus scale="   93.554">  2  9  1 -1</clus>
<clus scale="  110.068">  2  5  1 -1</clus>
</clustering>
</event>
<event>
 9    1  0.2423659E-006  0.6154886E+03  0.7546771E-02  0.1008218E+00
          2   -1    0    0  502    0  0.00000000000E+00  0.00000000000E+00  0.75235269565E+03  0.75235269565E+03  0.00000000000E+00 0. -1.
         -2   -1    0    0    0  501 -0.00000000000E+00 -0.00000000000E+00 -0.84496258222E+03  0.84496258222E+03  0.00000000000E+00 0.  1.
         23    2    1    2    0    0 -0.23327997066E+03  0.70340022482E+03 -0.18654553342E+03  0.77453375613E+03  0.12614230995E+03 0.  0.
         23    2    1    2    0    0 -0.52978667471E+02 -0.30003012501E+03  0.79474528377E+02  0.32794764126E+03  0.91698634819E+02 0.  0.
        -11    1    3    3    0    0 -0.22976342202E+03  0.66585336650E+03 -0.20349843001E+03  0.73318725221E+03  0.00000000000E+00 0.  1.
         11    1    3    3    0    0 -0.35165486337E+01  0.37546858320E+02  0.16952896591E+02  0.41346503925E+02  0.00000000000E+00 0. -1.
        -13    1    4    4    0    0 -0.23949177581E+02 -0.89351751356E+01  0.82922453957E+01  0.26873068213E+02  0.00000000000E+00 0.  1.
         13    1    4    4    0    0 -0.29029489890E+02 -0.29109494987E+03  0.71182282981E+02  0.30107457304E+03  0.00000000000E+00 0. -1.
         21    1    1    2  502  501  0.28625863813E+03 -0.40337009981E+03  0.14461118466E+02  0.49483388048E+03  0.00000000000E+00 0. -1.
<scales pt_clust_5="13000.00000" pt_clust_6="13000.00000" pt_clust_7="13000.00000" pt_clust_8="13000.00000" pt_clust_9="602.42371"></scales>
<clustering>
<clus scale="   91.699">  7  8 -1 -1</clus>
<clus scale="  126.142">  5  6 -1 -1</clus>
<clus scale="  318.172">  1  7  2 -1</clus>
<clus scale="  602.424">  2  9  1 -1</clus>
<clus scale="  318.172">  1  5  2 -1</clus>
</clustering>
</event>
<event>
 9    1  0.2423659E-006  0.1024350E+03  0.7546771E-02  0.1275601E+00
         -1   -1    0    0    0  501 -0.00000000000E+00  0.00000000000E+00  0.21091023190E+03  0.21091023190E+03  0.00000000000E+00 0.  1.
          1   -1    0    0  502    0  0.00000000000E+00 -0.00000000000E+00 -0.95470959154E+02  0.95470959154E+02  0.00000000000E+00 0. -1.
         23    2    1    2    0    0  0.31097758924E+02  0.58070946222E+02  0.58150593722E+02  0.13001898921E+03  0.95833921961E+02 0.  0.
         23    2    1    2    0    0 -0.30490635236E+02  0.76599582333E+01  0.25631949068E+02  0.10340283678E+03  0.95114646844E+02 0.  0.
        -11    1    4    4    0    0 -0.71901884204E+01 -0.26445298743E+02 -0.25662879892E+02  0.37545120049E+02  0.00000000000E+00 0. -1.
         11    1    4    4    0    0 -0.23300446816E+02  0.34105256977E+02  0.51294828960E+02  0.65857716733E+02  0.00000000000E+00 0.  1.
        -13    1    3    3    0    0 -0.25766390767E+02 -0.32497121359E+01  0.34363009201E+02  0.43073006901E+02  0.00000000000E+00 0. -1.
         13    1    3    3    0    0  0.56864149691E+02  0.61320658358E+02  0.23787584521E+02  0.86945982304E+02  0.00000000000E+00 0.  1.
         21    1    1    2  502  501 -0.60712368781E+00 -0.65730904456E+02  0.31656729961E+02  0.72959365071E+02  0.00000000000E+00 0. -1.
<scales pt_clust_5="13000.00000" pt_clust_6="13000.00000" pt_clust_7="13000.00000" pt_clust_8="13000.00000" pt_clust_9="65.73371"></scales>
<clustering>
<clus scale="   65.734">  1  9  2 -1</clus>
<clus scale="   95.115">  5  6 -1 -1</clus>
<clus scale="   95.834">  7  8 -1 -1</clus>
<clus scale="  101.762">  2  5  1 -1</clus>
<clus scale="  101.762">  2  5  1 -1</clus>
</clustering>
</event>
<event>
 9    1  0.2423659E-006  0.3366264E+03  0.7546771E-02  0.1111145E+00
          1   -1    0    0  502    0  0.00000000000E+00  0.00000000000E+00  0.28427960373E+03  0.28427960373E+03  0.00000000000E+00 0. -1.
         -1   -1    0    0    0  501 -0.00000000000E+00 -0.00000000000E+00 -0.55292175993E+03  0.55292175993E+03  0.00000000000E+00 0.  1.
         23    2    1    2    0    0  0.24795134226E+03 -0.12876215742E+03 -0.13628487189E+02  0.30177636490E+03  0.11324167713E+03 0.  0.
         23    2    1    2    0    0  0.52426328273E+02 -0.27979018149E+02  0.50822615002E+01  0.10828985136E+03  0.90385381417E+02 0.  0.
        -11    1    4    4    0    0  0.69982494660E+02  0.27618191567E+01  0.14791145126E+02  0.71581807591E+02  0.00000000000E+00 0.  1.
         11    1    4    4    0    0 -0.17556166386E+02 -0.30740837306E+02 -0.97088836262E+01  0.36708043774E+02  0.00000000000E+00 0. -1.
        -13    1    3    3    0    0 -0.40820184003E+01 -0.22850232843E+02  0.13827317792E+02  0.27018340669E+02  0.00000000000E+00 0.  1.
         13    1    3    3    0    0  0.25203336066E+03 -0.10591192458E+03 -0.27455804981E+02  0.27475802423E+03  0.00000000000E+00 0. -1.
         21    1    1    2  502  501 -0.30037767053E+03  0.15674117557E+03 -0.26009593051E+03  0.42713514740E+03  0.00000000000E+00 0.  1.
<scales pt_clust_5="13000.00000" pt_clust_6="13000.00000" pt_clust_7="13000.00000" pt_clust_8="13000.00000" pt_clust_9="317.00730"></scales>
<clustering>
<clus scale="   90.385">  5  6 -1 -1</clus>
<clus scale="  108.171">  1  5  2 -1</clus>
<clus scale="  113.242">  7  8 -1 -1</clus>
<clus scale="  317.007">  2  9  1 -1</clus>
<clus scale="  108.171">  1  5  2 -1</clus>
</clustering>
</event>
<event>
 9    1  0.2423659E-006  0.1035971E+03  0.7546771E-02  0.1273711E+00
          1   -1    0    0  502    0  0.00000000000E+00  0.00000000000E+00  0.38974808659E+02  0.38974808659E+02  0.00000000000E+00 0. -1.
         -1   -1    0    0    0  501 -0.00000000000E+00 -0.00000000000E+00 -0.48528716848E+03  0.48528716848E+03  0.00000000000E+00 0.  1.
         23    2    1    2    0    0  0.24499662356E+02 -0.83766859901E+01 -0.26736600445E+03  0.28263424658E+03  0.87904122072E+02 0.  0.
         23    2    1    2    0    0 -0.62265214261E+02 -0.19834824738E+02 -0.98620598208E+02  0.14849152111E+03  0.89740360323E+02 0.  0.
        -11    1    3    3    0    0 -0.26017399653E+02  0.20521420135E+02 -0.86200050234E+02  0.92349783050E+02  0.00000000000E+00 0. -1.
         11    1    3    3    0    0  0.50517062009E+02 -0.28898106125E+02 -0.18116595422E+03  0.19028446353E+03  0.00000000000E+00 0.  1.
        -11    1    4    4    0    0 -0.71872043081E+02  0.98975141336E+01 -0.90905660914E+02  0.11630731081E+03  0.00000000000E+00 0. -1.
         11    1    4    4    0    0  0.96068288207E+01 -0.29732338872E+02 -0.77149372938E+01  0.32184210294E+02  0.00000000000E+00 0.  1.
         21    1    1    2  502  501  0.37765551905E+02  0.28211510728E+02 -0.80325757160E+02  0.93136209454E+02  0.00000000000E+00 0.  1.
<scales pt_clust_5="13000.00000" pt_clust_6="13000.00000" pt_clust_7="13000.00000" pt_clust_8="13000.00000" pt_clust_9="47.13943"></scales>
<clustering>
<clus scale="   47.139">  2  9  1 -1</clus>
<clus scale="   87.904">  5  6 -1 -1</clus>
<clus scale="   89.740">  7  8 -1 -1</clus>
<clus scale="  102.011">  2  5  1 -1</clus>
<clus scale="  103.597">  1  5  2 -1</clus>
</clustering>
</event>
<event>
 9    1  0.2423659E-006  0.9326447E+02  0.7546771E-02  0.1296831E+00
         -1   -1    0    0    0  501 -0.00000000000E+00  0.00000000000E+00  0.10654799239E+03  0.10654799239E+03  0.00000000000E+00 0.  1.
          1   -1    0    0  502    0  0.00000000000E+00 -0.00000000000E+00 -0.44335666455E+03  0.44335666455E+03  0.00000000000E+00 0. -1.
         23    2    1    2    0    0  0.22420773595E+02  0.18442766347E+02 -0.14312752455E+03  0.17294220386E+03  0.92632018609E+02 0.  0.
         23    2    1    2    0    0  0.19464016386E+02  0.25582516943E+02 -0.26596796857E+03  0.28252757772E+03  0.89719333249E+02 0.  0.
        -13    1    3    3    0    0 -0.22901078917E+02  0.48547053555E+01 -0.11613150602E+03  0.11846752411E+03  0.00000000000E+00 0.  1.
         13    1    3    3    0    0  0.45321852512E+02  0.13588060991E+02 -0.26996018536E+02  0.54474679746E+02  0.00000000000E+00 0. -1.
        -13    1    4    4    0    0 -0.20111935215E+02 -0.23673307156E+00 -0.10428989284E+02  0.22656341235E+02  0.00000000000E+00 0.  1.
         13    1    4    4    0    0  0.39575951602E+02  0.25819250015E+02 -0.25553897929E+03  0.25987123648E+03  0.00000000000E+00 0. -1.
         21    1    1    2  502  501 -0.41884789982E+02 -0.44025283290E+02  0.72286820962E+02  0.94434875366E+02  0.00000000000E+00 0.  1.
<scales pt_clust_5="13000.00000" pt_clust_6="13000.00000" pt_clust_7="13000.00000" pt_clust_8="13000.00000" pt_clust_9="60.76645"></scales>
<clustering>
<clus scale="   60.766">  1  9  2 -1</clus>
<clus scale="   89.719">  7  8 -1 -1</clus>
<clus scale="   90.372">  2  7  1 -1</clus>
<clus scale="   92.632">  5  6 -1 -1</clus>
<clus scale="   90.372">  2  5  1 -1</clus>
</clustering>
</event>
<event>
 9    1  0.2423659E-006  0.1144145E+03  0.7546771E-02  0.1252812E+00
         -2   -1    0    0    0  501 -0.00000000000E+00  0.00000000000E+00  0.50986550853E+02  0.50986550853E+02  0.00000000000E+00 0.  1.
          2   -1    0    0  502    0  0.00000000000E+00 -0.00000000000E+00 -0.51747917011E+03  0.51747917011E+03  0.00000000000E+00 0. -1.
         23    2    1    2    0    0  0.47068015555E+02  0.48365527692E+02 -0.96613006711E+02  0.14833430627E+03  0.90079803466E+02 0.  0.
         23    2    1    2    0    0  0.72517985552E+01 -0.78051367851E+02 -0.31634971466E+03  0.33829412931E+03  0.90670675285E+02 0.  0.
        -13    1    4    4    0    0  0.47239629177E+02 -0.55772080744E+02 -0.17277587472E+03  0.18759960139E+03  0.00000000000E+00 0. -1.
         13    1    4    4    0    0 -0.39987830621E+02 -0.22279287107E+02 -0.14357383994E+03  0.15069452792E+03  0.00000000000E+00 0.  1.
        -13    1    3    3    0    0  0.46519223893E+02 -0.72268360474E+01 -0.75277084235E+02  0.88785723862E+02  0.00000000000E+00 0. -1.
         13    1    3    3    0    0  0.54879166235E+00  0.55592363739E+02 -0.21335922477E+02  0.59548582404E+02  0.00000000000E+00 0.  1.
         21    1    1    2  502  501 -0.54319814110E+02  0.29685840159E+02 -0.53529897881E+02  0.81837285378E+02  0.00000000000E+00 0.  1.
<scales pt_clust_5="13000.00000" pt_clust_6="13000.00000" pt_clust_7="13000.00000" pt_clust_8="13000.00000" pt_clust_9="61.90227"></scales>
<clustering>
<clus scale="   61.902">  1  9  2 -1</clus>
<clus scale="   90.080">  7  8 -1 -1</clus>
<clus scale="   90.671">  5  6 -1 -1</clus>
<clus scale="  113.947">  1  7  2 -1</clus>
<clus scale="  114.415">  2  5  1 -1</clus>
</clustering>
</event>
<event>
 9    1  0.2423659E-006  0.9349433E+02  0.7546771E-02  0.1295400E+00
          1   -1    0    0  502    0  0.00000000000E+00  0.00000000000E+00  0.21193211642E+03  0.21193211642E+03  0.00000000000E+00 0. -1.
         -1   -1    0    0    0  501 -0.00000000000E+00 -0.00000000000E+00 -0.11494677261E+03  0.11494677261E+03  0.00000000000E+00 0.  1.
         23    2    1    2    0    0 -0.55675990634E+02  0.84961921959E+00 -0.26767434073E+02  0.10908827475E+03  0.89906720417E+02 0.  0.
         23    2    1    2    0    0 -0.48640105757E+01 -0.23199025062E+02  0.12068783768E+03  0.15318425587E+03  0.91312697474E+02 0.  0.
        -11    1    3    3    0    0 -0.62642337699E+02  0.32977213676E+02 -0.28152814943E+02  0.76184907189E+02  0.00000000000E+00 0. -1.
         11    1    3    3    0    0  0.69663470650E+01 -0.32127594456E+02  0.13853808699E+01  0.32903367565E+02  0.00000000000E+00 0.  1.
        -11    1    4    4    0    0 -0.32070506415E+01  0.22955390605E+02  0.99871109479E+02  0.10252547801E+03  0.00000000000E+00 0. -1.
         11    1    4    4    0    0 -0.16569599343E+01 -0.46154415667E+02  0.20816728201E+02  0.50658777865E+02  0.00000000000E+00 0.  1.
         21    1    1    2  502  501  0.60540001209E+02  0.22349405842E+02  0.30649401975E+01  0.64606358405E+02  0.00000000000E+00 0.  1.
<scales pt_clust_5="13000.00000" pt_clust_6="13000.00000" pt_clust_7="13000.00000" pt_clust_8="13000.00000" pt_clust_9="64.53362"></scales>
<clustering>
<clus scale="   64.534">  2  9  1 -1</clus>
<clus scale="   89.907">  5  6 -1 -1</clus>
<clus scale="   91.313">  7  8 -1 -1</clus>
<clus scale="   92.122">  2  5  1 -1</clus>
<clus scale="   93.494">  1  5  2 -1</clus>
</clustering>
</event>
<event>
 9    1  0.2423659E-006  0.1205965E+03  0.7546771E-02  0.1243010E+00
         -3   -1    0    0    0  501 -0.00000000000E+00  0.00000000000E+00  0.93634323655E+02  0.93634323655E+02  0.00000000000E+00 0.  1.
          3   -1    0    0  502    0  0.00000000000E+00 -0.00000000000E+00 -0.21618001080E+03  0.21618001080E+03  0.00000000000E+00 0. -1.
         23    2    1    2    0    0 -0.43805759673E+02 -0.71420859884E+02 -0.15549590246E+02  0.12391674246E+03  0.89964912593E+02 0.  0.
         23    2    1    2    0    0  0.62365903146E+02  0.47758598019E+02 -0.64452136445E+02  0.13379797459E+03  0.87048437968E+02 0.  0.
        -11    1    4    4    0    0  0.20805152555E+02 -0.20548571782E+02  0.27219340364E+01  0.29368471190E+02  0.00000000000E+00 0.  1.
         11    1    4    4    0    0  0.41560750591E+02  0.68307169801E+02 -0.67174070482E+02  0.10442950340E+03  0.00000000000E+00 0. -1.
        -13    1    3    3    0    0 -0.21926178657E+02  0.72788115385E+01  0.23868975067E+02  0.33218464423E+02  0.00000000000E+00 0. -1.
         13    1    3    3    0    0 -0.21879581016E+02 -0.78699671422E+02 -0.39418565313E+02  0.90698278036E+02  0.00000000000E+00 0.  1.
         21    1    1    2  502  501 -0.18560143474E+02  0.23662261865E+02 -0.42543960453E+02  0.52099617402E+02  0.00000000000E+00 0. -1.
<scales pt_clust_5="13000.00000" pt_clust_6="13000.00000" pt_clust_7="13000.00000" pt_clust_8="13000.00000" pt_clust_9="30.07294"></scales>
<clustering>
<clus scale="   30.073">  2  9  1 -1</clus>
<clus scale="   87.048">  5  6 -1 -1</clus>
<clus scale="   89.965">  7  8 -1 -1</clus>
<clus scale="  118.437">  2  5  1 -1</clus>
<clus scale="   30.073">  2  5  1 -1</clus>
</clustering>
</event>
<event>
 9    1  0.2423659E-006  0.2927985E+03  0.7546771E-02  0.1125341E+00
         -1   -1    0    0    0  501 -0.00000000000E+00  0.00000000000E+00  0.26431890935E+03  0.26431890935E+03  0.00000000000E+00 0.  1.
          1   -1    0    0  502    0  0.00000000000E+00 -0.00000000000E+00 -0.78425936737E+03  0.78425936737E+03  0.00000000000E+00 0. -1.
         23    2    1    2    0    0  0.27994360749E+03  0.68665786621E+02  0.10883466857E+03  0.32098988600E+03  0.90033928057E+02 0.  0.
         23    2    1    2    0    0 -0.67700754599E+02  0.26550808472E+02 -0.11081714604E+03  0.15979115738E+03  0.89243691749E+02 0.  0.
        -13    1    3    3    0    0  0.23740054320E+03  0.46401594253E+02  0.12239472988E+03  0.27109517842E+03  0.00000000000E+00 0.  1.
         13    1    3    3    0    0  0.42543064291E+02  0.22264192368E+02 -0.13560061312E+02  0.49894707573E+02  0.00000000000E+00 0. -1.
        -13    1    4    4    0    0 -0.32635168222E+02  0.33118803351E+02 -0.11483422652E+03  0.12389031004E+03  0.00000000000E+00 0.  1.
         13    1    4    4    0    0 -0.35065586377E+02 -0.65679948789E+01  0.40170804778E+01  0.35900847347E+02  0.00000000000E+00 0. -1.
         21    1    1    2  502  501 -0.21224285289E+03 -0.95216595093E+02 -0.51795798055E+03  0.56779723335E+03  0.00000000000E+00 0. -1.
<scales pt_clust_5="13000.00000" pt_clust_6="13000.00000" pt_clust_7="13000.00000" pt_clust_8="13000.00000" pt_clust_9="278.61236"></scales>
<clustering>
<clus scale="   89.244">  7  8 -1 -1</clus>
<clus scale="   90.034">  5  6 -1 -1</clus>
<clus scale="  115.121">  2  7  1 -1</clus>
<clus scale="  278.612">  2  9  1 -1</clus>
<clus scale="  115.121">  2  5  1 -1</clus>
</clustering>
</event>
<event>
 9    1  0.2423659E-006  0.2092657E+03  0.7546771E-02  0.1150558E+00
         -1   -1    0    0    0  501 -0.00000000000E+00  0.00000000000E+00  0.16939368533E+03  0.16939368533E+03  0.00000000000E+00 0.  1.
          1   -1    0    0  502    0  0.00000000000E+00 -0.00000000000E+00 -0.10312904401E+04  0.10312904401E+04  0.00000000000E+00 0. -1.
         23    2    1    2    0    0  0.46126584182E+02 -0.15252465216E+03 -0.72710557208E+01  0.18193482959E+03  0.87498472455E+02 0.  0.
         23    2    1    2    0    0 -0.19814681378E+01 -0.12922558150E+03 -0.63810291556E+03  0.66067932891E+03  0.11233284330E+03 0.  0.
        -11    1    4    4    0    0 -0.27254861429E+02  0.34294632063E+01 -0.47837376852E+02  0.55163423693E+02  0.00000000000E+00 0. -1.
         11    1    4    4    0    0  0.25273393291E+02 -0.13265504471E+03 -0.59026553870E+03  0.60551590522E+03  0.00000000000E+00 0.  1.
        -13    1    3    3    0    0  0.51049876778E+02 -0.30713052526E+02  0.25304229211E+01  0.59630399585E+02  0.00000000000E+00 0. -1.
         13    1    3    3    0    0 -0.49232925954E+01 -0.12181159964E+03 -0.98014786419E+01  0.12230443001E+03  0.00000000000E+00 0.  1.
         21    1    1    2  502  501 -0.44145116045E+02  0.28175023366E+03 -0.21652278349E+03  0.35806996692E+03  0.00000000000E+00 0. -1.
<scales pt_clust_5="13000.00000" pt_clust_6="13000.00000" pt_clust_7="13000.00000" pt_clust_8="13000.00000" pt_clust_9="190.09515"></scales>
<clustering>
<clus scale="   87.498">  7  8 -1 -1</clus>
<clus scale="  112.333">  5  6 -1 -1</clus>
<clus scale="  171.236">  2  5  1 -1</clus>
<clus scale="  190.095">  2  9  1 -1</clus>
<clus scale="  171.236">  2  5  1 -1</clus>
</clustering>
</event>
<event>
 9    1  0.2423659E-006  0.1138738E+03  0.7546771E-02  0.1253958E+00
         -1   -1    0    0    0  501 -0.00000000000E+00  0.00000000000E+00  0.10124272752E+03  0.10124272752E+03  0.00000000000E+00 0.  1.
          1   -1    0    0  502    0  0.00000000000E+00 -0.00000000000E+00 -0.45265939312E+03  0.45265939312E+03  0.00000000000E+00 0. -1.
         23    2    1    2    0    0  0.39126048806E+02 -0.12191015237E+02 -0.76067056435E+02  0.12597699228E+03  0.91676261707E+02 0.  0.
         23    2    1    2    0    0 -0.74819451545E+02 -0.38309687205E+02 -0.32559084315E+03  0.34824751834E+03  0.90561329651E+02 0.  0.
        -13    1    3    3    0    0 -0.29771191736E+02 -0.65674144543E+01 -0.30866921898E+02  0.43384578567E+02  0.00000000000E+00 0. -1.
         13    1    3    3    0    0  0.68897240542E+02 -0.56236007828E+01 -0.45200134537E+02  0.82592413709E+02  0.00000000000E+00 0.  1.
        -13    1    4    4    0    0 -0.60153809742E+02 -0.67706272877E+02 -0.23144433501E+03  0.24853390196E+03  0.00000000000E+00 0. -1.
         13    1    4    4    0    0 -0.14665641803E+02  0.29396585672E+02 -0.94146508137E+02  0.99713616387E+02  0.00000000000E+00 0.  1.
         21    1    1    2  502  501  0.35693402739E+02  0.50500702442E+02  0.50241233984E+02  0.79677610019E+02  0.00000000000E+00 0. -1.
<scales pt_clust_5="13000.00000" pt_clust_6="13000.00000" pt_clust_7="13000.00000" pt_clust_8="13000.00000" pt_clust_9="61.84125"></scales>
<clustering>
<clus scale="   61.841">  1  9  2 -1</clus>
<clus scale="   90.561">  7  8 -1 -1</clus>
<clus scale="   91.676">  5  6 -1 -1</clus>
<clus scale="  112.978">  2  7  1 -1</clus>
<clus scale="  112.978">  2  5  1 -1</clus>
</clustering>
</event>
<event>
 9    1  0.2423659E-006  0.9227765E+02  0.7546771E-02  0.1299006E+00
          1   -1    0    0  502    0  0.00000000000E+00  0.00000000000E+00  0.19770697298E+03  0.19770697298E+03  0.00000000000E+00 0. -1.
         -1   -1    0    0    0  501 -0.00000000000E+00 -0.00000000000E+00 -0.12309878689E+03  0.12309878689E+03  0.00000000000E+00 0.  1.
         23    2    1    2    0    0 -0.21343073809E+02  0.72900988304E+01 -0.50444128991E+02  0.10555381716E+03  0.89935120098E+02 0.  0.
         23    2    1    2    0    0  0.19066066542E+02  0.19437248561E+02  0.42007562125E+01  0.91459232344E+02  0.87211371410E+02 0.  0.
        -11    1    4    4    0    0 -0.29117331662E+02  0.19422050643E+02  0.20538179703E+02  0.40581422841E+02  0.00000000000E+00 0.  1.
         11    1    4    4    0    0  0.48183398204E+02  0.15197917451E-01 -0.16337423490E+02  0.50877809503E+02  0.00000000000E+00 0. -1.
        -13    1    3    3    0    0 -0.37983007799E+02  0.33255142438E+02 -0.54684168582E+02  0.74424268041E+02  0.00000000000E+00 0.  1.
         13    1    3    3    0    0  0.16639933989E+02 -0.25965043608E+02  0.42400395903E+01  0.31129549120E+02  0.00000000000E+00 0. -1.
         21    1    1    2  502  501  0.22770072676E+01 -0.26727347391E+02  0.12085155886E+03  0.12379271037E+03  0.00000000000E+00 0. -1.
<scales pt_clust_5="13000.00000" pt_clust_6="13000.00000" pt_clust_7="13000.00000" pt_clust_8="13000.00000" pt_clust_9="26.82417"></scales>
<clustering>
<clus scale="   26.824">  1  9  2 -1</clus>
<clus scale="   87.211">  5  6 -1 -1</clus>
<clus scale="   89.625">  1  5  2 -1</clus>
<clus scale="   89.935">  7  8 -1 -1</clus>
<clus scale="   26.824">  1  5  2 -1</clus>
</clustering>
</event>
<event>
 9    1  0.2423659E-006  0.2120266E+03  0.7546771E-02  0.1140154E+00
         -1   -1    0    0    0  501 -0.00000000000E+00  0.00000000000E+00  0.26450046008E+03  0.26450046008E+03  0.00000000000E+00 0.  1.
          1   -1    0    0  502    0  0.00000000000E+00 -0.00000000000E+00 -0.58188414109E+03  0.58188414109E+03  0.00000000000E+00 0. -1.
         23    2    1    2    0    0 -0.74437603301E+02  0.22609405148E+03  0.13202051089E+03  0.28653136152E+03  0.89506027393E+02 0.  0.
         23    2    1    2    0    0  0.63049452003E+02 -0.99755053883E+02 -0.80492769375E+02  0.16974188378E+03  0.91689241532E+02 0.  0.
        -11    1    4    4    0    0  0.36634450244E+02 -0.91543744657E+02 -0.16429076825E+02  0.99961265978E+02  0.00000000000E+00 0. -1.
         11    1    4    4    0    0  0.26415001759E+02 -0.82113092264E+01 -0.64063692550E+02  0.69780617798E+02  0.00000000000E+00 0.  1.
        -11    1    3    3    0    0 -0.32939222533E+02  0.19881770825E+03  0.12288360150E+03  0.23603782115E+03  0.00000000000E+00 0.  1.
         11    1    3    3    0    0 -0.41498380768E+02  0.27276343227E+02  0.91369093969E+01  0.50493540374E+02  0.00000000000E+00 0. -1.
         21    1    1    2  502  501  0.11388151297E+02 -0.12633899759E+03 -0.36891142253E+03  0.39011135587E+03  0.00000000000E+00 0. -1.
<scales pt_clust_5="13000.00000" pt_clust_6="13000.00000" pt_clust_7="13000.00000" pt_clust_8="13000.00000" pt_clust_9="126.85122"></scales>
<clustering>
<clus scale="   89.506">  7  8 -1 -1</clus>
<clus scale="   91.689">  5  6 -1 -1</clus>
<clus scale="  126.851">  2  9  1 -1</clus>
<clus scale="  211.092">  1  7  2 -1</clus>
<clus scale="  126.851">  2  5  1 -1</clus>
</clustering>
</event>
<event>
 9    1  0.2423659E-006  0.1385328E+03  0.7546771E-02  0.1237278E+00
         -1   -1    0    0    0  501 -0.00000000000E+00  0.00000000000E+00  0.90618151113E+02  0.90618151113E+02  0.00000000000E+00 0.  1.
          1   -1    0    0  502    0  0.00000000000E+00 -0.00000000000E+00 -0.44286560870E+03  0.44286560870E+03  0.00000000000E+00 0. -1.
         23    2    1    2    0    0  0.11457210792E+01 -0.85667391249E+02 -0.25406848302E+03  0.28290793812E+03  0.90254599802E+02 0.  0.
         23    2    1    2    0    0 -0.19697199322E+02 -0.21588232876E+02 -0.11040156710E+03  0.14104355239E+03  0.82769234583E+02 0.  0.
        -11    1    3    3    0    0 -0.20622642951E+02 -0.42797841172E+02 -0.21715859855E+03  0.22229441184E+03  0.00000000000E+00 0. -1.
         11    1    3    3    0    0  0.21768364030E+02 -0.42869550076E+02 -0.36909884474E+02  0.60613526281E+02  0.00000000000E+00 0.  1.
        -13    1    4    4    0    0  0.15173845071E+02 -0.24738858042E+02 -0.10057380159E+03  0.10467734348E+03  0.00000000000E+00 0. -1.
         13    1    4    4    0    0 -0.34871044393E+02  0.31506251658E+01 -0.98277655129E+01  0.36366208916E+02  0.00000000000E+00 0.  1.
         21    1    1    2  502  501  0.18551478243E+02  0.10725562412E+03  0.12222592531E+02  0.10953226931E+03  0.00000000000E+00 0.  1.
<scales pt_clust_5="13000.00000" pt_clust_6="13000.00000" pt_clust_7="13000.00000" pt_clust_8="13000.00000" pt_clust_9="105.09733"></scales>
<clustering>
<clus scale="   82.769">  7  8 -1 -1</clus>
<clus scale="   87.777">  2  7  1 -1</clus>
<clus scale="   90.255">  5  6 -1 -1</clus>
<clus scale="  105.097">  1  9  2 -1</clus>
<clus scale="   87.777">  2  5  1 -1</clus>
</clustering>
</event>
<event>
 9    1  0.2423659E-006  0.1601393E+03  0.7546771E-02  0.1188640E+00
          1   -1    0    0  502    0  0.00000000000E+00  0.00000000000E+00  0.94627764077E+03  0.94627764077E+03  0.00000000000E+00 0. -1.
         -1   -1    0    0    0  501 -0.00000000000E+00 -0.00000000000E+00 -0.10289447808E+03  0.10289447808E+03  0.00000000000E+00 0.  1.
         23    2    1    2    0    0 -0.18421811474E+03 -0.13853634113E+02  0.10662598449E+03  0.23225117219E+03  0.91887264822E+02 0.  0.
         23    2    1    2    0    0  0.12177270631E+03  0.23129257693E+02  0.73774516962E+03  0.75378266705E+03  0.92503077116E+02 0.  0.
        -11    1    3    3    0    0 -0.41796559082E+02  0.57077735880E+01  0.73468758661E+02  0.84718295129E+02  0.00000000000E+00 0. -1.
         11    1    3    3    0    0 -0.14242155566E+03 -0.19561407701E+02  0.33157225825E+02  0.14753287706E+03  0.00000000000E+00 0.  1.
        -13    1    4    4    0    0  0.11930228768E+03 -0.11502294604E+02  0.56125185664E+03  0.57390677397E+03  0.00000000000E+00 0. -1.
         13    1    4    4    0    0  0.24704186297E+01  0.34631552297E+02  0.17649331298E+03  0.17987589307E+03  0.00000000000E+00 0.  1.
         21    1    1    2  502  501  0.62445408432E+02 -0.92756235792E+01 -0.98799141650E+00  0.63138279625E+02  0.00000000000E+00 0.  1.
<scales pt_clust_5="13000.00000" pt_clust_6="13000.00000" pt_clust_7="13000.00000" pt_clust_8="13000.00000" pt_clust_9="63.13055"></scales>
<clustering>
<clus scale="   63.131">  2  9  1 -1</clus>
<clus scale="   91.887">  5  6 -1 -1</clus>
<clus scale="   92.503">  7  8 -1 -1</clus>
<clus scale="  159.784">  2  5  1 -1</clus>
<clus scale="  160.139">  1  5  2 -1</clus>
</clustering>
</event>
<event>
 9    1  0.2423659E-006  0.1029153E+03  0.7546771E-02  0.1274964E+00
          1   -1    0    0  502    0  0.00000000000E+00  0.00000000000E+00  0.41919250234E+02  0.41919250234E+02  0.00000000000E+00 0. -1.
         -1   -1    0    0    0  501 -0.00000000000E+00 -0.00000000000E+00 -0.45006283977E+03  0.45006283977E+03  0.00000000000E+00 0.  1.
         23    2    1    2    0    0 -0.79872906194E+01 -0.23216702431E+02 -0.15145639237E+03  0.17807386168E+03  0.90379474101E+02 0.  0.
         23    2    1    2    0    0 -0.12322387787E+02  0.78523463777E+02 -0.18098000915E+03  0.21797648590E+03  0.91881494821E+02 0.  0.
        -11    1    3    3    0    0  0.21639235806E+02 -0.49306778495E+02 -0.94706773714E+02  0.10894396688E+03  0.00000000000E+00 0. -1.
         11    1    3    3    0    0 -0.29626526425E+02  0.26090076064E+02 -0.56749618661E+02  0.69129894802E+02  0.00000000000E+00 0.  1.
        -13    1    4    4    0    0 -0.30367525792E+02  0.14982496155E+02 -0.13055651997E+03  0.13487648691E+03  0.00000000000E+00 0.  1.
         13    1    4    4    0    0  0.18045138005E+02  0.63540967623E+02 -0.50423489178E+02  0.83099998995E+02  0.00000000000E+00 0. -1.
         21    1    1    2  502  501  0.20309678406E+02 -0.55306761347E+02 -0.75707188014E+02  0.95931742425E+02  0.00000000000E+00 0.  1.
<scales pt_clust_5="13000.00000" pt_clust_6="13000.00000" pt_clust_7="13000.00000" pt_clust_8="13000.00000" pt_clust_9="58.91792"></scales>
<clustering>
<clus scale="   58.918">  1  9  2 -1</clus>
<clus scale="   90.379">  5  6 -1 -1</clus>
<clus scale="   91.881">  7  8 -1 -1</clus>
<clus scale="  101.577">  2  5  1 -1</clus>
<clus scale="   58.918">  1  5  2 -1</clus>
</clustering>
</event>
<event>
 9    1  0.2423659E-006  0.1226713E+03  0.7546771E-02  0.1239078E+00
          1   -1    0    0  502    0  0.00000000000E+00  0.00000000000E+00  0.62337093902E+03  0.62337093902E+03  0.00000000000E+00 0. -1.
         -1   -1    0    0    0  501 -0.00000000000E+00 -0.00000000000E+00 -0.46904989241E+02  0.46904989241E+02  0.00000000000E+00 0.  1.
         23    2    1    2    0    0 -0.25510794110E+02 -0.80692322837E+02  0.19655490860E+03  0.23280037172E+03  0.91652219815E+02 0.  0.
         23    2    1    2    0    0  0.63513446208E+02  0.53036536101E+02  0.36880651795E+03  0.38918109990E+03  0.92719193412E+02 0.  0.
        -11    1    4    4    0    0  0.12012025011E+02  0.69094647466E+02  0.21917837794E+03  0.23012501040E+03  0.00000000000E+00 0.  1.
         11    1    4    4    0    0  0.51501421197E+02 -0.16058111364E+02  0.14962814001E+03  0.15905608950E+03  0.00000000000E+00 0. -1.
        -11    1    3    3    0    0 -0.50285571186E+02 -0.84866460389E+02  0.14398623153E+03  0.17453649944E+03  0.00000000000E+00 0. -1.
         11    1    3    3    0    0  0.24774777076E+02  0.41741375519E+01  0.52568677070E+02  0.58263872274E+02  0.00000000000E+00 0.  1.
         21    1    1    2  502  501 -0.38002652098E+02  0.27655786736E+02  0.11104523235E+02  0.48294456646E+02  0.00000000000E+00 0.  1.
<scales pt_clust_5="13000.00000" pt_clust_6="13000.00000" pt_clust_7="13000.00000" pt_clust_8="13000.00000" pt_clust_9="47.00047"></scales>
<clustering>
<clus scale="   47.000">  2  9  1 -1</clus>
<clus scale="   91.652">  7  8 -1 -1</clus>
<clus scale="   92.719">  5  6 -1 -1</clus>
<clus scale="  121.867">  2  7  1 -1</clus>
<clus scale="  122.671">  1  5  2 -1</clus>
</clustering>
</event>
<event>
 9    1  0.2423659E-006  0.1018241E+03  0.7546771E-02  0.1276753E+00
          2   -1    0    0  502    0  0.00000000000E+00  0.00000000000E+00  0.11626172383E+03  0.11626172383E+03  0.00000000000E+00 0. -1.
         -2   -1    0    0    0  501 -0.00000000000E+00 -0.00000000000E+00 -0.30781348776E+03  0.30781348776E+03  0.00000000000E+00 0.  1.
         23    2    1    2    0    0 -0.22220913231E+02  0.44509717677E+02 -0.24096263787E+03  0.26156361331E+03  0.88756109687E+02 0.  0.
         23    2    1    2    0    0 -0.13032137263E+02 -0.51331042594E+02  0.65926592323E+02  0.12298847851E+03  0.89303626670E+02 0.  0.
        -11    1    4    4    0    0  0.19408368167E+01 -0.31160225255E+02 -0.17549152633E+02  0.35814790850E+02  0.00000000000E+00 0.  1.
         11    1    4    4    0    0 -0.14972974080E+02 -0.20170817339E+02  0.83475744956E+02  0.87173687663E+02  0.00000000000E+00 0. -1.
        -13    1    3    3    0    0 -0.27724781179E+02  0.69555205629E+02 -0.19579893216E+03  0.20962779386E+03  0.00000000000E+00 0.  1.
         13    1    3    3    0    0  0.55038679480E+01 -0.25045487952E+02 -0.45163705707E+02  0.51935819454E+02  0.00000000000E+00 0. -1.
         21    1    1    2  502  501  0.35253050494E+02  0.68213249167E+01 -0.16515718380E+02  0.39523119770E+02  0.00000000000E+00 0. -1.
<scales pt_clust_5="13000.00000" pt_clust_6="13000.00000" pt_clust_7="13000.00000" pt_clust_8="13000.00000" pt_clust_9="35.90694"></scales>
<clustering>
<clus scale="   35.907">  1  9  2 -1</clus>
<clus scale="   88.756">  7  8 -1 -1</clus>
<clus scale="   89.304">  5  6 -1 -1</clus>
<clus scale="  101.344">  2  7  1 -1</clus>
<clus scale="   35.907">  1  5  2 -1</clus>
</clustering>
</event>
<event>
 9    1  0.2423659E-006  0.1010383E+03  0.7546771E-02  0.1282689E+00
         -1   -1    0    0    0  501 -0.00000000000E+00  0.00000000000E+00  0.57361311548E+02  0.57361311548E+02  0.00000000000E+00 0.  1.
          1   -1    0    0  502    0  0.00000000000E+00 -0.00000000000E+00 -0.24911018451E+03  0.24911018451E+03  0.00000000000E+00 0. -1.
         23    2    1    2    0    0  0.17454655639E+00 -0.55936809009E+02 -0.45452801003E+02  0.11682487220E+03  0.91940940702E+02 0.  0.
         23    2    1    2    0    0 -0.47303128043E+01  0.23095135856E+02 -0.90875311753E+02  0.12506496111E+03  0.82626636451E+02 0.  0.
        -11    1    3    3    0    0 -0.12997371558E+02 -0.32741494348E+02  0.23866461810E+02  0.42550500806E+02  0.00000000000E+00 0.  1.
         11    1    3    3    0    0  0.13171918114E+02 -0.23195314662E+02 -0.69319262814E+02  0.74274371395E+02  0.00000000000E+00 0. -1.
        -13    1    4    4    0    0 -0.18782593538E+02  0.47989760068E+02 -0.78522584695E+02  0.93923368757E+02  0.00000000000E+00 0. -1.
         13    1    4    4    0    0  0.14052280733E+02 -0.24894624211E+02 -0.12352727058E+02  0.31141592352E+02  0.00000000000E+00 0.  1.
         21    1    1    2  502  501  0.45557662479E+01  0.32841673153E+02 -0.55420760204E+02  0.64581662747E+02  0.00000000000E+00 0.  1.
<scales pt_clust_5="13000.00000" pt_clust_6="13000.00000" pt_clust_7="13000.00000" pt_clust_8="13000.00000" pt_clust_9="33.15615"></scales>
<clustering>
<clus scale="   33.156">  2  9  1 -1</clus>
<clus scale="   82.627">  7  8 -1 -1</clus>
<clus scale="   91.941">  5  6 -1 -1</clus>
<clus scale="   92.643">  2  7  1 -1</clus>
<clus scale="   33.156">  2  5  1 -1</clus>
</clustering>
</event>
<event>
 9    1  0.2423659E-006  0.2368827E+03  0.7546771E-02  0.1121890E+00
         -2   -1    0    0    0  501 -0.00000000000E+00  0.00000000000E+00  0.31227788661E+03  0.31227788661E+03  0.00000000000E+00 0.  1.
          2   -1    0    0  502    0  0.00000000000E+00 -0.00000000000E+00 -0.30919408000E+03  0.30919408000E+03  0.00000000000E+00 0. -1.
         23    2    1    2    0    0 -0.11523273844E+03  0.12303121373E+03  0.46953238974E+02  0.19821537506E+03  0.93109960270E+02 0.  0.
         23    2    1    2    0    0  0.23332263275E+03 -0.12166499239E+03 -0.94621283068E+02  0.29471539173E+03  0.93070691332E+02 0.  0.
        -11    1    3    3    0    0 -0.31634264520E+02 -0.57339152505E+01  0.29625416977E+02  0.43718071857E+02  0.00000000000E+00 0.  1.
         11    1    3    3    0    0 -0.83598473918E+02  0.12876512898E+03  0.17327821998E+02  0.15449730321E+03  0.00000000000E+00 0. -1.
        -11    1    4    4    0    0  0.11750505200E+03 -0.10321824165E+03 -0.25163571654E+02  0.15841290350E+03  0.00000000000E+00 0.  1.
         11    1    4    4    0    0  0.11581758075E+03 -0.18446750740E+02 -0.69457711414E+02  0.13630248824E+03  0.00000000000E+00 0. -1.
         21    1    1    2  502  501 -0.11808989432E+03 -0.13662213375E+01  0.50751850699E+02  0.12854119981E+03  0.00000000000E+00 0.  1.
<scales pt_clust_5="13000.00000" pt_clust_6="13000.00000" pt_clust_7="13000.00000" pt_clust_8="13000.00000" pt_clust_9="118.09780"></scales>
<clustering>
<clus scale="   93.071">  7  8 -1 -1</clus>
<clus scale="   93.110">  5  6 -1 -1</clus>
<clus scale="  118.098">  1  9  2 -1</clus>
<clus scale="  236.867">  2  7  1 -1</clus>
<clus scale="  236.867">  2  5  1 -1</clus>
</clustering>
</event>
<event>
 9    1  0.2423659E-006  0.1142995E+03  0.7546771E-02  0.1256819E+00
          2   -1    0    0  502    0  0.00000000000E+00  0.00000000000E+00  0.24661781385E+03  0.24661781385E+03  0.00000000000E+00 0. -1.
         -2   -1    0    0    0  501 -0.00000000000E+00 -0.00000000000E+00 -0.13564623381E+03  0.13564623381E+03  0.00000000000E+00 0.  1.
         23    2    1    2    0    0  0.20357002281E+02  0.48399184074E+02 -0.30545643201E+02  0.12072023635E+03  0.10432377766E+03 0.  0.
         23    2    1    2    0    0  0.42191129133E+02 -0.32033534246E+02  0.16089142515E+03  0.19404964165E+03  0.94672984757E+02 0.  0.
        -11    1    3    3    0    0  0.11973390245E+02 -0.29540184488E+02  0.87215306492E+01  0.33046174822E+02  0.00000000000E+00 0.  1.
         11    1    3    3    0    0  0.83836120367E+01  0.77939368562E+02 -0.39267173850E+02  0.87674061527E+02  0.00000000000E+00 0. -1.
        -13    1    4    4    0    0  0.27558627167E+02 -0.59576716465E+02  0.14473466402E+03  0.15892446648E+03  0.00000000000E+00 0.  1.
         13    1    4    4    0    0  0.14632501966E+02  0.27543182219E+02  0.16156761131E+02  0.35125175171E+02  0.00000000000E+00 0. -1.
         21    1    1    2  502  501 -0.62548131414E+02 -0.16365649827E+02 -0.19374201912E+02  0.67494169655E+02  0.00000000000E+00 0.  1.
<scales pt_clust_5="13000.00000" pt_clust_6="13000.00000" pt_clust_7="13000.00000" pt_clust_8="13000.00000" pt_clust_9="64.65372"></scales>
<clustering>
<clus scale="   64.654">  2  9  1 -1</clus>
<clus scale="   94.673">  7  8 -1 -1</clus>
<clus scale="  104.324">  5  6 -1 -1</clus>
<clus scale="  105.565">  1  7  2 -1</clus>
<clus scale="  105.565">  1  5  2 -1</clus>
</clustering>
</event>
<event>
 9    1  0.2423659E-006  0.2230024E+03  0.7546771E-02  0.1131721E+00
          1   -1    0    0  502    0  0.00000000000E+00  0.00000000000E+00  0.15706346232E+03  0.15706346232E+03  0.00000000000E+00 0. -1.
         -1   -1    0    0    0  501 -0.00000000000E+00 -0.00000000000E+00 -0.46881909048E+03  0.46881909048E+03  0.00000000000E+00 0.  1.
         23    2    1    2    0    0  0.88915263183E+02 -0.21466539418E+03 -0.21318513577E+03  0.32864695462E+03  0.92594617467E+02 0.  0.
         23    2    1    2    0    0 -0.16185926809E+02  0.17240347494E+03 -0.75069921528E+02  0.20989773115E+03  0.91851086141E+02 0.  0.
        -13    1    3    3    0    0  0.28677312558E+02 -0.55143266101E+01 -0.44735004409E+02  0.53422997604E+02  0.00000000000E+00 0.  1.
         13    1    3    3    0    0  0.60237950626E+02 -0.20915106757E+03 -0.16845013136E+03  0.27522395702E+03  0.00000000000E+00 0. -1.
        -13    1    4    4    0    0 -0.64555398217E+01  0.13203124298E+03 -0.96021921211E+02  0.16338339105E+03  0.00000000000E+00 0.  1.
         13    1    4    4    0    0 -0.97303869877E+01  0.40372231961E+02  0.20951999683E+02  0.46514340103E+02  0.00000000000E+00 0. -1.
         21    1    1    2  502  501 -0.72729336374E+02  0.42261919243E+02 -0.23500570865E+02  0.87337867036E+02  0.00000000000E+00 0. -1.
<scales pt_clust_5="13000.00000" pt_clust_6="13000.00000" pt_clust_7="13000.00000" pt_clust_8="13000.00000" pt_clust_9="84.11674"></scales>
<clustering>
<clus scale="   84.117">  1  9  2 -1</clus>
<clus scale="   91.851">  7  8 -1 -1</clus>
<clus scale="   92.595">  5  6 -1 -1</clus>
<clus scale="  222.695">  1  7  2 -1</clus>
<clus scale="   84.117">  1  5  2 -1</clus>
</clustering>
</event>
<event>
 9    1  0.2423659E-006  0.1285146E+03  0.7546771E-02  0.1230221E+00
         -1   -1    0    0    0  501 -0.00000000000E+00  0.00000000000E+00  0.74874120372E+03  0.74874120372E+03  0.00000000000E+00 0.  1.
          1   -1    0    0  502    0  0.00000000000E+00 -0.00000000000E+00 -0.54845062783E+02  0.54845062783E+02  0.00000000000E+00 0. -1.
         23    2    1    2    0    0  0.92072152938E+02  0.52616855444E+02  0.47897854924E+03  0.49891349493E+03  0.90820757331E+02 0.  0.
         23    2    1    2    0    0 -0.37112128753E+02 -0.59215317611E+02  0.22029598920E+03  0.24905738593E+03  0.92819689105E+02 0.  0.
        -11    1    4    4    0    0 -0.26253894508E+02 -0.83938214144E+02  0.18273417504E+03  0.20279711412E+03  0.00000000000E+00 0.  1.
         11    1    4    4    0    0 -0.10858234245E+02  0.24722896533E+02  0.37561814164E+02  0.46260271802E+02  0.00000000000E+00 0. -1.
        -11    1    3    3    0    0 -0.69992790431E+01  0.35541193848E+02  0.86816530210E+02  0.94070592031E+02  0.00000000000E+00 0.  1.
         11    1    3    3    0    0  0.99071431981E+02  0.17075661596E+02  0.39216201903E+03  0.40484290290E+03  0.00000000000E+00 0. -1.
         21    1    1    2  502  501 -0.54960024184E+02  0.65984621667E+01 -0.53783975077E+01  0.55615385651E+02  0.00000000000E+00 0. -1.
<scales pt_clust_5="13000.00000" pt_clust_6="13000.00000" pt_clust_7="13000.00000" pt_clust_8="13000.00000" pt_clust_9="55.35471"></scales>
<clustering>
<clus scale="   55.355">  2  9  1 -1</clus>
<clus scale="   90.821">  7  8 -1 -1</clus>
<clus scale="   92.820">  5  6 -1 -1</clus>
<clus scale="  127.078">  1  7  2 -1</clus>
<clus scale="   55.355">  2  5  1 -1</clus>
</clustering>
</event>
<event>
 9    1  0.2423659E-006  0.9132230E+02  0.7546771E-02  0.1301240E+00
         -1   -1    0    0    0  501 -0.00000000000E+00  0.00000000000E+00  0.10795872324E+03  0.10795872324E+03  0.00000000000E+00 0.  1.
          1   -1    0    0  502    0  0.00000000000E+00 -0.00000000000E+00 -0.21561897645E+03  0.21561897645E+03  0.00000000000E+00 0. -1.
         23    2    1    2    0    0 -0.16596993844E+02  0.11708809822E+02  0.34166929150E+02  0.95988859463E+02  0.87372339224E+02 0.  0.
         23    2    1    2    0    0  0.10627279719E+02  0.54454435316E+02 -0.11424300710E+03  0.15565762852E+03  0.89997822438E+02 0.  0.
        -11    1    3    3    0    0  0.19112475203E+01  0.48432744560E+02  0.20822083047E+02  0.52753604190E+02  0.00000000000E+00 0.  1.
         11    1    3    3    0    0 -0.18508241364E+02 -0.36723934737E+02  0.13344846103E+02  0.43235255273E+02  0.00000000000E+00 0. -1.
        -13    1    4    4    0    0 -0.30479988330E+02 -0.30357376754E+01 -0.56999491611E+02  0.64708480401E+02  0.00000000000E+00 0. -1.
         13    1    4    4    0    0  0.41107268050E+02  0.57490172992E+02 -0.57243515491E+02  0.90949148115E+02  0.00000000000E+00 0.  1.
         21    1    1    2  502  501  0.59697141246E+01 -0.66163245139E+02 -0.27584175255E+02  0.71931211713E+02  0.00000000000E+00 0. -1.
<scales pt_clust_5="13000.00000" pt_clust_6="13000.00000" pt_clust_7="13000.00000" pt_clust_8="13000.00000" pt_clust_9="66.43201"></scales>
<clustering>
<clus scale="   66.432">  2  9  1 -1</clus>
<clus scale="   87.372">  5  6 -1 -1</clus>
<clus scale="   88.736">  1  5  2 -1</clus>
<clus scale="   89.998">  7  8 -1 -1</clus>
<clus scale="   66.432">  2  5  1 -1</clus>
</clustering>
</event>
<event>
 9    1  0.2423659E-006  0.1958689E+03  0.7546771E-02  0.1183837E+00
          2   -1    0    0  502    0  0.00000000000E+00  0.00000000000E+00  0.15297626729E+04  0.15297626729E+04  0.00000000000E+00 0. -1.
         -2   -1    0    0    0  501 -0.00000000000E+00 -0.00000000000E+00 -0.36744117815E+02  0.36744117815E+02  0.00000000000E+00 0.  1.
         23    2    1    2    0    0  0.29844332711E+02  0.68853125455E+01  0.21425260897E+03  0.23525580187E+03  0.92211822121E+02 0.  0.
         23    2    1    2    0    0  0.15071432780E+03  0.44042605167E+02  0.59717915674E+03  0.62431702153E+03  0.92164192909E+02 0.  0.
        -11    1    4    4    0    0  0.85930110016E+02  0.64722800363E+02  0.28057919054E+03  0.30049576846E+03  0.00000000000E+00 0.  1.
         11    1    4    4    0    0  0.64784217788E+02 -0.20680195197E+02  0.31659996619E+03  0.32382125307E+03  0.00000000000E+00 0. -1.
        -13    1    3    3    0    0 -0.30249990270E+02 -0.56410882664E+01  0.39735587876E+02  0.50257345055E+02  0.00000000000E+00 0.  1.
         13    1    3    3    0    0  0.60094322981E+02  0.12526400812E+02  0.17451702110E+03  0.18499845682E+03  0.00000000000E+00 0. -1.
         21    1    1    2  502  501 -0.18055866052E+03 -0.50927917712E+02  0.68158678935E+03  0.70693396729E+03  0.00000000000E+00 0.  1.
<scales pt_clust_5="13000.00000" pt_clust_6="13000.00000" pt_clust_7="13000.00000" pt_clust_8="13000.00000" pt_clust_9="172.83050"></scales>
<clustering>
<clus scale="   92.164">  5  6 -1 -1</clus>
<clus scale="   92.212">  7  8 -1 -1</clus>
<clus scale="   97.165">  2  7  1 -1</clus>
<clus scale="  172.831">  2  9  1 -1</clus>
<clus scale="  195.869">  1  5  2 -1</clus>
</clustering>
</event>
<event>
 9    1  0.2423659E-006  0.9326733E+02  0.7546771E-02  0.1295148E+00
         -1   -1    0    0    0  501 -0.00000000000E+00  0.00000000000E+00  0.20938199577E+03  0.20938199577E+03  0.00000000000E+00 0.  1.
          1   -1    0    0  502    0  0.00000000000E+00 -0.00000000000E+00 -0.16063848706E+03  0.16063848706E+03  0.00000000000E+00 0. -1.
         23    2    1    2    0    0 -0.17355768104E+02  0.15456190346E+02  0.16341548735E+03  0.18798998663E+03  0.89974980190E+02 0.  0.
         23    2    1    2    0    0  0.89992093966E+01 -0.44060210081E+02 -0.11423115965E+03  0.15222753763E+03  0.90012096394E+02 0.  0.
        -11    1    4    4    0    0  0.48075862347E+02 -0.12086010241E+02 -0.64599035458E+02  0.81427240933E+02  0.00000000000E+00 0. -1.
         11    1    4    4    0    0 -0.39076652950E+02 -0.31974199841E+02 -0.49632124188E+02  0.70800296699E+02  0.00000000000E+00 0.  1.
        -13    1    3    3    0    0 -0.42730353104E+02  0.18061510360E+02  0.15394120697E+03  0.16077934082E+03  0.00000000000E+00 0.  1.
         13    1    3    3    0    0  0.25374585000E+02 -0.26053200141E+01  0.94742803804E+01  0.27210645803E+02  0.00000000000E+00 0. -1.
         21    1    1    2  502  501  0.83565587077E+01  0.28604019735E+02 -0.44081898547E+00  0.29802958575E+02  0.00000000000E+00 0. -1.
<scales pt_clust_5="13000.00000" pt_clust_6="13000.00000" pt_clust_7="13000.00000" pt_clust_8="13000.00000" pt_clust_9="29.79970"></scales>
<clustering>
<clus scale="   29.800">  2  9  1 -1</clus>
<clus scale="   89.975">  7  8 -1 -1</clus>
<clus scale="   90.012">  5  6 -1 -1</clus>
<clus scale="   93.232">  1  7  2 -1</clus>
<clus scale="   29.800">  2  5  1 -1</clus>
</clustering>
</event>
<event>
 9    1  0.2423659E-006  0.1851063E+03  0.7546771E-02  0.1190628E+00
          2   -1    0    0  502    0  0.00000000000E+00  0.00000000000E+00  0.54340267379E+03  0.54340267379E+03  0.00000000000E+00 0. -1.
         -2   -1    0    0    0  501 -0.00000000000E+00 -0.00000000000E+00 -0.12320757207E+03  0.12320757207E+03  0.00000000000E+00 0.  1.
         23    2    1    2    0    0  0.32562833927E+02 -0.12055748956E+01  0.67575884945E+02  0.11987155487E+03  0.93492769114E+02 0.  0.
         23    2    1    2    0    0 -0.84012537177E+01  0.15690865692E+03  0.34166121855E+03  0.38879151806E+03  0.98668883509E+02 0.  0.
        -13    1    3    3    0    0  0.53522347823E+02  0.30045015992E+02  0.42199859973E+02  0.74486058321E+02  0.00000000000E+00 0. -1.
         13    1    3    3    0    0 -0.20959513896E+02 -0.31250590888E+02  0.25376024972E+02  0.45385496549E+02  0.00000000000E+00 0.  1.
        -13    1    4    4    0    0 -0.50139430571E+01  0.12661516920E+03  0.33419052636E+03  0.35740711885E+03  0.00000000000E+00 0. -1.
         13    1    4    4    0    0 -0.33873106606E+01  0.30293487724E+02  0.74706921911E+01  0.31384399210E+02  0.00000000000E+00 0.  1.
         21    1    1    2  502  501 -0.24161580209E+02 -0.15570308203E+03  0.10957998219E+02  0.15794717293E+03  0.00000000000E+00 0.  1.
<scales pt_clust_5="13000.00000" pt_clust_6="13000.00000" pt_clust_7="13000.00000" pt_clust_8="13000.00000" pt_clust_9="156.61674"></scales>
<clustering>
<clus scale="   93.493">  5  6 -1 -1</clus>
<clus scale="   98.669">  7  8 -1 -1</clus>
<clus scale="   99.009">  2  5  1 -1</clus>
<clus scale="  156.617">  2  9  1 -1</clus>
<clus scale="  185.106">  1  5  2 -1</clus>
</clustering>
</event>
<event>
 9    1  0.2423659E-006  0.1432099E+03  0.7546771E-02  0.1214859E+00
          1   -1    0    0  502    0  0.00000000000E+00  0.00000000000E+00  0.97008910511E+02  0.97008910511E+02  0.00000000000E+00 0. -1.
         -1   -1    0    0    0  501 -0.00000000000E+00 -0.00000000000E+00 -0.24668988894E+03  0.24668988894E+03  0.00000000000E+00 0.  1.
         23    2    1    2    0    0 -0.25336578234E+02  0.96220040737E+02 -0.12978322519E+03  0.19861400582E+03  0.11271024500E+03 0.  0.
         23    2    1    2    0    0  0.15424434353E+02 -0.70903263309E+02 -0.20173415669E+02  0.11789535073E+03  0.90703699488E+02 0.  0.
        -11    1    3    3    0    0 -0.57243943862E+02  0.11214485276E+02 -0.38680270006E+02  0.69991407162E+02  0.00000000000E+00 0.  1.
         11    1    3    3    0    0  0.31907365628E+02  0.85005555462E+02 -0.91102955187E+02  0.12862259865E+03  0.00000000000E+00 0. -1.
        -11    1    4    4    0    0  0.50317709265E+02 -0.55644772357E+02 -0.48386319972E+00  0.75022974347E+02  0.00000000000E+00 0. -1.
         11    1    4    4    0    0 -0.34893274911E+02 -0.15258490952E+02 -0.19689552469E+02  0.42872376382E+02  0.00000000000E+00 0.  1.
         21    1    1    2  502  501  0.99121438807E+01 -0.25316777428E+02  0.27566243552E+00  0.27189442904E+02  0.00000000000E+00 0. -1.
<scales pt_clust_5="13000.00000" pt_clust_6="13000.00000" pt_clust_7="13000.00000" pt_clust_8="13000.00000" pt_clust_9="27.18805"></scales>
<clustering>
<clus scale="   27.188">  1  9  2 -1</clus>
<clus scale="   90.704">  7  8 -1 -1</clus>
<clus scale="  112.710">  5  6 -1 -1</clus>
<clus scale="  126.620">  1  7  2 -1</clus>
<clus scale="   27.188">  1  5  2 -1</clus>
</clustering>
</event>
<event>
 9    1  0.2423659E-006  0.1297407E+03  0.7546771E-02  0.1241744E+00
         -2   -1    0    0    0  501 -0.00000000000E+00  0.00000000000E+00  0.20123203889E+03  0.20123203889E+03  0.00000000000E+00 0.  1.
          2   -1    0    0  502    0  0.00000000000E+00 -0.00000000000E+00 -0.20558134474E+03  0.20558134474E+03  0.00000000000E+00 0. -1.
         23    2    1    2    0    0 -0.39620309906E+02  0.67936266414E+02  0.81875688139E+02  0.14511412100E+03  0.90384592456E+02 0.  0.
         23    2    1    2    0    0 -0.15857525211E+02  0.32831954226E+02 -0.10699062832E+03  0.14480941683E+03  0.90517259853E+02 0.  0.
        -11    1    3    3    0    0 -0.21769330196E+02 -0.12548880753E+02 -0.47027581128E+01  0.25563530257E+02  0.00000000000E+00 0. -1.
         11    1    3    3    0    0 -0.17850979709E+02  0.80485147167E+02  0.86578446252E+02  0.11955059074E+03  0.00000000000E+00 0.  1.
        -11    1    4    4    0    0  0.34586989593E+02  0.22296178416E+01 -0.60372260591E+02  0.69613510856E+02  0.00000000000E+00 0. -1.
         11    1    4    4    0    0 -0.50444514805E+02  0.30602336384E+02 -0.46618367728E+02  0.75195905977E+02  0.00000000000E+00 0.  1.
         21    1    1    2  502  501  0.55477835117E+02 -0.10076822064E+03  0.20765634332E+02  0.11688984579E+03  0.00000000000E+00 0. -1.
<scales pt_clust_5="13000.00000" pt_clust_6="13000.00000" pt_clust_7="13000.00000" pt_clust_8="13000.00000" pt_clust_9="93.07671"></scales>
<clustering>
<clus scale="   90.385">  5  6 -1 -1</clus>
<clus scale="   90.517">  7  8 -1 -1</clus>
<clus scale="   97.585">  2  7  1 -1</clus>
<clus scale="   93.077">  2  9  1 -1</clus>
<clus scale="   97.585">  2  5  1 -1</clus>
</clustering>
</event>
<event>
 9    1  0.2423659E-006  0.2131291E+03  0.7546771E-02  0.1155997E+00
         -3   -1    0    0    0  501 -0.00000000000E+00  0.00000000000E+00  0.62137118380E+03  0.62137118380E+03  0.00000000000E+00 0.  1.
          3   -1    0    0  502    0  0.00000000000E+00 -0.00000000000E+00 -0.14964696198E+03  0.14964696198E+03  0.00000000000E+00 0. -1.
         23    2    1    2    0    0  0.11011692940E+03 -0.27280946004E+01  0.26824540371E+03  0.30379436511E+03  0.90566213448E+02 0.  0.
         23    2    1    2    0    0 -0.74923535685E+02 -0.19059925914E+03  0.10611731619E+03  0.24792192769E+03  0.90899855053E+02 0.  0.
        -13    1    3    3    0    0  0.24319088549E+02  0.24526778561E+02  0.20418289349E+02  0.40123403076E+02  0.00000000000E+00 0. -1.
         13    1    3    3    0    0  0.85797840854E+02 -0.27254873162E+02  0.24782711436E+03  0.26367096203E+03  0.00000000000E+00 0.  1.
        -13    1    4    4    0    0 -0.62968558481E+02 -0.11952105028E+03  0.11216999943E+03  0.17559165581E+03  0.00000000000E+00 0.  1.
         13    1    4    4    0    0 -0.11954977204E+02 -0.71078208868E+02 -0.60526832486E+01  0.72330271881E+02  0.00000000000E+00 0. -1.
         21    1    1    2  502  501 -0.35193393717E+02  0.19332735374E+03  0.97361501926E+02  0.21930185299E+03  0.00000000000E+00 0. -1.
<scales pt_clust_5="13000.00000" pt_clust_6="13000.00000" pt_clust_7="13000.00000" pt_clust_8="13000.00000" pt_clust_9="192.77249"></scales>
<clustering>
<clus scale="   90.566">  5  6 -1 -1</clus>
<clus scale="   90.900">  7  8 -1 -1</clus>
<clus scale="  142.602">  1  5  2 -1</clus>
<clus scale="  192.772">  2  9  1 -1</clus>
<clus scale="  192.772">  2  5  1 -1</clus>
</clustering>
</event>
<event>
 9    1  0.2423659E-006  0.1058884E+03  0.7546771E-02  0.1268992E+00
         -1   -1    0    0    0  501 -0.00000000000E+00  0.00000000000E+00  0.80852427009E+02  0.80852427009E+02  0.00000000000E+00 0.  1.
          1   -1    0    0  502    0  0.00000000000E+00 -0.00000000000E+00 -0.54190792181E+03  0.54190792181E+03  0.00000000000E+00 0. -1.
         23    2    1    2    0    0  0.56993552230E+02  0.49987058838E+00 -0.15952258366E+02  0.10713232308E+03  0.89299189440E+02 0.  0.
         23    2    1    2    0    0  0.24221618563E+02  0.63224621756E+02 -0.37274114103E+03  0.38956063209E+03  0.90760609589E+02 0.  0.
        -11    1    3    3    0    0  0.80256286219E+02  0.22613524549E+01 -0.21572050222E+02  0.83135663487E+02  0.00000000000E+00 0.  1.
         11    1    3    3    0    0 -0.23262733989E+02 -0.17614818665E+01  0.56197918557E+01  0.23996659591E+02  0.00000000000E+00 0. -1.
        -13    1    4    4    0    0  0.44704544352E+02  0.63018510042E+01 -0.93336236415E+02  0.10368154436E+03  0.00000000000E+00 0.  1.
         13    1    4    4    0    0 -0.20482925788E+02  0.56922770752E+02 -0.27940490461E+03  0.28587908773E+03  0.00000000000E+00 0. -1.
         21    1    1    2  502  501 -0.81215170793E+02 -0.63724492344E+02 -0.72362095402E+02  0.12606739365E+03  0.00000000000E+00 0. -1.
<scales pt_clust_5="13000.00000" pt_clust_6="13000.00000" pt_clust_7="13000.00000" pt_clust_8="13000.00000" pt_clust_9="103.23137"></scales>
<clustering>
<clus scale="   89.299">  5  6 -1 -1</clus>
<clus scale="   90.761">  7  8 -1 -1</clus>
<clus scale="  103.231">  1  9  2 -1</clus>
<clus scale="  104.639">  1  5  2 -1</clus>
<clus scale="  105.888">  2  5  1 -1</clus>
</clustering>
</event>
<event>
 9    1  0.2423659E-006  0.9304475E+02  0.7546771E-02  0.1297574E+00
         -1   -1    0    0    0  501 -0.00000000000E+00  0.00000000000E+00  0.62702004997E+02  0.62702004997E+02  0.00000000000E+00 0.  1.
          1   -1    0    0  502    0  0.00000000000E+00 -0.00000000000E+00 -0.32526176330E+03  0.32526176330E+03  0.00000000000E+00 0. -1.
         23    2    1    2    0    0  0.10450248356E+02 -0.10925623938E+01  0.83954997300E+01  0.93514743614E+02  0.92542538728E+02 0.  0.
         23    2    1    2    0    0 -0.34313746876E+01 -0.21213278599E+02 -0.21996115316E+03  0.23834899026E+03  0.89249956519E+02 0.  0.
        -11    1    3    3    0    0  0.27955436338E+02 -0.30186892421E+02 -0.23114996202E+02  0.47191714785E+02  0.00000000000E+00 0.  1.
         11    1    3    3    0    0 -0.17505187982E+02  0.29094330028E+02  0.31510495932E+02  0.46323028829E+02  0.00000000000E+00 0. -1.
        -13    1    4    4    0    0  0.10829185039E+02  0.17787097470E+02 -0.79194152462E+01  0.22279345207E+02  0.00000000000E+00 0. -1.
         13    1    4    4    0    0 -0.14260559726E+02 -0.39000376069E+02 -0.21204173791E+03  0.21606964506E+03  0.00000000000E+00 0.  1.
         21    1    1    2  502  501 -0.70188736687E+01  0.22305840993E+02 -0.50994104870E+02  0.56100034416E+02  0.00000000000E+00 0. -1.
<scales pt_clust_5="13000.00000" pt_clust_6="13000.00000" pt_clust_7="13000.00000" pt_clust_8="13000.00000" pt_clust_9="23.38408"></scales>
<clustering>
<clus scale="   23.384">  2  9  1 -1</clus>
<clus scale="   89.250">  7  8 -1 -1</clus>
<clus scale="   89.771">  2  7  1 -1</clus>
<clus scale="   92.543">  5  6 -1 -1</clus>
<clus scale="   23.384">  2  5  1 -1</clus>
</clustering>
</event>
<event>
 9    1  0.2423659E-006  0.1440627E+03  0.7546771E-02  0.1209260E+00
         -1   -1    0    0    0  501 -0.00000000000E+00  0.00000000000E+00  0.13905206916E+03  0.13905206916E+03  0.00000000000E+00 0.  1.
          1   -1    0    0  502    0  0.00000000000E+00 -0.00000000000E+00 -0.31849432965E+03  0.31849432965E+03  0.00000000000E+00 0. -1.
         23    2    1    2    0    0  0.62670672884E+02 -0.10708443998E+03  0.24743644834E+02  0.15892976222E+03  0.96185918065E+02 0.  0.
         23    2    1    2    0    0 -0.36429485739E+02  0.97416220233E+02 -0.22499045906E+03  0.26376116598E+03  0.90178814668E+02 0.  0.
        -13    1    4    4    0    0  0.24834165069E+02  0.61586740492E+02 -0.10037973983E+03  0.12035678015E+03  0.00000000000E+00 0.  1.
         13    1    4    4    0    0 -0.61263650807E+02  0.35829479740E+02 -0.12461071923E+03  0.14340438583E+03  0.00000000000E+00 0. -1.
        -13    1    3    3    0    0  0.35405933593E+02 -0.53321457388E+02  0.61138575201E+02  0.88513746555E+02  0.00000000000E+00 0.  1.
         13    1    3    3    0    0  0.27264739291E+02 -0.53762982588E+02 -0.36394930367E+02  0.70416015662E+02  0.00000000000E+00 0. -1.
         21    1    1    2  502  501 -0.26241187145E+02  0.96682197440E+01  0.20804553731E+02  0.34855470615E+02  0.00000000000E+00 0. -1.
<scales pt_clust_5="13000.00000" pt_clust_6="13000.00000" pt_clust_7="13000.00000" pt_clust_8="13000.00000" pt_clust_9="27.96559"></scales>
<clustering>
<clus scale="   27.966">  1  9  2 -1</clus>
<clus scale="   90.179">  5  6 -1 -1</clus>
<clus scale="   96.186">  7  8 -1 -1</clus>
<clus scale="  140.123">  2  5  1 -1</clus>
<clus scale="  140.123">  2  5  1 -1</clus>
</clustering>
</event>
<event>
 9    1  0.2423659E-006  0.1318321E+03  0.7546771E-02  0.1224853E+00
          1   -1    0    0  502    0  0.00000000000E+00  0.00000000000E+00  0.57897573072E+03  0.57897573072E+03  0.00000000000E+00 0. -1.
         -1   -1    0    0    0  501 -0.00000000000E+00 -0.00000000000E+00 -0.94141944909E+02  0.94141944909E+02  0.00000000000E+00 0.  1.
         23    2    1    2    0    0 -0.26953309634E+02 -0.92546002371E+02 -0.30415882143E+02  0.13592490098E+03  0.90880192361E+02 0.  0.
         23    2    1    2    0    0  0.34132605216E+01  0.90151103215E+02  0.44953469524E+03  0.46734775269E+03  0.90518550380E+02 0.  0.
        -13    1    4    4    0    0  0.38814511532E+02  0.33523190395E+02  0.28835336514E+03  0.29287887221E+03  0.00000000000E+00 0.  1.
         13    1    4    4    0    0 -0.35401251011E+02  0.56627912820E+02  0.16118133010E+03  0.17446888048E+03  0.00000000000E+00 0. -1.
        -13    1    3    3    0    0 -0.38666675617E+02 -0.27584732154E+02 -0.48088811807E+02  0.67591146404E+02  0.00000000000E+00 0.  1.
         13    1    3    3    0    0  0.11713365983E+02 -0.64961270218E+02  0.17672929663E+02  0.68333754571E+02  0.00000000000E+00 0. -1.
         21    1    1    2  502  501  0.23540049112E+02  0.23948991570E+01  0.65714972712E+02  0.69845021961E+02  0.00000000000E+00 0. -1.
<scales pt_clust_5="13000.00000" pt_clust_6="13000.00000" pt_clust_7="13000.00000" pt_clust_8="13000.00000" pt_clust_9="23.66156"></scales>
<clustering>
<clus scale="   23.662">  1  9  2 -1</clus>
<clus scale="   90.519">  5  6 -1 -1</clus>
<clus scale="   90.880">  7  8 -1 -1</clus>
<clus scale="  131.583">  1  5  2 -1</clus>
<clus scale="   23.662">  1  5  2 -1</clus>
</clustering>
</event>
<event>
 9    1  0.2423659E-006  0.9461031E+02  0.7546771E-02  0.1293086E+00
         -1   -1    0    0    0  501 -0.00000000000E+00  0.00000000000E+00  0.44993281671E+02  0.44993281671E+02  0.00000000000E+00 0.  1.
          1   -1    0    0  502    0  0.00000000000E+00 -0.00000000000E+00 -0.52817610608E+03  0.52817610608E+03  0.00000000000E+00 0. -1.
         23    2    1    2    0    0 -0.37120724962E+02 -0.46388365006E+01 -0.64245529728E+02  0.11872124587E+03  0.92562298507E+02 0.  0.
         23    2    1    2    0    0 -0.15218168740E+02  0.18519918107E+02 -0.12911320532E+03  0.15960912311E+03  0.90720848562E+02 0.  0.
        -11    1    3    3    0    0 -0.55090671476E+02 -0.17411756181E+02 -0.80237546371E+01  0.58331226418E+02  0.00000000000E+00 0.  1.
         11    1    3    3    0    0  0.17969946514E+02  0.12772919680E+02 -0.56221775091E+02  0.60390019451E+02  0.00000000000E+00 0. -1.
        -11    1    4    4    0    0 -0.49450612193E+02  0.28878184892E+02 -0.69076718653E+02  0.89726839178E+02  0.00000000000E+00 0.  1.
         11    1    4    4    0    0  0.34232443453E+02 -0.10358266785E+02 -0.60036486670E+02  0.69882283930E+02  0.00000000000E+00 0. -1.
         21    1    1    2  502  501  0.52338893702E+02 -0.13881081606E+02 -0.28982408936E+03  0.29483901878E+03  0.00000000000E+00 0. -1.
<scales pt_clust_5="13000.00000" pt_clust_6="13000.00000" pt_clust_7="13000.00000" pt_clust_8="13000.00000" pt_clust_9="54.14835"></scales>
<clustering>
<clus scale="   54.148">  2  9  1 -1</clus>
<clus scale="   90.721">  7  8 -1 -1</clus>
<clus scale="   92.562">  5  6 -1 -1</clus>
<clus scale="   92.810">  2  7  1 -1</clus>
<clus scale="   54.148">  2  5  1 -1</clus>
</clustering>
</event>
<event>
 9    1  0.2423659E-006  0.9227323E+02  0.7546771E-02  0.1298385E+00
         -1   -1    0    0    0  501 -0.00000000000E+00  0.00000000000E+00  0.20923471981E+03  0.20923471981E+03  0.00000000000E+00 0.  1.
          1   -1    0    0  502    0  0.00000000000E+00 -0.00000000000E+00 -0.80794556141E+02  0.80794556141E+02  0.00000000000E+00 0. -1.
         23    2    1    2    0    0  0.16198946539E+02  0.15702575892E+02  0.14765102736E+03  0.17374011961E+03  0.88745853557E+02 0.  0.
         23    2    1    2    0    0  0.63286125606E+01 -0.85289889472E+01 -0.16567613337E+02  0.92499704032E+02  0.90382047139E+02 0.  0.
        -13    1    4    4    0    0  0.33109411578E+02 -0.25842943659E+02 -0.35860781974E+02  0.55227588720E+02  0.00000000000E+00 0. -1.
         13    1    4    4    0    0 -0.26780799018E+02  0.17313954712E+02  0.19293168637E+02  0.37272115312E+02  0.00000000000E+00 0.  1.
        -13    1    3    3    0    0 -0.64363314136E+01 -0.35232773846E+02  0.56264347900E+02  0.66696713259E+02  0.00000000000E+00 0. -1.
         13    1    3    3    0    0  0.22635277952E+02  0.50935349738E+02  0.91386679463E+02  0.10704340636E+03  0.00000000000E+00 0.  1.
         21    1    1    2  502  501 -0.22527559099E+02 -0.71735869446E+01 -0.26432503539E+01  0.23789452307E+02  0.00000000000E+00 0. -1.
<scales pt_clust_5="13000.00000" pt_clust_6="13000.00000" pt_clust_7="13000.00000" pt_clust_8="13000.00000" pt_clust_9="23.64215"></scales>
<clustering>
<clus scale="   23.642">  2  9  1 -1</clus>
<clus scale="   88.746">  7  8 -1 -1</clus>
<clus scale="   90.382">  5  6 -1 -1</clus>
<clus scale="   90.671">  1  7  2 -1</clus>
<clus scale="   23.642">  2  5  1 -1</clus>
</clustering>
</event>
<event>
 9    1  0.2423659E-006  0.9715738E+02  0.7546771E-02  0.1286841E+00
         -2   -1    0    0    0  501 -0.00000000000E+00  0.00000000000E+00  0.48909809294E+02  0.48909809294E+02  0.00000000000E+00 0.  1.
          2   -1    0    0  502    0  0.00000000000E+00 -0.00000000000E+00 -0.37512253786E+03  0.37512253786E+03  0.00000000000E+00 0. -1.
         23    2    1    2    0    0  0.27155228933E+02 -0.52340252518E+02 -0.71334358570E+02  0.12934538760E+03  0.90358896015E+02 0.  0.
         23    2    1    2    0    0  0.31298384133E+01  0.26780455683E+02 -0.22729811080E+03  0.24640487990E+03  0.91235656247E+02 0.  0.
        -11    1    3    3    0    0  0.13507851444E+02  0.25488670791E+02 -0.17665782948E+02  0.33826236511E+02  0.00000000000E+00 0.  1.
         11    1    3    3    0    0  0.13647377489E+02 -0.77828923309E+02 -0.53668575621E+02  0.95519151090E+02  0.00000000000E+00 0. -1.
        -13    1    4    4    0    0  0.16139728844E+02 -0.27174989930E+02 -0.13545925218E+03  0.13909773516E+03  0.00000000000E+00 0. -1.
         13    1    4    4    0    0 -0.13009890431E+02  0.53955445612E+02 -0.91838858612E+02  0.10730714474E+03  0.00000000000E+00 0.  1.
         21    1    1    2  502  501 -0.30285067347E+02  0.25559796835E+02 -0.27580259205E+02  0.48282079659E+02  0.00000000000E+00 0.  1.
<scales pt_clust_5="13000.00000" pt_clust_6="13000.00000" pt_clust_7="13000.00000" pt_clust_8="13000.00000" pt_clust_9="39.62939"></scales>
<clustering>
<clus scale="   39.629">  1  9  2 -1</clus>
<clus scale="   90.359">  5  6 -1 -1</clus>
<clus scale="   91.236">  7  8 -1 -1</clus>
<clus scale="   96.335">  1  5  2 -1</clus>
<clus scale="   97.157">  2  5  1 -1</clus>
</clustering>
</event>
<event>
 9    1  0.2423659E-006  0.1215196E+03  0.7546771E-02  0.1242302E+00
          2   -1    0    0  502    0  0.00000000000E+00  0.00000000000E+00  0.21924055216E+03  0.21924055216E+03  0.00000000000E+00 0. -1.
         -2   -1    0    0    0  501 -0.00000000000E+00 -0.00000000000E+00 -0.16991110734E+03  0.16991110734E+03  0.00000000000E+00 0.  1.
         23    2    1    2    0    0  0.10995253110E+03 -0.27131340343E+02 -0.32303219165E+02  0.14862674534E+03  0.90668311663E+02 0.  0.
         23    2    1    2    0    0 -0.35484902270E+02 -0.48039689831E+02  0.11474530764E+02  0.11356714489E+03  0.95910590934E+02 0.  0.
        -11    1    3    3    0    0  0.26662476536E+02 -0.47682530111E+02 -0.31032420963E+02  0.62829312296E+02  0.00000000000E+00 0.  1.
         11    1    3    3    0    0  0.83290054560E+02  0.20551189768E+02 -0.12707982024E+01  0.85797433048E+02  0.00000000000E+00 0. -1.
        -11    1    4    4    0    0 -0.36546681406E+02 -0.76275014712E+02  0.11146837866E+02  0.85309962991E+02  0.00000000000E+00 0.  1.
         11    1    4    4    0    0  0.10617791356E+01  0.28235324881E+02  0.32769289770E+00  0.28257181896E+02  0.00000000000E+00 0. -1.
         21    1    1    2  502  501 -0.74467628826E+02  0.75171030174E+02  0.70158133223E+02  0.12695776927E+03  0.00000000000E+00 0. -1.
<scales pt_clust_5="13000.00000" pt_clust_6="13000.00000" pt_clust_7="13000.00000" pt_clust_8="13000.00000" pt_clust_9="105.81168"></scales>
<clustering>
<clus scale="   90.668">  5  6 -1 -1</clus>
<clus scale="   95.911">  7  8 -1 -1</clus>
<clus scale="  105.812">  1  9  2 -1</clus>
<clus scale="  117.426">  2  5  1 -1</clus>
<clus scale="  105.812">  1  5  2 -1</clus>
</clustering>
</event>
<event>
 9    1  0.2423659E-006  0.4801565E+03  0.7546771E-02  0.1070988E+00
         -2   -1    0    0    0  501 -0.00000000000E+00  0.00000000000E+00  0.73040250762E+03  0.73040250762E+03  0.00000000000E+00 0.  1.
          2   -1    0    0  502    0  0.00000000000E+00 -0.00000000000E+00 -0.66135875137E+03  0.66135875137E+03  0.00000000000E+00 0. -1.
         23    2    1    2    0    0 -0.17312095446E+03  0.42628162186E+03  0.44936188051E+03  0.64975910125E+03  0.92595377878E+02 0.  0.
         23    2    1    2    0    0 -0.85458019800E+02  0.33642400305E+02 -0.43496840487E+02  0.11602949916E+03  0.55999868722E+02 0.  0.
        -13    1    3    3    0    0 -0.16620071115E+03  0.30091756268E+03  0.32902086594E+03  0.47584533846E+03  0.00000000000E+00 0.  1.
         13    1    3    3    0    0 -0.69202433171E+01  0.12536405918E+03  0.12034101456E+03  0.17391376279E+03  0.00000000000E+00 0. -1.
        -13    1    4    4    0    0 -0.59247613137E+02 -0.48105709133E+01 -0.34183096069E+02  0.68570440510E+02  0.00000000000E+00 0.  1.
         13    1    4    4    0    0 -0.26210406663E+02  0.38452971218E+02 -0.93137444188E+01  0.47459058651E+02  0.00000000000E+00 0. -1.
         21    1    1    2  502  501  0.25857897426E+03 -0.45992402216E+03 -0.33682128377E+03  0.62597265858E+03  0.00000000000E+00 0. -1.
<scales pt_clust_5="13000.00000" pt_clust_6="13000.00000" pt_clust_7="13000.00000" pt_clust_8="13000.00000" pt_clust_9="471.14369"></scales>
<clustering>
<clus scale="   56.000">  7  8 -1 -1</clus>
<clus scale="   92.595">  5  6 -1 -1</clus>
<clus scale="  107.568">  2  7  1 -1</clus>
<clus scale="  471.144">  2  9  1 -1</clus>
<clus scale="  107.568">  2  5  1 -1</clus>
</clustering>
</event>
<event>
 9    1  0.2423659E-006  0.1340892E+03  0.7546771E-02  0.1222198E+00
         -2   -1    0    0    0  501 -0.00000000000E+00  0.00000000000E+00  0.21834926239E+03  0.21834926239E+03  0.00000000000E+00 0.  1.
          2   -1    0    0  502    0  0.00000000000E+00 -0.00000000000E+00 -0.20002639604E+03  0.20002639604E+03  0.00000000000E+00 0. -1.
         23    2    1    2    0    0 -0.64261757802E+02  0.59009607420E+02  0.14395144613E+03  0.19170199445E+03  0.91738370096E+02 0.  0.
         23    2    1    2    0    0  0.57889489977E+02 -0.81169508401E+02 -0.14456389799E+03  0.19683722176E+03  0.88918440857E+02 0.  0.
        -11    1    3    3    0    0 -0.88051451467E+02  0.45785651766E+02  0.10919782458E+03  0.14755862871E+03  0.00000000000E+00 0.  1.
         11    1    3    3    0    0  0.23789693665E+02  0.13223955654E+02  0.34753621556E+02  0.44143365742E+02  0.00000000000E+00 0. -1.
        -13    1    4    4    0    0  0.61050449782E+02 -0.16455343510E+02 -0.99590430619E+02  0.11796690052E+03  0.00000000000E+00 0. -1.
         13    1    4    4    0    0 -0.31609598049E+01 -0.64714164891E+02 -0.44973467372E+02  0.78870321236E+02  0.00000000000E+00 0.  1.
         21    1    1    2  502  501  0.63722678251E+01  0.22159900981E+02  0.18935318201E+02  0.29836442216E+02  0.00000000000E+00 0.  1.
<scales pt_clust_5="13000.00000" pt_clust_6="13000.00000" pt_clust_7="13000.00000" pt_clust_8="13000.00000" pt_clust_9="23.05791"></scales>
<clustering>
<clus scale="   23.058">  1  9  2 -1</clus>
<clus scale="   88.918">  7  8 -1 -1</clus>
<clus scale="   91.738">  5  6 -1 -1</clus>
<clus scale="  132.176">  2  7  1 -1</clus>
<clus scale="  132.176">  2  5  1 -1</clus>
</clustering>
</event>
<event>
 9    1  0.2423659E-006  0.9249063E+02  0.7546771E-02  0.1298216E+00
         -1   -1    0    0    0  501 -0.00000000000E+00  0.00000000000E+00  0.52920080095E+02  0.52920080095E+02  0.00000000000E+00 0.  1.
          1   -1    0    0  502    0  0.00000000000E+00 -0.00000000000E+00 -0.35363153603E+03  0.35363153603E+03  0.00000000000E+00 0. -1.
         23    2    1    2    0    0 -0.25415435706E+02 -0.10250694027E+02 -0.91296961810E+02  0.13197848870E+03  0.91280694251E+02 0.  0.
         23    2    1    2    0    0 -0.43670007419E+02 -0.90945454634E+01 -0.15613958779E+03  0.18521288802E+03  0.89075601070E+02 0.  0.
        -11    1    4    4    0    0  0.24651478556E+02  0.10531431729E+02 -0.28583672613E+02  0.39187150819E+02  0.00000000000E+00 0.  1.
         11    1    4    4    0    0 -0.68321485975E+02 -0.19625977192E+02 -0.12755591518E+03  0.14602573720E+03  0.00000000000E+00 0. -1.
        -13    1    3    3    0    0 -0.97316135031E+01  0.34954977541E+02 -0.99861526111E+01  0.37633469150E+02  0.00000000000E+00 0. -1.
         13    1    3    3    0    0 -0.15683822203E+02 -0.45205671568E+02 -0.81310809199E+02  0.94345019547E+02  0.00000000000E+00 0.  1.
         21    1    1    2  502  501  0.69085443126E+02  0.19345239490E+02 -0.53274906331E+02  0.89360239410E+02  0.00000000000E+00 0.  1.
<scales pt_clust_5="13000.00000" pt_clust_6="13000.00000" pt_clust_7="13000.00000" pt_clust_8="13000.00000" pt_clust_9="71.74285"></scales>
<clustering>
<clus scale="   71.743">  1  9  2 -1</clus>
<clus scale="   89.076">  5  6 -1 -1</clus>
<clus scale="   90.315">  2  5  1 -1</clus>
<clus scale="   91.281">  7  8 -1 -1</clus>
<clus scale="   90.315">  2  5  1 -1</clus>
</clustering>
</event>
<event>
 9    1  0.2423659E-006  0.1014893E+03  0.7546771E-02  0.1281648E+00
          1   -1    0    0  502    0  0.00000000000E+00  0.00000000000E+00  0.10539792242E+03  0.10539792242E+03  0.00000000000E+00 0. -1.
         -1   -1    0    0    0  501 -0.00000000000E+00 -0.00000000000E+00 -0.39332237095E+03  0.39332237095E+03  0.00000000000E+00 0.  1.
         23    2    1    2    0    0 -0.39992783675E+00  0.21164341225E+02 -0.13010654344E+03  0.16441770841E+03  0.98271974195E+02 0.  0.
         23    2    1    2    0    0 -0.29771645309E+02  0.64737285506E+01  0.60343319075E+02  0.11233748308E+03  0.89722538535E+02 0.  0.
        -11    1    4    4    0    0 -0.53370126397E+00  0.31943074927E+02 -0.87351383477E+01  0.33120197988E+02  0.00000000000E+00 0.  1.
         11    1    4    4    0    0 -0.29237944045E+02 -0.25469346376E+02  0.69078457423E+02  0.79217285088E+02  0.00000000000E+00 0. -1.
        -13    1    3    3    0    0 -0.27022841502E+01  0.55717380917E+02 -0.11249689023E+03  0.12556782704E+03  0.00000000000E+00 0. -1.
         13    1    3    3    0    0  0.23023563134E+01 -0.34553039692E+02 -0.17609653207E+02  0.38849881372E+02  0.00000000000E+00 0.  1.
         21    1    1    2  502  501  0.30171573146E+02 -0.27638069776E+02 -0.21816122417E+03  0.22196510189E+03  0.00000000000E+00 0.  1.
<scales pt_clust_5="13000.00000" pt_clust_6="13000.00000" pt_clust_7="13000.00000" pt_clust_8="13000.00000" pt_clust_9="40.91683"></scales>
<clustering>
<clus scale="   40.917">  2  9  1 -1</clus>
<clus scale="   89.723">  5  6 -1 -1</clus>
<clus scale="   93.235">  1  5  2 -1</clus>
<clus scale="   98.272">  7  8 -1 -1</clus>
<clus scale="   93.235">  1  5  2 -1</clus>
</clustering>
</event>
<event>
 9    1  0.2423659E-006  0.2154362E+03  0.7546771E-02  0.1166722E+00
          3   -1    0    0  502    0  0.00000000000E+00  0.00000000000E+00  0.87799063554E+02  0.87799063554E+02  0.00000000000E+00 0. -1.
         -3   -1    0    0    0  501 -0.00000000000E+00 -0.00000000000E+00 -0.98565284382E+03  0.98565284382E+03  0.00000000000E+00 0.  1.
         23    2    1    2    0    0 -0.11449444822E+03  0.17958398443E+03 -0.70729501853E+03  0.74451431554E+03  0.93144708201E+02 0.  0.
         23    2    1    2    0    0  0.20719460100E+02 -0.52481150854E+02 -0.55385715597E+02  0.12104187013E+03  0.91651457223E+02 0.  0.
        -11    1    4    4    0    0  0.50578668401E+02 -0.31751924951E+02 -0.59694260135E+02  0.84438090506E+02  0.00000000000E+00 0. -1.
         11    1    4    4    0    0 -0.29859208301E+02 -0.20729225903E+02  0.43085445373E+01  0.36603779626E+02  0.00000000000E+00 0.  1.
        -11    1    3    3    0    0 -0.12209870715E+03  0.12781899655E+03 -0.59356951187E+03  0.61933073199E+03  0.00000000000E+00 0.  1.
         11    1    3    3    0    0  0.76042589305E+01  0.51764987887E+02 -0.11372550666E+03  0.12518358355E+03  0.00000000000E+00 0. -1.
         21    1    1    2  502  501  0.93774988119E+02 -0.12710283358E+03 -0.13517304614E+03  0.20789572171E+03  0.00000000000E+00 0. -1.
<scales pt_clust_5="13000.00000" pt_clust_6="13000.00000" pt_clust_7="13000.00000" pt_clust_8="13000.00000" pt_clust_9="194.25963"></scales>
<clustering>
<clus scale="   91.651">  5  6 -1 -1</clus>
<clus scale="   93.145">  7  8 -1 -1</clus>
<clus scale="  107.627">  1  5  2 -1</clus>
<clus scale="  194.260">  1  9  2 -1</clus>
<clus scale="  107.627">  1  5  2 -1</clus>
</clustering>
</event>
<event>
 9    1  0.2423659E-006  0.1149337E+03  0.7546771E-02  0.1252643E+00
         -1   -1    0    0    0  501 -0.00000000000E+00  0.00000000000E+00  0.43022830655E+02  0.43022830655E+02  0.00000000000E+00 0.  1.
          1   -1    0    0  502    0  0.00000000000E+00 -0.00000000000E+00 -0.69972947945E+03  0.69972947945E+03  0.00000000000E+00 0. -1.
         23    2    1    2    0    0  0.30516646448E+02  0.52496542549E+02 -0.82562967221E+02  0.13550133415E+03  0.88638678413E+02 0.  0.
         23    2    1    2    0    0 -0.42964074816E+01 -0.72953687996E+02 -0.55827886739E+03  0.57040415709E+03  0.91350473149E+02 0.  0.
        -11    1    4    4    0    0  0.51228498585E+01  0.20579514620E+02 -0.69358056098E+02  0.72527925369E+02  0.00000000000E+00 0.  1.
         11    1    4    4    0    0 -0.94192573401E+01 -0.93533202616E+02 -0.48892081129E+03  0.49787623172E+03  0.00000000000E+00 0. -1.
        -13    1    3    3    0    0 -0.11424152204E+02  0.61653970126E+02 -0.36577540561E+02  0.72592284434E+02  0.00000000000E+00 0.  1.
         13    1    3    3    0    0  0.41940798652E+02 -0.91574275770E+01 -0.45985426660E+02  0.62909049719E+02  0.00000000000E+00 0. -1.
         21    1    1    2  502  501 -0.26220238966E+02  0.20457145447E+02 -0.15864814190E+02  0.36846818867E+02  0.00000000000E+00 0.  1.
<scales pt_clust_5="13000.00000" pt_clust_6="13000.00000" pt_clust_7="13000.00000" pt_clust_8="13000.00000" pt_clust_9="33.25651"></scales>
<clustering>
<clus scale="   33.257">  1  9  2 -1</clus>
<clus scale="   88.639">  7  8 -1 -1</clus>
<clus scale="   91.350">  5  6 -1 -1</clus>
<clus scale="  112.790">  1  7  2 -1</clus>
<clus scale="  114.934">  2  5  1 -1</clus>
</clustering>
</event>
<event>
 9    1  0.2423659E-006  0.9332750E+02  0.7546771E-02  0.1295420E+00
          2   -1    0    0  502    0  0.00000000000E+00  0.00000000000E+00  0.15184588118E+03  0.15184588118E+03  0.00000000000E+00 0. -1.
         -2   -1    0    0    0  501 -0.00000000000E+00 -0.00000000000E+00 -0.50694292286E+03  0.50694292286E+03  0.00000000000E+00 0.  1.
         23    2    1    2    0    0  0.19275688674E+02 -0.24805996908E+02 -0.37374309812E+03  0.38601413724E+03  0.91302360860E+02 0.  0.
         23    2    1    2    0    0 -0.81319232189E+01 -0.59419736971E+02 -0.85608433319E+02  0.13828616770E+03  0.90539643271E+02 0.  0.
        -11    1    4    4    0    0 -0.42454201673E+02 -0.53545436244E+02 -0.75916847272E+02  0.10214127805E+03  0.00000000000E+00 0.  1.
         11    1    4    4    0    0  0.34322278454E+02 -0.58743007265E+01 -0.96915860476E+01  0.36144889644E+02  0.00000000000E+00 0. -1.
        -13    1    3    3    0    0  0.53156738324E+02  0.14813518987E+01 -0.18727823233E+03  0.19468171342E+03  0.00000000000E+00 0. -1.
         13    1    3    3    0    0 -0.33881049650E+02 -0.26287348806E+02 -0.18646486579E+03  0.19133242382E+03  0.00000000000E+00 0.  1.
         21    1    1    2  502  501 -0.11143765455E+02  0.84225733879E+02  0.10425448976E+03  0.13448849911E+03  0.00000000000E+00 0. -1.
<scales pt_clust_5="13000.00000" pt_clust_6="13000.00000" pt_clust_7="13000.00000" pt_clust_8="13000.00000" pt_clust_9="84.95974"></scales>
<clustering>
<clus scale="   84.960">  1  9  2 -1</clus>
<clus scale="   90.540">  5  6 -1 -1</clus>
<clus scale="   91.302">  7  8 -1 -1</clus>
<clus scale="   92.581">  1  5  2 -1</clus>
<clus scale="   84.960">  1  5  2 -1</clus>
</clustering>
</event>
<event>
 9    1  0.2423659E-006  0.9157823E+02  0.7546771E-02  0.1299661E+00
          2   -1    0    0  502    0  0.00000000000E+00  0.00000000000E+00  0.39178258410E+03  0.39178258410E+03  0.00000000000E+00 0. -1.
         -2   -1    0    0    0  501 -0.00000000000E+00 -0.00000000000E+00 -0.38172624241E+02  0.38172624241E+02  0.00000000000E+00 0.  1.
         23    2    1    2    0    0 -0.18471959101E+02 -0.15899285014E+02  0.63465079515E+02  0.11294296100E+03  0.90190329772E+02 0.  0.
         23    2    1    2    0    0 -0.72360862550E+01  0.65623232800E+01  0.15471655313E+03  0.17884961034E+03  0.89188263108E+02 0.  0.
        -13    1    4    4    0    0  0.28585040560E+02 -0.25591681229E+02  0.92835179890E+02  0.10045102945E+03  0.00000000000E+00 0.  1.
         13    1    4    4    0    0 -0.35821126815E+02  0.32154004509E+02  0.61881373235E+02  0.78398580891E+02  0.00000000000E+00 0. -1.
        -13    1    3    3    0    0  0.10378676922E+02  0.34036149488E+02  0.27565472568E+02  0.45011461702E+02  0.00000000000E+00 0. -1.
         13    1    3    3    0    0 -0.28850636023E+02 -0.49935434502E+02  0.35899606947E+02  0.67931499297E+02  0.00000000000E+00 0.  1.
         21    1    1    2  502  501  0.25708045356E+02  0.93369617337E+01  0.13542832722E+03  0.13816263701E+03  0.00000000000E+00 0. -1.
<scales pt_clust_5="13000.00000" pt_clust_6="13000.00000" pt_clust_7="13000.00000" pt_clust_8="13000.00000" pt_clust_9="27.35110"></scales>
<clustering>
<clus scale="   27.351">  1  9  2 -1</clus>
<clus scale="   89.188">  5  6 -1 -1</clus>
<clus scale="   90.190">  7  8 -1 -1</clus>
<clus scale="   90.592">  1  5  2 -1</clus>
<clus scale="   27.351">  1  5  2 -1</clus>
</clustering>
</event>
<event>
 9    1  0.2423659E-006  0.1919009E+03  0.7546771E-02  0.1186313E+00
          2   -1    0    0  502    0  0.00000000000E+00  0.00000000000E+00  0.54051583556E+03  0.54051583556E+03  0.00000000000E+00 0. -1.
         -2   -1    0    0    0  501 -0.00000000000E+00 -0.00000000000E+00 -0.24060279476E+03  0.24060279476E+03  0.00000000000E+00 0.  1.
         23    2    1    2    0    0 -0.26936619075E+01  0.36354757420E+02 -0.16435234189E+03  0.19123610487E+03  0.90722826893E+02 0.  0.
         23    2    1    2    0    0 -0.13111752106E+03  0.86707212425E+02  0.20482988349E+03  0.27309164909E+03  0.88959668469E+02 0.  0.
        -11    1    4    4    0    0 -0.23176610570E+02  0.66849848581E+02  0.75564007989E+02  0.10351800247E+03  0.00000000000E+00 0.  1.
         11    1    4    4    0    0 -0.10794091049E+03  0.19857363844E+02  0.12926587550E+03  0.16957364661E+03  0.00000000000E+00 0. -1.
        -11    1    3    3    0    0 -0.22349864959E+02  0.53478261939E+02 -0.59002166594E+02  0.82708503956E+02  0.00000000000E+00 0.  1.
         11    1    3    3    0    0  0.19656203052E+02 -0.17123504519E+02 -0.10535017529E+03  0.10852760091E+03  0.00000000000E+00 0. -1.
         21    1    1    2  502  501  0.13381118296E+03 -0.12306196985E+03  0.25943549919E+03  0.31679087636E+03  0.00000000000E+00 0. -1.
<scales pt_clust_5="13000.00000" pt_clust_6="13000.00000" pt_clust_7="13000.00000" pt_clust_8="13000.00000" pt_clust_9="170.03566"></scales>
<clustering>
<clus scale="   88.960">  5  6 -1 -1</clus>
<clus scale="   90.723">  7  8 -1 -1</clus>
<clus scale="   97.773">  2  7  1 -1</clus>
<clus scale="  170.036">  1  9  2 -1</clus>
<clus scale="  170.036">  1  5  2 -1</clus>
</clustering>
</event>
<event>
 9    1  0.2423659E-006  0.1389377E+03  0.7546771E-02  0.1217602E+00
         -2   -1    0    0    0  501 -0.00000000000E+00  0.00000000000E+00  0.75728601916E+02  0.75728601916E+02  0.00000000000E+00 0.  1.
          2   -1    0    0  502    0  0.00000000000E+00 -0.00000000000E+00 -0.40940043414E+03  0.40940043414E+03  0.00000000000E+00 0. -1.
         23    2    1    2    0    0  0.11739324307E+03  0.57357039442E+02 -0.17338105689E+03  0.23997125500E+03  0.10224582557E+03 0.  0.
         23    2    1    2    0    0 -0.61542573197E+02 -0.36343997411E+02 -0.14113703062E+03  0.18248632665E+03  0.90957262152E+02 0.  0.
        -11    1    4    4    0    0  0.10273618193E+02 -0.39354228984E+02 -0.31757357000E+02  0.51602638434E+02  0.00000000000E+00 0.  1.
         11    1    4    4    0    0 -0.71816191390E+02  0.30102315731E+01 -0.10937967362E+03  0.13088368821E+03  0.00000000000E+00 0. -1.
        -11    1    3    3    0    0  0.15826236422E+02  0.26344928218E+02 -0.11448155058E+03  0.11853501772E+03  0.00000000000E+00 0. -1.
         11    1    3    3    0    0  0.10156700665E+03  0.31012111223E+02 -0.58899506310E+02  0.12143623729E+03  0.00000000000E+00 0.  1.
         21    1    1    2  502  501 -0.55850669876E+02 -0.21013042031E+02 -0.19153744720E+02  0.62671454409E+02  0.00000000000E+00 0. -1.
<scales pt_clust_5="13000.00000" pt_clust_6="13000.00000" pt_clust_7="13000.00000" pt_clust_8="13000.00000" pt_clust_9="59.67282"></scales>
<clustering>
<clus scale="   59.673">  1  9  2 -1</clus>
<clus scale="   90.957">  5  6 -1 -1</clus>
<clus scale="  102.246">  7  8 -1 -1</clus>
<clus scale="  130.854">  2  5  1 -1</clus>
<clus scale="  130.854">  2  5  1 -1</clus>
</clustering>
</event>
<event>
 9    1  0.2423659E-006  0.9097759E+02  0.7546771E-02  0.1302402E+00
         -4   -1    0    0    0  501 -0.00000000000E+00  0.00000000000E+00  0.14126219086E+03  0.14126219086E+03  0.00000000000E+00 0.  1.
          4   -1    0    0  502    0  0.00000000000E+00 -0.00000000000E+00 -0.11321908616E+03  0.11321908616E+03  0.00000000000E+00 0. -1.
         23    2    1    2    0    0  0.24645927774E+01 -0.16452450358E+01  0.87315775322E+02  0.12385071615E+03  0.87784817723E+02 0.  0.
         23    2    1    2    0    0  0.18605911948E+02  0.76896337094E+01 -0.39631209316E+02  0.10119779331E+03  0.90912321462E+02 0.  0.
        -11    1    3    3    0    0 -0.26117103310E+02  0.20404461789E+01  0.91093776494E+02  0.94785772254E+02  0.00000000000E+00 0. -1.
         11    1    3    3    0    0  0.28581696087E+02 -0.36856912147E+01 -0.37780011724E+01  0.29064943898E+02  0.00000000000E+00 0.  1.
        -13    1    4    4    0    0  0.18991197232E+02  0.38533778254E+02  0.87290095665E+01  0.43837349907E+02  0.00000000000E+00 0.  1.
         13    1    4    4    0    0 -0.38528528393E+00 -0.30844144545E+02 -0.48360218882E+02  0.57360443406E+02  0.00000000000E+00 0. -1.
         21    1    1    2  502  501 -0.21070504725E+02 -0.60443886736E+01 -0.19641461305E+02  0.29432767556E+02  0.00000000000E+00 0. -1.
<scales pt_clust_5="13000.00000" pt_clust_6="13000.00000" pt_clust_7="13000.00000" pt_clust_8="13000.00000" pt_clust_9="21.92033"></scales>
<clustering>
<clus scale="   21.920">  2  9  1 -1</clus>
<clus scale="   87.785">  5  6 -1 -1</clus>
<clus scale="   87.852">  1  5  2 -1</clus>
<clus scale="   90.912">  7  8 -1 -1</clus>
<clus scale="   21.920">  2  5  1 -1</clus>
</clustering>
</event>
<event>
 9    1  0.2423659E-006  0.1037900E+03  0.7546771E-02  0.1272840E+00
          1   -1    0    0  502    0  0.00000000000E+00  0.00000000000E+00  0.50025006800E+03  0.50025006800E+03  0.00000000000E+00 0. -1.
         -1   -1    0    0    0  501 -0.00000000000E+00 -0.00000000000E+00 -0.88452160583E+02  0.88452160583E+02  0.00000000000E+00 0.  1.
         23    2    1    2    0    0 -0.23635904145E+02  0.36222855570E+02 -0.20164919339E+02  0.10307991970E+03  0.91367908170E+02 0.  0.
         23    2    1    2    0    0  0.91030313580E+02 -0.59225038821E+02  0.34722503655E+03  0.37493536319E+03  0.90648647805E+02 0.  0.
        -11    1    4    4    0    0 -0.14890517041E+02 -0.26769344555E+02  0.71278187266E+02  0.77581604041E+02  0.00000000000E+00 0.  1.
         11    1    4    4    0    0  0.10592083062E+03 -0.32455694265E+02  0.27594684929E+03  0.29735375915E+03  0.00000000000E+00 0. -1.
        -13    1    3    3    0    0 -0.27429854600E+02  0.10614154558E+02 -0.53392691645E+02  0.60957663352E+02  0.00000000000E+00 0.  1.
         13    1    3    3    0    0  0.37939504542E+01  0.25608701012E+02  0.33227772306E+02  0.42122256350E+02  0.00000000000E+00 0. -1.
         21    1    1    2  502  501 -0.67394409434E+02  0.23002183251E+02  0.84737790200E+02  0.11068694569E+03  0.00000000000E+00 0.  1.
<scales pt_clust_5="13000.00000" pt_clust_6="13000.00000" pt_clust_7="13000.00000" pt_clust_8="13000.00000" pt_clust_9="71.21170"></scales>
<clustering>
<clus scale="   71.212">  1  9  2 -1</clus>
<clus scale="   90.649">  5  6 -1 -1</clus>
<clus scale="   91.368">  7  8 -1 -1</clus>
<clus scale="  103.157">  1  5  2 -1</clus>
<clus scale="   71.212">  1  5  2 -1</clus>
</clustering>
</event>
<event>
 9    1  0.2423659E-006  0.1148159E+03  0.7546771E-02  0.1254079E+00
         -1   -1    0    0    0  501 -0.00000000000E+00  0.00000000000E+00  0.10661867544E+03  0.10661867544E+03  0.00000000000E+00 0.  1.
          1   -1    0    0  502    0  0.00000000000E+00 -0.00000000000E+00 -0.30623908941E+03  0.30623908941E+03  0.00000000000E+00 0. -1.
         23    2    1    2    0    0  0.90594145826E+02  0.15031574943E+02  0.66196449452E+01  0.12880427023E+03  0.90074817935E+02 0.  0.
         23    2    1    2    0    0  0.38898077452E+00 -0.33514336296E+02 -0.94528693979E+02  0.13879864668E+03  0.95948049962E+02 0.  0.
        -11    1    3    3    0    0  0.54217492076E+02 -0.18757355929E+02 -0.32192716215E+02  0.65785605004E+02  0.00000000000E+00 0. -1.
         11    1    3    3    0    0  0.36376653750E+02  0.33788930872E+02  0.38812361160E+02  0.63018665222E+02  0.00000000000E+00 0.  1.
        -13    1    4    4    0    0 -0.39604118928E+02  0.99614548470E+01 -0.51446651186E+02  0.65684661352E+02  0.00000000000E+00 0.  1.
         13    1    4    4    0    0  0.39993099702E+02 -0.43475791143E+02 -0.43082042794E+02  0.73113985329E+02  0.00000000000E+00 0. -1.
         21    1    1    2  502  501 -0.90983126600E+02  0.18482761353E+02 -0.11171136493E+03  0.14525484794E+03  0.00000000000E+00 0. -1.
<scales pt_clust_5="13000.00000" pt_clust_6="13000.00000" pt_clust_7="13000.00000" pt_clust_8="13000.00000" pt_clust_9="92.84149"></scales>
<clustering>
<clus scale="   90.075">  5  6 -1 -1</clus>
<clus scale="   92.841">  2  9  1 -1</clus>
<clus scale="   95.948">  7  8 -1 -1</clus>
<clus scale="  109.955">  1  5  2 -1</clus>
<clus scale="   92.841">  2  5  1 -1</clus>
</clustering>
</event>
<event>
 9    1  0.2423659E-006  0.2216270E+03  0.7546771E-02  0.1158241E+00
          1   -1    0    0  502    0  0.00000000000E+00  0.00000000000E+00  0.66056799780E+03  0.66056799780E+03  0.00000000000E+00 0. -1.
         -1   -1    0    0    0  501 -0.00000000000E+00 -0.00000000000E+00 -0.29080284821E+03  0.29080284821E+03  0.00000000000E+00 0.  1.
         23    2    1    2    0    0  0.20821644297E+03 -0.20675259214E+02 -0.21071203068E+03  0.31083707966E+03  0.91861726247E+02 0.  0.
         23    2    1    2    0    0 -0.68499223989E+02  0.13131762270E+02  0.18180463906E+03  0.21802033373E+03  0.98057902631E+02 0.  0.
        -13    1    3    3    0    0  0.12888498587E+03 -0.55110852203E+01 -0.18603002484E+03  0.22638215872E+03  0.00000000000E+00 0.  1.
         13    1    3    3    0    0  0.79331457099E+02 -0.15164173994E+02 -0.24682005839E+02  0.84454920937E+02  0.00000000000E+00 0. -1.
        -13    1    4    4    0    0 -0.56843201971E+02  0.51912961131E+02  0.95311445512E+02  0.12251684288E+03  0.00000000000E+00 0. -1.
         13    1    4    4    0    0 -0.11656022018E+02 -0.38781198861E+02  0.86493193547E+02  0.95503490849E+02  0.00000000000E+00 0.  1.
         21    1    1    2  502  501 -0.13971721898E+03  0.75434969440E+01  0.39867254122E+03  0.42251343262E+03  0.00000000000E+00 0. -1.
<scales pt_clust_5="13000.00000" pt_clust_6="13000.00000" pt_clust_7="13000.00000" pt_clust_8="13000.00000" pt_clust_9="201.69273"></scales>
<clustering>
<clus scale="   91.862">  5  6 -1 -1</clus>
<clus scale="   98.058">  7  8 -1 -1</clus>
<clus scale="  120.333">  1  7  2 -1</clus>
<clus scale="  201.693">  1  9  2 -1</clus>
<clus scale="  120.333">  1  5  2 -1</clus>
</clustering>
</event>
<event>
 9    1  0.2423659E-006  0.9885837E+02  0.7546771E-02  0.1282846E+00
          2   -1    0    0  502    0  0.00000000000E+00  0.00000000000E+00  0.10472411419E+03  0.10472411419E+03  0.00000000000E+00 0. -1.
         -2   -1    0    0    0  501 -0.00000000000E+00 -0.00000000000E+00 -0.37283096060E+03  0.37283096060E+03  0.00000000000E+00 0.  1.
         23    2    1    2    0    0 -0.68759065431E+01  0.98472938994E+01 -0.27622498481E+03  0.29088108703E+03  0.90373211022E+02 0.  0.
         23    2    1    2    0    0  0.13265711124E+02 -0.39943727095E+02  0.66945233377E+02  0.12028685047E+03  0.90640949351E+02 0.  0.
        -11    1    4    4    0    0  0.38414225725E+02 -0.42846017963E+02  0.10596367184E+02  0.58512537040E+02  0.00000000000E+00 0.  1.
         11    1    4    4    0    0 -0.25148514602E+02  0.29022908682E+01  0.56348866193E+02  0.61774313434E+02  0.00000000000E+00 0. -1.
        -13    1    3    3    0    0  0.40007617865E+02  0.10810138209E+02 -0.94206384479E+02  0.10291895575E+03  0.00000000000E+00 0.  1.
         13    1    3    3    0    0 -0.46883524408E+02 -0.96284431004E+00 -0.18201860033E+03  0.18796213129E+03  0.00000000000E+00 0. -1.
         21    1    1    2  502  501 -0.63898045806E+01  0.30096433196E+02 -0.58827094977E+02  0.66387137286E+02  0.00000000000E+00 0.  1.
<scales pt_clust_5="13000.00000" pt_clust_6="13000.00000" pt_clust_7="13000.00000" pt_clust_8="13000.00000" pt_clust_9="30.76727"></scales>
<clustering>
<clus scale="   30.767">  2  9  1 -1</clus>
<clus scale="   90.373">  7  8 -1 -1</clus>
<clus scale="   90.641">  5  6 -1 -1</clus>
<clus scale="   98.613">  2  7  1 -1</clus>
<clus scale="   98.858">  1  5  2 -1</clus>
</clustering>
</event>
<event>
 9    1  0.2423659E-006  0.1752911E+03  0.7546771E-02  0.1196052E+00
          1   -1    0    0  502    0  0.00000000000E+00  0.00000000000E+00  0.68179458798E+03  0.68179458798E+03  0.00000000000E+00 0. -1.
         -1   -1    0    0    0  501 -0.00000000000E+00 -0.00000000000E+00 -0.20415370946E+03  0.20415370946E+03  0.00000000000E+00 0.  1.
         23    2    1    2    0    0  0.52827265014E+01 -0.43679161714E+02 -0.14744637569E+03  0.18014228564E+03  0.93675146136E+02 0.  0.
         23    2    1    2    0    0  0.26121920788E+01  0.15573119512E+03  0.51323982811E+03  0.54728839557E+03  0.10885971744E+03 0.  0.
        -11    1    4    4    0    0  0.50942155603E+02  0.40774039146E+02  0.16925493428E+03  0.18139696321E+03  0.00000000000E+00 0.  1.
         11    1    4    4    0    0 -0.48329963524E+02  0.11495715597E+03  0.34398489383E+03  0.36589143235E+03  0.00000000000E+00 0. -1.
        -13    1    3    3    0    0  0.24441531083E+02 -0.12413983304E+02 -0.14008523906E+03  0.14274231898E+03  0.00000000000E+00 0.  1.
         13    1    3    3    0    0 -0.19158804581E+02 -0.31265178410E+02 -0.73611366285E+01  0.37399966664E+02  0.00000000000E+00 0. -1.
         21    1    1    2  502  501 -0.78949185802E+01 -0.11205203340E+03  0.11184742611E+03  0.15851761623E+03  0.00000000000E+00 0. -1.
<scales pt_clust_5="13000.00000" pt_clust_6="13000.00000" pt_clust_7="13000.00000" pt_clust_8="13000.00000" pt_clust_9="137.39187"></scales>
<clustering>
<clus scale="   93.675">  7  8 -1 -1</clus>
<clus scale="  103.493">  2  7  1 -1</clus>
<clus scale="  108.860">  5  6 -1 -1</clus>
<clus scale="  137.392">  2  9  1 -1</clus>
<clus scale="  175.291">  1  5  2 -1</clus>
</clustering>
</event>
<event>
 9    1  0.2423659E-006  0.1007646E+03  0.7546771E-02  0.1279160E+00
         -1   -1    0    0    0  501 -0.00000000000E+00  0.00000000000E+00  0.81983768222E+03  0.81983768222E+03  0.00000000000E+00 0.  1.
          1   -1    0    0  502    0  0.00000000000E+00 -0.00000000000E+00 -0.46653639327E+02  0.46653639327E+02  0.00000000000E+00 0. -1.
         23    2    1    2    0    0  0.29101170027E+02  0.46400294632E+02  0.11874362159E+03  0.15796720830E+03  0.88621249098E+02 0.  0.
         23    2    1    2    0    0 -0.60874638114E+02  0.16262600068E+02  0.92281543696E+02  0.14199185881E+03  0.87610564056E+02 0.  0.
        -13    1    4    4    0    0 -0.14678382956E+02  0.48323930712E+02  0.33263801947E+02  0.60474273254E+02  0.00000000000E+00 0.  1.
         13    1    4    4    0    0 -0.46196255158E+02 -0.32061330644E+02  0.59017741749E+02  0.81517585553E+02  0.00000000000E+00 0. -1.
        -13    1    3    3    0    0  0.60585628621E+02  0.36055882663E+02  0.88034372236E+02  0.11278606193E+03  0.00000000000E+00 0.  1.
         13    1    3    3    0    0 -0.31484458594E+02  0.10344411970E+02  0.30709249355E+02  0.45181146377E+02  0.00000000000E+00 0. -1.
         21    1    1    2  502  501  0.31773468087E+02 -0.62662894700E+02  0.56215887761E+03  0.56653225444E+03  0.00000000000E+00 0.  1.
<scales pt_clust_5="13000.00000" pt_clust_6="13000.00000" pt_clust_7="13000.00000" pt_clust_8="13000.00000" pt_clust_9="70.25804"></scales>
<clustering>
<clus scale="   70.258">  1  9  2 -1</clus>
<clus scale="   87.611">  5  6 -1 -1</clus>
<clus scale="   88.621">  7  8 -1 -1</clus>
<clus scale="   99.877">  2  5  1 -1</clus>
<clus scale="   99.877">  2  5  1 -1</clus>
</clustering>
</event>
<event>
 9    1  0.2423659E-006  0.9132638E+02  0.7546771E-02  0.1304903E+00
          3   -1    0    0  502    0  0.00000000000E+00  0.00000000000E+00  0.35404478914E+02  0.35404478914E+02  0.00000000000E+00 0. -1.
         -3   -1    0    0    0  501 -0.00000000000E+00 -0.00000000000E+00 -0.34913079242E+03  0.34913079242E+03  0.00000000000E+00 0.  1.
         23    2    1    2    0    0 -0.24965249632E+02  0.17490488410E+02 -0.13017599024E+03  0.16146567479E+03  0.90532838392E+02 0.  0.
         23    2    1    2    0    0 -0.14758120372E+02 -0.68498075809E+01 -0.10370255549E+03  0.13325402867E+03  0.82083458511E+02 0.  0.
        -11    1    4    4    0    0 -0.26390924027E+02 -0.38192192869E+02 -0.39859837632E+02  0.61187671333E+02  0.00000000000E+00 0.  1.
         11    1    4    4    0    0  0.11632803655E+02  0.31342385288E+02 -0.63842717858E+02  0.72066357338E+02  0.00000000000E+00 0. -1.
        -13    1    3    3    0    0 -0.38858997231E+01  0.36697362794E+02 -0.12760355967E+03  0.13283247003E+03  0.00000000000E+00 0.  1.
         13    1    3    3    0    0 -0.21079349909E+02 -0.19206874384E+02 -0.25724305702E+01  0.28633204767E+02  0.00000000000E+00 0. -1.
         21    1    1    2  502  501  0.39723370004E+02 -0.10640680829E+02 -0.79847767772E+02  0.89815567866E+02  0.00000000000E+00 0. -1.
<scales pt_clust_5="13000.00000" pt_clust_6="13000.00000" pt_clust_7="13000.00000" pt_clust_8="13000.00000" pt_clust_9="41.12384"></scales>
<clustering>
<clus scale="   41.124">  2  9  1 -1</clus>
<clus scale="   82.083">  5  6 -1 -1</clus>
<clus scale="   82.958">  1  5  2 -1</clus>
<clus scale="   90.533">  7  8 -1 -1</clus>
<clus scale="   82.958">  1  5  2 -1</clus>
</clustering>
</event>
<event>
 9    1  0.2423659E-006  0.1121300E+03  0.7546771E-02  0.1257074E+00
          2   -1    0    0  502    0  0.00000000000E+00  0.00000000000E+00  0.42263912768E+03  0.42263912768E+03  0.00000000000E+00 0. -1.
         -2   -1    0    0    0  501 -0.00000000000E+00 -0.00000000000E+00 -0.70321899198E+02  0.70321899198E+02  0.00000000000E+00 0.  1.
         23    2    1    2    0    0 -0.29726078664E+02  0.64102649591E+02  0.32743197421E+02  0.11958012744E+03  0.90744148379E+02 0.  0.
         23    2    1    2    0    0 -0.25921460863E+02 -0.62277180284E+02  0.28720255388E+03  0.30897675726E+03  0.91820260595E+02 0.  0.
        -11    1    3    3    0    0 -0.29156747670E+02 -0.14982735771E+02 -0.27442862137E+01  0.32895735480E+02  0.00000000000E+00 0.  1.
         11    1    3    3    0    0 -0.56933099357E+00  0.79085385362E+02  0.35487483634E+02  0.86684391965E+02  0.00000000000E+00 0. -1.
        -13    1    4    4    0    0 -0.33974847179E+02 -0.80696619102E+02  0.18318541882E+03  0.20303480550E+03  0.00000000000E+00 0.  1.
         13    1    4    4    0    0  0.80533863166E+01  0.18419438818E+02  0.10401713506E+03  0.10594195176E+03  0.00000000000E+00 0. -1.
         21    1    1    2  502  501  0.55647539527E+02 -0.18254693067E+01  0.32371477177E+02  0.64404142166E+02  0.00000000000E+00 0.  1.
<scales pt_clust_5="13000.00000" pt_clust_6="13000.00000" pt_clust_7="13000.00000" pt_clust_8="13000.00000" pt_clust_9="55.67747"></scales>
<clustering>
<clus scale="   55.677">  2  9  1 -1</clus>
<clus scale="   90.744">  5  6 -1 -1</clus>
<clus scale="   91.820">  7  8 -1 -1</clus>
<clus scale="  111.251">  2  5  1 -1</clus>
<clus scale="  112.130">  1  5  2 -1</clus>
</clustering>
</event>
<event>
 9    1  0.2423659E-006  0.1724968E+03  0.7546771E-02  0.1202623E+00
         -1   -1    0    0    0  501 -0.00000000000E+00  0.00000000000E+00  0.36761076049E+02  0.36761076049E+02  0.00000000000E+00 0.  1.
          1   -1    0    0  502    0  0.00000000000E+00 -0.00000000000E+00 -0.13667348560E+04  0.13667348560E+04  0.00000000000E+00 0. -1.
         23    2    1    2    0    0  0.11301929720E+02 -0.26406606404E+02 -0.16892445722E+03  0.19338750450E+03  0.89656077159E+02 0.  0.
         23    2    1    2    0    0  0.10797321285E+03 -0.71616401805E+02 -0.34312279267E+03  0.37773899133E+03  0.90367975649E+02 0.  0.
        -11    1    4    4    0    0  0.11745958588E+03 -0.47972880165E+02 -0.23951773253E+03  0.27104777391E+03  0.00000000000E+00 0.  1.
         11    1    4    4    0    0 -0.94863730243E+01 -0.23643521640E+02 -0.10360506013E+03  0.10669121742E+03  0.00000000000E+00 0. -1.
        -11    1    3    3    0    0 -0.18343022059E+02 -0.50629843439E+02 -0.78521845072E+02  0.95213064537E+02  0.00000000000E+00 0.  1.
         11    1    3    3    0    0  0.29644951779E+02  0.24223237036E+02 -0.90402612147E+02  0.98174439960E+02  0.00000000000E+00 0. -1.
         21    1    1    2  502  501 -0.11927514257E+03  0.98023008209E+02 -0.81792653008E+03  0.83236943624E+03  0.00000000000E+00 0. -1.
<scales pt_clust_5="13000.00000" pt_clust_6="13000.00000" pt_clust_7="13000.00000" pt_clust_8="13000.00000" pt_clust_9="146.93122"></scales>
<clustering>
<clus scale="   89.656">  7  8 -1 -1</clus>
<clus scale="   90.368">  5  6 -1 -1</clus>
<clus scale="   94.145">  1  7  2 -1</clus>
<clus scale="  146.931">  2  9  1 -1</clus>
<clus scale="  146.931">  2  5  1 -1</clus>
</clustering>
</event>
<event>
 9    1  0.2423659E-006  0.1174738E+03  0.7546771E-02  0.1249814E+00
         -1   -1    0    0    0  501 -0.00000000000E+00  0.00000000000E+00  0.37985606700E+02  0.37985606700E+02  0.00000000000E+00 0.  1.
          1   -1    0    0  502    0  0.00000000000E+00 -0.00000000000E+00 -0.73963767731E+03  0.73963767731E+03  0.00000000000E+00 0. -1.
         23    2    1    2    0    0  0.64122648261E+02 -0.17169738666E+02 -0.11174694723E+03  0.15434961983E+03  0.83246086869E+02 0.  0.
         23    2    1    2    0    0 -0.75971474051E+02 -0.23718126386E+02 -0.55570621577E+03  0.56866801005E+03  0.90772754850E+02 0.  0.
        -11    1    3    3    0    0  0.74092369970E+02 -0.36869932707E+02 -0.98295855540E+02  0.12849570593E+03  0.00000000000E+00 0.  1.
         11    1    3    3    0    0 -0.99697217085E+01  0.19700194041E+02 -0.13451091692E+02  0.25853913899E+02  0.00000000000E+00 0. -1.
        -11    1    4    4    0    0  0.44070105481E+01  0.23713052931E+02 -0.68993213349E+02  0.73087578353E+02  0.00000000000E+00 0.  1.
         11    1    4    4    0    0 -0.80378484599E+02 -0.47431179318E+02 -0.48671300242E+03  0.49558043170E+03  0.00000000000E+00 0. -1.
         21    1    1    2  502  501  0.11848825790E+02  0.40887865053E+02 -0.34198907604E+02  0.54605654125E+02  0.00000000000E+00 0.  1.
<scales pt_clust_5="13000.00000" pt_clust_6="13000.00000" pt_clust_7="13000.00000" pt_clust_8="13000.00000" pt_clust_9="42.57009"></scales>
<clustering>
<clus scale="   42.570">  1  9  2 -1</clus>
<clus scale="   83.246">  5  6 -1 -1</clus>
<clus scale="   90.773">  7  8 -1 -1</clus>
<clus scale="  111.760">  1  5  2 -1</clus>
<clus scale="  117.474">  2  5  1 -1</clus>
</clustering>
</event>
<event>
 9    1  0.2423659E-006  0.1115347E+03  0.7546771E-02  0.1260731E+00
         -3   -1    0    0    0  501 -0.00000000000E+00  0.00000000000E+00  0.16363817852E+03  0.16363817852E+03  0.00000000000E+00 0.  1.
          3   -1    0    0  502    0  0.00000000000E+00 -0.00000000000E+00 -0.14559176517E+03  0.14559176517E+03  0.00000000000E+00 0. -1.
         23    2    1    2    0    0 -0.30185188786E+01 -0.39692835766E+02  0.82189258907E+01  0.10634198834E+03  0.98267161728E+02 0.  0.
         23    2    1    2    0    0  0.16148993411E+02  0.57950463990E+02 -0.63477080486E+02  0.12621129638E+03  0.90999479792E+02 0.  0.
        -11    1    4    4    0    0 -0.13694047236E+02 -0.20408944413E+02 -0.87808497243E+01  0.26098951389E+02  0.00000000000E+00 0.  1.
         11    1    4    4    0    0  0.29843040647E+02  0.78359408402E+02 -0.54696230761E+02  0.10011234499E+03  0.00000000000E+00 0. -1.
        -13    1    3    3    0    0 -0.39579474570E+02 -0.30809740522E+02  0.34121253164E+02  0.60663290676E+02  0.00000000000E+00 0.  1.
         13    1    3    3    0    0  0.36560955691E+02 -0.88830952439E+01 -0.25902327273E+02  0.45678697664E+02  0.00000000000E+00 0. -1.
         21    1    1    2  502  501 -0.13130474532E+02 -0.18257628224E+02  0.73304567940E+02  0.76676658969E+02  0.00000000000E+00 0.  1.
<scales pt_clust_5="13000.00000" pt_clust_6="13000.00000" pt_clust_7="13000.00000" pt_clust_8="13000.00000" pt_clust_9="22.48889"></scales>
<clustering>
<clus scale="   22.489">  1  9  2 -1</clus>
<clus scale="   90.999">  5  6 -1 -1</clus>
<clus scale="   98.267">  7  8 -1 -1</clus>
<clus scale="  105.188">  2  5  1 -1</clus>
<clus scale="  105.188">  2  5  1 -1</clus>
</clustering>
</event>
<event>
 9    1  0.2423659E-006  0.2681414E+03  0.7546771E-02  0.1144327E+00
         -2   -1    0    0    0  501 -0.00000000000E+00  0.00000000000E+00  0.73340740341E+03  0.73340740341E+03  0.00000000000E+00 0.  1.
          2   -1    0    0  502    0  0.00000000000E+00 -0.00000000000E+00 -0.22107152324E+03  0.22107152324E+03  0.00000000000E+00 0. -1.
         23    2    1    2    0    0  0.23646905307E+03 -0.78511940492E+02  0.50520054706E+03  0.57067203260E+03  0.91417931434E+02 0.  0.
         23    2    1    2    0    0  0.13154027747E+02  0.21532518354E+01 -0.63011233335E+02  0.11350544642E+03  0.93463393372E+02 0.  0.
        -11    1    4    4    0    0 -0.80670629851E+01  0.41347509573E+02 -0.53214484813E+02  0.67871020672E+02  0.00000000000E+00 0. -1.
         11    1    4    4    0    0  0.21221090732E+02 -0.39194257738E+02 -0.97967485220E+01  0.45634425745E+02  0.00000000000E+00 0.  1.
        -13    1    3    3    0    0  0.72214198246E+02 -0.22650309564E+02  0.25652412306E+03  0.26745570225E+03  0.00000000000E+00 0. -1.
         13    1    3    3    0    0  0.16425485482E+03 -0.55861630928E+02  0.24867642400E+03  0.30321633036E+03  0.00000000000E+00 0.  1.
         21    1    1    2  502  501 -0.24962308081E+03  0.76358688656E+02  0.70146566448E+02  0.27030144763E+03  0.00000000000E+00 0. -1.
<scales pt_clust_5="13000.00000" pt_clust_6="13000.00000" pt_clust_7="13000.00000" pt_clust_8="13000.00000" pt_clust_9="252.07648"></scales>
<clustering>
<clus scale="   91.418">  7  8 -1 -1</clus>
<clus scale="   93.463">  5  6 -1 -1</clus>
<clus scale="   94.409">  2  5  1 -1</clus>
<clus scale="  252.076">  2  9  1 -1</clus>
<clus scale="   94.409">  2  5  1 -1</clus>
</clustering>
</event>
<event>
 9    1  0.2423659E-006  0.9439157E+02  0.7546771E-02  0.1294634E+00
          1   -1    0    0  502    0  0.00000000000E+00  0.00000000000E+00  0.91498287768E+02  0.91498287768E+02  0.00000000000E+00 0. -1.
         -1   -1    0    0    0  501 -0.00000000000E+00 -0.00000000000E+00 -0.19389436568E+03  0.19389436568E+03  0.00000000000E+00 0.  1.
         23    2    1    2    0    0 -0.14130252154E+01 -0.19452720493E+02 -0.13072920021E+03  0.15963875799E+03  0.89520971220E+02 0.  0.
         23    2    1    2    0    0 -0.13329252140E+02 -0.37009256021E+01  0.28175304366E+02  0.98304833994E+02  0.93159147686E+02 0.  0.
        -13    1    3    3    0    0  0.15591632999E+02 -0.48677398177E+02 -0.47391860418E+02  0.69703490205E+02  0.00000000000E+00 0. -1.
         13    1    3    3    0    0 -0.17004658215E+02  0.29224677685E+02 -0.83337339794E+02  0.89935267780E+02  0.00000000000E+00 0.  1.
        -13    1    4    4    0    0 -0.48342084060E+02 -0.23306314297E+02  0.11707822750E+02  0.54929177046E+02  0.00000000000E+00 0. -1.
         13    1    4    4    0    0  0.35012831920E+02  0.19605388695E+02  0.16467481616E+02  0.43375656949E+02  0.00000000000E+00 0.  1.
         21    1    1    2  502  501  0.14742277355E+02  0.23153646095E+02  0.15781793166E+00  0.27449061470E+02  0.00000000000E+00 0.  1.
<scales pt_clust_5="13000.00000" pt_clust_6="13000.00000" pt_clust_7="13000.00000" pt_clust_8="13000.00000" pt_clust_9="27.44861"></scales>
<clustering>
<clus scale="   27.449">  1  9  2 -1</clus>
<clus scale="   89.521">  5  6 -1 -1</clus>
<clus scale="   90.803">  2  5  1 -1</clus>
<clus scale="   93.159">  7  8 -1 -1</clus>
<clus scale="   27.449">  1  5  2 -1</clus>
</clustering>
</event>
<event>
 9    1  0.2423659E-006  0.1313905E+03  0.7546771E-02  0.1233625E+00
         -2   -1    0    0    0  501 -0.00000000000E+00  0.00000000000E+00  0.10418352746E+03  0.10418352746E+03  0.00000000000E+00 0.  1.
          2   -1    0    0  502    0  0.00000000000E+00 -0.00000000000E+00 -0.29114043528E+03  0.29114043528E+03  0.00000000000E+00 0. -1.
         23    2    1    2    0    0 -0.60410820136E+02 -0.20384141959E+02 -0.41131820294E+02  0.11825198807E+03  0.90701298824E+02 0.  0.
         23    2    1    2    0    0 -0.26606660188E+02 -0.62852548537E+02 -0.61255062020E+02  0.12992416551E+03  0.92031238916E+02 0.  0.
        -13    1    4    4    0    0  0.14926364858E+02  0.14713421794E+02 -0.29908846988E+02  0.36521504308E+02  0.00000000000E+00 0. -1.
         13    1    4    4    0    0 -0.41533025046E+02 -0.77565970331E+02 -0.31346215032E+02  0.93402661202E+02  0.00000000000E+00 0.  1.
        -13    1    3    3    0    0  0.13397010009E+02 -0.29699313314E+02 -0.27466830363E+02  0.42614033588E+02  0.00000000000E+00 0. -1.
         13    1    3    3    0    0 -0.73807830145E+02  0.93151713544E+01 -0.13664989931E+02  0.75637954480E+02  0.00000000000E+00 0.  1.
         21    1    1    2  502  501  0.87017480324E+02  0.83236690496E+02 -0.84570025514E+02  0.14714780916E+03  0.00000000000E+00 0. -1.
<scales pt_clust_5="13000.00000" pt_clust_6="13000.00000" pt_clust_7="13000.00000" pt_clust_8="13000.00000" pt_clust_9="93.77477"></scales>
<clustering>
<clus scale="   90.701">  7  8 -1 -1</clus>
<clus scale="   92.031">  5  6 -1 -1</clus>
<clus scale="  110.868">  1  7  2 -1</clus>
<clus scale="   93.775">  1  9  2 -1</clus>
<clus scale="  131.390">  2  5  1 -1</clus>
</clustering>
</event>
<event>
 9    1  0.2423659E-006  0.1146631E+03  0.7546771E-02  0.1253645E+00
          2   -1    0    0  502    0  0.00000000000E+00  0.00000000000E+00  0.13144670222E+03  0.13144670222E+03  0.00000000000E+00 0. -1.
         -2   -1    0    0    0  501 -0.00000000000E+00 -0.00000000000E+00 -0.14893908921E+03  0.14893908921E+03  0.00000000000E+00 0.  1.
         23    2    1    2    0    0 -0.51906530490E+02  0.46500339991E+02 -0.45750787415E+02  0.12508454746E+03  0.93254704641E+02 0.  0.
         23    2    1    2    0    0  0.20115969298E+02 -0.65566618056E+02  0.34627926928E+02  0.11768829928E+03  0.89150484237E+02 0.  0.
        -11    1    4    4    0    0 -0.27736622132E+02 -0.19974518205E+02 -0.12627263765E+02  0.36438295446E+02  0.00000000000E+00 0.  1.
         11    1    4    4    0    0  0.47852591430E+02 -0.45592099851E+02  0.47255190692E+02  0.81250003832E+02  0.00000000000E+00 0. -1.
        -11    1    3    3    0    0  0.24425596998E+02  0.21550077037E+02  0.17466375140E+00  0.32573702836E+02  0.00000000000E+00 0. -1.
         11    1    3    3    0    0 -0.76332127489E+02  0.24950262954E+02 -0.45925451166E+02  0.92510844625E+02  0.00000000000E+00 0.  1.
         21    1    1    2  502  501  0.31790561192E+02  0.19066278064E+02 -0.63695265066E+01  0.37612944687E+02  0.00000000000E+00 0. -1.
<scales pt_clust_5="13000.00000" pt_clust_6="13000.00000" pt_clust_7="13000.00000" pt_clust_8="13000.00000" pt_clust_9="37.06970"></scales>
<clustering>
<clus scale="   37.070">  2  9  1 -1</clus>
<clus scale="   89.150">  5  6 -1 -1</clus>
<clus scale="   93.255">  7  8 -1 -1</clus>
<clus scale="  111.351">  1  5  2 -1</clus>
<clus scale="  111.351">  1  5  2 -1</clus>
</clustering>
</event>
<event>
 9    1  0.2423659E-006  0.1548620E+03  0.7546771E-02  0.1206174E+00
          2   -1    0    0  502    0  0.00000000000E+00  0.00000000000E+00  0.82859404805E+03  0.82859404805E+03  0.00000000000E+00 0. -1.
         -2   -1    0    0    0  501 -0.00000000000E+00 -0.00000000000E+00 -0.79768215772E+02  0.79768215772E+02  0.00000000000E+00 0.  1.
         23    2    1    2    0    0 -0.86533330554E+02 -0.24060040147E+02  0.49372200681E+03  0.51046682256E+03  0.93531032837E+02 0.  0.
         23    2    1    2    0    0 -0.35455692177E+02  0.71587681828E+02  0.23679528376E+03  0.26570088354E+03  0.90238854188E+02 0.  0.
        -11    1    4    4    0    0  0.97223146025E+01  0.46853763244E+02  0.19059661683E+03  0.19651175252E+03  0.00000000000E+00 0.  1.
         11    1    4    4    0    0 -0.45178006780E+02  0.24733918584E+02  0.46198666930E+02  0.69189131019E+02  0.00000000000E+00 0. -1.
        -13    1    3    3    0    0  0.12743522811E+02  0.17567547311E+02  0.70253578890E+02  0.73529459668E+02  0.00000000000E+00 0.  1.
         13    1    3    3    0    0 -0.99276853365E+02 -0.41627587458E+02  0.42346842792E+03  0.43693736290E+03  0.00000000000E+00 0. -1.
         21    1    1    2  502  501  0.12198902273E+03 -0.47527641681E+02  0.18308541710E+02  0.13219455772E+03  0.00000000000E+00 0.  1.
<scales pt_clust_5="13000.00000" pt_clust_6="13000.00000" pt_clust_7="13000.00000" pt_clust_8="13000.00000" pt_clust_9="123.42682"></scales>
<clustering>
<clus scale="   90.239">  5  6 -1 -1</clus>
<clus scale="   93.531">  7  8 -1 -1</clus>
<clus scale="  120.520">  1  5  2 -1</clus>
<clus scale="  123.427">  2  9  1 -1</clus>
<clus scale="  120.520">  1  5  2 -1</clus>
</clustering>
</event>
<event>
 9    1  0.2423659E-006  0.9791923E+02  0.7546771E-02  0.1287332E+00
          2   -1    0    0  502    0  0.00000000000E+00  0.00000000000E+00  0.10831431971E+03  0.10831431971E+03  0.00000000000E+00 0. -1.
         -2   -1    0    0    0  501 -0.00000000000E+00 -0.00000000000E+00 -0.12148388535E+03  0.12148388535E+03  0.00000000000E+00 0.  1.
         23    2    1    2    0    0  0.13984237874E+02  0.69181760916E+01 -0.18861260656E+02  0.94937666487E+02  0.91727821816E+02 0.  0.
         23    2    1    2    0    0 -0.16476295276E+02  0.25720439445E+02 -0.20590120184E+01  0.10122182526E+03  0.96481133214E+02 0.  0.
        -11    1    3    3    0    0 -0.31226385359E+02 -0.21207286117E+01 -0.34188632629E+02  0.46351345541E+02  0.00000000000E+00 0. -1.
         11    1    3    3    0    0  0.45210623233E+02  0.90389047032E+01  0.15327371974E+02  0.48586320945E+02  0.00000000000E+00 0.  1.
        -11    1    4    4    0    0  0.29086250636E+02  0.41556897933E+02 -0.11640512724E+02  0.52043129022E+02  0.00000000000E+00 0. -1.
         11    1    4    4    0    0 -0.45562545912E+02 -0.15836458489E+02  0.95815007055E+01  0.49178696234E+02  0.00000000000E+00 0.  1.
         21    1    1    2  502  501  0.24920574014E+01 -0.32638615536E+02  0.77507070412E+01  0.33638713320E+02  0.00000000000E+00 0.  1.
<scales pt_clust_5="13000.00000" pt_clust_6="13000.00000" pt_clust_7="13000.00000" pt_clust_8="13000.00000" pt_clust_9="32.73362"></scales>
<clustering>
<clus scale="   32.734">  1  9  2 -1</clus>
<clus scale="   91.728">  5  6 -1 -1</clus>
<clus scale="   93.239">  2  5  1 -1</clus>
<clus scale="   96.481">  7  8 -1 -1</clus>
<clus scale="   32.734">  1  5  2 -1</clus>
</clustering>
</event>
<event>
 9    1  0.2423659E-006  0.9360425E+02  0.7546771E-02  0.1294420E+00
         -2   -1    0    0    0  501 -0.00000000000E+00  0.00000000000E+00  0.60151165923E+02  0.60151165923E+02  0.00000000000E+00 0.  1.
          2   -1    0    0  502    0  0.00000000000E+00 -0.00000000000E+00 -0.34539592667E+03  0.34539592667E+03  0.00000000000E+00 0. -1.
         23    2    1    2    0    0 -0.48244546953E+02  0.26162762201E+02 -0.79229075986E+02  0.13172295845E+03  0.89786774445E+02 0.  0.
         23    2    1    2    0    0 -0.33411780279E+02 -0.17266538677E+02 -0.12439542840E+03  0.15802791305E+03  0.89911724919E+02 0.  0.
        -11    1    4    4    0    0  0.98326822378E+01 -0.38378836198E+02 -0.23045937765E+02  0.45833742542E+02  0.00000000000E+00 0. -1.
         11    1    4    4    0    0 -0.43244462517E+02  0.21112297521E+02 -0.10134949063E+03  0.11219417051E+03  0.00000000000E+00 0.  1.
        -13    1    3    3    0    0 -0.62630067511E+02  0.77390855227E+01 -0.17159226969E+02  0.65397690107E+02  0.00000000000E+00 0.  1.
         13    1    3    3    0    0  0.14385520559E+02  0.18423676679E+02 -0.62069849017E+02  0.66325268346E+02  0.00000000000E+00 0. -1.
         21    1    1    2  502  501  0.81656327232E+02 -0.88962235248E+01 -0.81620256367E+02  0.11579622109E+03  0.00000000000E+00 0. -1.
<scales pt_clust_5="13000.00000" pt_clust_6="13000.00000" pt_clust_7="13000.00000" pt_clust_8="13000.00000" pt_clust_9="82.13951"></scales>
<clustering>
<clus scale="   82.140">  2  9  1 -1</clus>
<clus scale="   89.787">  7  8 -1 -1</clus>
<clus scale="   89.912">  5  6 -1 -1</clus>
<clus scale="   93.484">  1  7  2 -1</clus>
<clus scale="   82.140">  2  5  1 -1</clus>
</clustering>
</event>
<event>
 9    1  0.2423659E-006  0.1350419E+03  0.7546771E-02  0.1230745E+00
          2   -1    0    0  502    0  0.00000000000E+00  0.00000000000E+00  0.43840013981E+03  0.43840013981E+03  0.00000000000E+00 0. -1.
         -2   -1    0    0    0  501 -0.00000000000E+00 -0.00000000000E+00 -0.14519547775E+03  0.14519547775E+03  0.00000000000E+00 0.  1.
         23    2    1    2    0    0 -0.52748129614E+02  0.24954510911E+02  0.12622450171E+02  0.10908127379E+03  0.91292416168E+02 0.  0.
         23    2    1    2    0    0  0.88895220977E+01  0.74425787659E+02 -0.51850420817E+02  0.12478376678E+03  0.85230867886E+02 0.  0.
        -11    1    3    3    0    0 -0.64850123518E+02  0.44224393608E+02 -0.73060212044E+01  0.78833453915E+02  0.00000000000E+00 0.  1.
         11    1    3    3    0    0  0.12101993904E+02 -0.19269882697E+02  0.19928471376E+02  0.30247819871E+02  0.00000000000E+00 0. -1.
        -13    1    4    4    0    0 -0.13017755255E+02  0.70959898718E+02 -0.66569397859E+02  0.98164422828E+02  0.00000000000E+00 0.  1.
         13    1    4    4    0    0  0.21907277352E+02  0.34658889411E+01  0.14718977042E+02  0.26619343950E+02  0.00000000000E+00 0. -1.
         21    1    1    2  502  501  0.43858607517E+02 -0.99380298569E+02  0.33243263271E+03  0.34973057700E+03  0.00000000000E+00 0. -1.
<scales pt_clust_5="13000.00000" pt_clust_6="13000.00000" pt_clust_7="13000.00000" pt_clust_8="13000.00000" pt_clust_9="104.74732"></scales>
<clustering>
<clus scale="   85.231">  7  8 -1 -1</clus>
<clus scale="   91.292">  5  6 -1 -1</clus>
<clus scale="  108.349">  2  5  1 -1</clus>
<clus scale="  104.747">  1  9  2 -1</clus>
<clus scale="  104.747">  1  5  2 -1</clus>
</clustering>
</event>
<event>
 9    1  0.2423659E-006  0.9288188E+02  0.7546771E-02  0.1296916E+00
         -1   -1    0    0    0  501 -0.00000000000E+00  0.00000000000E+00  0.41559300369E+02  0.41559300369E+02  0.00000000000E+00 0.  1.
          1   -1    0    0  502    0  0.00000000000E+00 -0.00000000000E+00 -0.32794923174E+03  0.32794923174E+03  0.00000000000E+00 0. -1.
         23    2    1    2    0    0 -0.12888021147E+02 -0.10362211526E+02 -0.91243260440E+02  0.12894736287E+03  0.89602529538E+02 0.  0.
         23    2    1    2    0    0 -0.25663487180E+02  0.26540729248E+02 -0.12734940526E+03  0.16090922348E+03  0.91164040598E+02 0.  0.
        -11    1    3    3    0    0  0.35208090753E+02 -0.20241648007E+02 -0.30213276491E+02  0.50617941926E+02  0.00000000000E+00 0.  1.
         11    1    3    3    0    0 -0.48096111901E+02  0.98794364810E+01 -0.61029983948E+02  0.78329420947E+02  0.00000000000E+00 0. -1.
        -13    1    4    4    0    0  0.12622050819E+01  0.55966585297E+02 -0.56086524617E+02  0.79243612203E+02  0.00000000000E+00 0. -1.
         13    1    4    4    0    0 -0.26925692262E+02 -0.29425856048E+02 -0.71262880644E+02  0.81665611279E+02  0.00000000000E+00 0.  1.
         21    1    1    2  502  501  0.38551508327E+02 -0.16178517723E+02 -0.67797265674E+02  0.79651945757E+02  0.00000000000E+00 0.  1.
<scales pt_clust_5="13000.00000" pt_clust_6="13000.00000" pt_clust_7="13000.00000" pt_clust_8="13000.00000" pt_clust_9="41.80865"></scales>
<clustering>
<clus scale="   41.809">  2  9  1 -1</clus>
<clus scale="   89.603">  5  6 -1 -1</clus>
<clus scale="   91.164">  7  8 -1 -1</clus>
<clus scale="   91.350">  1  5  2 -1</clus>
<clus scale="   41.809">  2  5  1 -1</clus>
</clustering>
</event>
<event>
 9    1  0.2423659E-006  0.2118156E+03  0.7546771E-02  0.1167761E+00
          3   -1    0    0  502    0  0.00000000000E+00  0.00000000000E+00  0.49788296307E+03  0.49788296307E+03  0.00000000000E+00 0. -1.
         -3   -1    0    0    0  501 -0.00000000000E+00 -0.00000000000E+00 -0.16432314904E+03  0.16432314904E+03  0.00000000000E+00 0.  1.
         23    2    1    2    0    0  0.47085739558E+02  0.25818626887E+02  0.37706714277E+02  0.11682124332E+03  0.96652667964E+02 0.  0.
         23    2    1    2    0    0 -0.19252978072E+03  0.89609651792E+02  0.48499926194E+02  0.23609334112E+03  0.91050627243E+02 0.  0.
        -13    1    4    4    0    0 -0.15850520531E+03  0.99107246056E+02  0.15214823388E+02  0.18755702382E+03  0.00000000000E+00 0.  1.
         13    1    4    4    0    0 -0.34024575404E+02 -0.94975942640E+01  0.33285102806E+02  0.48536317300E+02  0.00000000000E+00 0. -1.
        -13    1    3    3    0    0 -0.14372714075E+02  0.20521580181E+02 -0.20223556266E+02  0.32197863144E+02  0.00000000000E+00 0.  1.
         13    1    3    3    0    0  0.61458453633E+02  0.52970467061E+01  0.57930270543E+02  0.84623380173E+02  0.00000000000E+00 0. -1.
         21    1    1    2  502  501  0.14544404116E+03 -0.11542827868E+03  0.24735317356E+03  0.30929152768E+03  0.00000000000E+00 0. -1.
<scales pt_clust_5="13000.00000" pt_clust_6="13000.00000" pt_clust_7="13000.00000" pt_clust_8="13000.00000" pt_clust_9="191.24752"></scales>
<clustering>
<clus scale="   91.051">  5  6 -1 -1</clus>
<clus scale="   96.653">  7  8 -1 -1</clus>
<clus scale="  110.569">  2  7  1 -1</clus>
<clus scale="  191.248">  1  9  2 -1</clus>
<clus scale="  191.248">  1  5  2 -1</clus>
</clustering>
</event>
<event>
 9    1  0.2423659E-006  0.2302939E+03  0.7546771E-02  0.1150750E+00
          1   -1    0    0  502    0  0.00000000000E+00  0.00000000000E+00  0.32552358583E+03  0.32552358583E+03  0.00000000000E+00 0. -1.
         -1   -1    0    0    0  501 -0.00000000000E+00 -0.00000000000E+00 -0.28068346517E+03  0.28068346517E+03  0.00000000000E+00 0.  1.
         23    2    1    2    0    0  0.31227880728E+02 -0.14803008944E+03  0.12761264474E+03  0.21842187725E+03  0.92385288060E+02 0.  0.
         23    2    1    2    0    0  0.39036044107E+02 -0.79883304903E+02  0.17447215274E+02  0.12908548181E+03  0.91942923338E+02 0.  0.
        -11    1    4    4    0    0  0.67419813679E+01 -0.90583630298E+02  0.25051401971E+02  0.94225374138E+02  0.00000000000E+00 0.  1.
         11    1    4    4    0    0  0.32294062739E+02  0.10700325395E+02 -0.76041866964E+01  0.34860107674E+02  0.00000000000E+00 0. -1.
        -13    1    3    3    0    0 -0.27050157621E+02 -0.68310933882E+02  0.80570198855E+02  0.10903967929E+03  0.00000000000E+00 0. -1.
         13    1    3    3    0    0  0.58278038349E+02 -0.79719155560E+02  0.47042445880E+02  0.10938219796E+03  0.00000000000E+00 0.  1.
         21    1    1    2  502  501 -0.70263924835E+02  0.22791339435E+03 -0.10021973935E+03  0.25869969194E+03  0.00000000000E+00 0.  1.
<scales pt_clust_5="13000.00000" pt_clust_6="13000.00000" pt_clust_7="13000.00000" pt_clust_8="13000.00000" pt_clust_9="210.95076"></scales>
<clustering>
<clus scale="   91.943">  5  6 -1 -1</clus>
<clus scale="   92.385">  7  8 -1 -1</clus>
<clus scale="  127.901">  1  5  2 -1</clus>
<clus scale="  210.951">  2  9  1 -1</clus>
<clus scale="  127.901">  1  5  2 -1</clus>
</clustering>
</event>
<event>
 9    1  0.2423659E-006  0.1365720E+03  0.7546771E-02  0.1231742E+00
         -1   -1    0    0    0  501 -0.00000000000E+00  0.00000000000E+00  0.64642009808E+02  0.64642009808E+02  0.00000000000E+00 0.  1.
          1   -1    0    0  502    0  0.00000000000E+00 -0.00000000000E+00 -0.61455631325E+03  0.61455631325E+03  0.00000000000E+00 0. -1.
         23    2    1    2    0    0 -0.21104081470E+02 -0.43737122681E+02 -0.12263101710E+03  0.15990309551E+03  0.90400859746E+02 0.  0.
         23    2    1    2    0    0 -0.92046899255E+02  0.39053665493E+02 -0.36653167661E+03  0.39078126996E+03  0.91469724722E+02 0.  0.
        -13    1    4    4    0    0  0.26526720413E+01  0.35993263083E+02 -0.60806396488E+02  0.70710462523E+02  0.00000000000E+00 0.  1.
         13    1    4    4    0    0 -0.94699571296E+02  0.30604024102E+01 -0.30572528013E+03  0.32007080744E+03  0.00000000000E+00 0. -1.
        -13    1    3    3    0    0  0.21747974057E+02  0.11868085026E+02 -0.90468785670E+01  0.26375591549E+02  0.00000000000E+00 0.  1.
         13    1    3    3    0    0 -0.42852055527E+02 -0.55605207707E+02 -0.11358413854E+03  0.13352750396E+03  0.00000000000E+00 0. -1.
         21    1    1    2  502  501  0.11315098072E+03  0.46834571880E+01 -0.60751609725E+02  0.12851395759E+03  0.00000000000E+00 0.  1.
<scales pt_clust_5="13000.00000" pt_clust_6="13000.00000" pt_clust_7="13000.00000" pt_clust_8="13000.00000" pt_clust_9="101.41604"></scales>
<clustering>
<clus scale="   90.401">  7  8 -1 -1</clus>
<clus scale="   91.470">  5  6 -1 -1</clus>
<clus scale="  102.619">  1  7  2 -1</clus>
<clus scale="  101.416">  1  9  2 -1</clus>
<clus scale="  136.572">  2  5  1 -1</clus>
</clustering>
</event>
<event>
 9    1  0.2423659E-006  0.9754736E+02  0.7546771E-02  0.1287975E+00
          2   -1    0    0  502    0  0.00000000000E+00  0.00000000000E+00  0.13130003888E+03  0.13130003888E+03  0.00000000000E+00 0. -1.
         -2   -1    0    0    0  501 -0.00000000000E+00 -0.00000000000E+00 -0.10676274046E+03  0.10676274046E+03  0.00000000000E+00 0.  1.
         23    2    1    2    0    0  0.12161302242E+02 -0.24518282998E+02 -0.28682143366E+02  0.97510472616E+02  0.89087504446E+02 0.  0.
         23    2    1    2    0    0 -0.35467306120E+02  0.70696731267E+01  0.35568311370E+02  0.10650548297E+03  0.93650430044E+02 0.  0.
        -11    1    4    4    0    0  0.99853815194E+01 -0.34299200097E+02  0.26278160065E+02  0.44347318609E+02  0.00000000000E+00 0. -1.
         11    1    4    4    0    0 -0.45452687639E+02  0.41368873224E+02  0.92901513052E+01  0.62158164361E+02  0.00000000000E+00 0.  1.
        -13    1    3    3    0    0  0.44436554326E+02 -0.10294147121E+02  0.83480032074E+01  0.46370960556E+02  0.00000000000E+00 0. -1.
         13    1    3    3    0    0 -0.32275252084E+02 -0.14224135877E+02 -0.37030146574E+02  0.51139512061E+02  0.00000000000E+00 0.  1.
         21    1    1    2  502  501  0.23306003877E+02  0.17448609871E+02  0.17651130413E+02  0.34046823758E+02  0.00000000000E+00 0. -1.
<scales pt_clust_5="13000.00000" pt_clust_6="13000.00000" pt_clust_7="13000.00000" pt_clust_8="13000.00000" pt_clust_9="29.11398"></scales>
<clustering>
<clus scale="   29.114">  1  9  2 -1</clus>
<clus scale="   89.088">  7  8 -1 -1</clus>
<clus scale="   93.175">  2  7  1 -1</clus>
<clus scale="   93.650">  5  6 -1 -1</clus>
<clus scale="   29.114">  1  5  2 -1</clus>
</clustering>
</event>
<event>
 9    1  0.2423659E-006  0.1000273E+03  0.7546771E-02  0.1280259E+00
          1   -1    0    0  502    0  0.00000000000E+00  0.00000000000E+00  0.46744411139E+03  0.46744411139E+03  0.00000000000E+00 0. -1.
         -1   -1    0    0    0  501 -0.00000000000E+00 -0.00000000000E+00 -0.38657142875E+02  0.38657142875E+02  0.00000000000E+00 0.  1.
         23    2    1    2    0    0 -0.56019957369E+02 -0.19863560958E+02  0.11283143342E+03  0.15665948915E+03  0.90986078583E+02 0.  0.
         23    2    1    2    0    0  0.15561189630E+02 -0.16502952119E+02  0.22007740695E+03  0.23920542530E+03  0.90943237182E+02 0.  0.
        -11    1    4    4    0    0 -0.32433230984E+02  0.65015549987E+01  0.42690699183E+02  0.54006300431E+02  0.00000000000E+00 0.  1.
         11    1    4    4    0    0  0.47994420615E+02 -0.23004507118E+02  0.17738670777E+03  0.18519912487E+03  0.00000000000E+00 0. -1.
        -13    1    3    3    0    0 -0.67426485467E+02  0.22155945806E+01  0.37178013894E+02  0.77028855105E+02  0.00000000000E+00 0.  1.
         13    1    3    3    0    0  0.11406528098E+02 -0.22079155538E+02  0.75653419528E+02  0.79630634047E+02  0.00000000000E+00 0. -1.
         21    1    1    2  502  501  0.40458767739E+02  0.36366513077E+02  0.95878128141E+02  0.11023633982E+03  0.00000000000E+00 0. -1.
<scales pt_clust_5="13000.00000" pt_clust_6="13000.00000" pt_clust_7="13000.00000" pt_clust_8="13000.00000" pt_clust_9="54.40069"></scales>
<clustering>
<clus scale="   54.401">  1  9  2 -1</clus>
<clus scale="   90.943">  5  6 -1 -1</clus>
<clus scale="   90.986">  7  8 -1 -1</clus>
<clus scale="   99.988">  1  5  2 -1</clus>
<clus scale="   54.401">  1  5  2 -1</clus>
</clustering>
</event>
<event>
 9    1  0.2423659E-006  0.1156502E+03  0.7546771E-02  0.1250729E+00
         -3   -1    0    0    0  501 -0.00000000000E+00  0.00000000000E+00  0.65620092077E+02  0.65620092077E+02  0.00000000000E+00 0.  1.
          3   -1    0    0  502    0  0.00000000000E+00 -0.00000000000E+00 -0.58336417470E+03  0.58336417470E+03  0.00000000000E+00 0. -1.
         23    2    1    2    0    0  0.43007525765E+02  0.69096076401E+02 -0.30830422406E+03  0.33212426029E+03  0.92903792450E+02 0.  0.
         23    2    1    2    0    0 -0.32854284667E+02 -0.46642788028E+02 -0.24826460115E+03  0.27087523618E+03  0.92103896185E+02 0.  0.
        -13    1    4    4    0    0  0.30077299569E+02 -0.30022979447E+02 -0.11404834730E+03  0.12170886889E+03  0.00000000000E+00 0. -1.
         13    1    4    4    0    0 -0.62931584237E+02 -0.16619808581E+02 -0.13421625386E+03  0.14916636729E+03  0.00000000000E+00 0.  1.
        -13    1    3    3    0    0  0.44165716541E+02 -0.72768384712E+01 -0.14672957941E+03  0.15340512497E+03  0.00000000000E+00 0. -1.
         13    1    3    3    0    0 -0.11581907760E+01  0.76372914872E+02 -0.16157464466E+03  0.17871913532E+03  0.00000000000E+00 0.  1.
         21    1    1    2  502  501 -0.10153241097E+02 -0.22453288373E+02  0.38824742590E+02  0.45984770313E+02  0.00000000000E+00 0. -1.
<scales pt_clust_5="13000.00000" pt_clust_6="13000.00000" pt_clust_7="13000.00000" pt_clust_8="13000.00000" pt_clust_9="24.64221"></scales>
<clustering>
<clus scale="   24.642">  1  9  2 -1</clus>
<clus scale="   92.104">  5  6 -1 -1</clus>
<clus scale="   92.904">  7  8 -1 -1</clus>
<clus scale="  115.009">  2  5  1 -1</clus>
<clus scale="  115.009">  2  5  1 -1</clus>
</clustering>
</event>
<event>
 9    1  0.2423659E-006  0.1504135E+03  0.7546771E-02  0.1200085E+00
         -2   -1    0    0    0  501 -0.00000000000E+00  0.00000000000E+00  0.72795400021E+02  0.72795400021E+02  0.00000000000E+00 0.  1.
          2   -1    0    0  502    0  0.00000000000E+00 -0.00000000000E+00 -0.40921385722E+03  0.40921385722E+03  0.00000000000E+00 0. -1.
         23    2    1    2    0    0  0.80529718124E+02  0.10960540279E+03 -0.11911945440E+03  0.20258543083E+03  0.91394926257E+02 0.  0.
         23    2    1    2    0    0 -0.52013321298E+02 -0.97535145429E+02 -0.19213821877E+03  0.23952469041E+03  0.90755121158E+02 0.  0.
        -11    1    3    3    0    0  0.53829448396E+02  0.31039066205E+01 -0.43310202726E+02  0.69159362425E+02  0.00000000000E+00 0.  1.
         11    1    3    3    0    0  0.26700269728E+02  0.10650149617E+03 -0.75809251671E+02  0.13342606840E+03  0.00000000000E+00 0. -1.
        -13    1    4    4    0    0 -0.40893583037E+02 -0.26062715386E+02 -0.19356048291E+02  0.52213091005E+02  0.00000000000E+00 0.  1.
         13    1    4    4    0    0 -0.11119738261E+02 -0.71472430042E+02 -0.17278217048E+03  0.18731159940E+03  0.00000000000E+00 0. -1.
         21    1    1    2  502  501 -0.28516396827E+02 -0.12070257365E+02 -0.25160784028E+02  0.39899136002E+02  0.00000000000E+00 0. -1.
<scales pt_clust_5="13000.00000" pt_clust_6="13000.00000" pt_clust_7="13000.00000" pt_clust_8="13000.00000" pt_clust_9="30.96572"></scales>
<clustering>
<clus scale="   30.966">  1  9  2 -1</clus>
<clus scale="   90.755">  7  8 -1 -1</clus>
<clus scale="   91.395">  5  6 -1 -1</clus>
<clus scale="  150.026">  2  7  1 -1</clus>
<clus scale="  150.026">  2  5  1 -1</clus>
</clustering>
</event>
<event>
 9    1  0.2423659E-006  0.1365657E+03  0.7546771E-02  0.1233309E+00
         -2   -1    0    0    0  501 -0.00000000000E+00  0.00000000000E+00  0.75041549670E+02  0.75041549670E+02  0.00000000000E+00 0.  1.
          2   -1    0    0  502    0  0.00000000000E+00 -0.00000000000E+00 -0.53977650988E+03  0.53977650988E+03  0.00000000000E+00 0. -1.
         23    2    1    2    0    0 -0.16938387261E+02 -0.33278552066E+02 -0.29267916181E+02  0.10359826370E+03  0.92095702040E+02 0.  0.
         23    2    1    2    0    0 -0.79901222438E+02  0.66701791447E+02 -0.35507859945E+03  0.38099950188E+03  0.90810100313E+02 0.  0.
        -11    1    3    3    0    0  0.32040420260E+02  0.95892209719E+01 -0.36260515926E+01  0.33640599570E+02  0.00000000000E+00 0. -1.
         11    1    3    3    0    0 -0.48978807521E+02 -0.42867773038E+02 -0.25641864588E+02  0.69957664133E+02  0.00000000000E+00 0.  1.
        -13    1    4    4    0    0 -0.32893026118E+02 -0.26722739228E+01 -0.27761733466E+02  0.43125468811E+02  0.00000000000E+00 0.  1.
         13    1    4    4    0    0 -0.47008196320E+02  0.69374065370E+02 -0.32731686598E+03  0.33787403307E+03  0.00000000000E+00 0. -1.
         21    1    1    2  502  501  0.96839609700E+02 -0.33423239381E+02 -0.80388444577E+02  0.13022029396E+03  0.00000000000E+00 0.  1.
<scales pt_clust_5="13000.00000" pt_clust_6="13000.00000" pt_clust_7="13000.00000" pt_clust_8="13000.00000" pt_clust_9="101.99858"></scales>
<clustering>
<clus scale="   90.810">  7  8 -1 -1</clus>
<clus scale="   92.096">  5  6 -1 -1</clus>
<clus scale="   99.378">  1  5  2 -1</clus>
<clus scale="  101.999">  1  9  2 -1</clus>
<clus scale="  136.566">  2  5  1 -1</clus>
</clustering>
</event>
<event>
 9    1  0.2423659E-006  0.1034994E+03  0.7546771E-02  0.1273751E+00
          2   -1    0    0  502    0  0.00000000000E+00  0.00000000000E+00  0.19073858858E+03  0.19073858858E+03  0.00000000000E+00 0. -1.
         -2   -1    0    0    0  501 -0.00000000000E+00 -0.00000000000E+00 -0.16414091625E+03  0.16414091625E+03  0.00000000000E+00 0.  1.
         23    2    1    2    0    0 -0.53651443588E+02  0.55635786396E+02 -0.51517229074E+02  0.12853007133E+03  0.88837695928E+02 0.  0.
         23    2    1    2    0    0  0.39323680868E+02  0.20155244922E+02 -0.19013651028E+02  0.10231911096E+03  0.90305568862E+02 0.  0.
        -13    1    3    3    0    0 -0.55926934277E+02  0.75830817462E+02 -0.29886638996E+02  0.98850119095E+02  0.00000000000E+00 0.  1.
         13    1    3    3    0    0  0.22754906890E+01 -0.20195031066E+02 -0.21630590078E+02  0.29679952236E+02  0.00000000000E+00 0. -1.
        -13    1    4    4    0    0 -0.26291083931E+02  0.60872591034E+01 -0.22481012214E+02  0.35123663360E+02  0.00000000000E+00 0.  1.
         13    1    4    4    0    0  0.65614764799E+02  0.14067985819E+02  0.34673611858E+01  0.67195447600E+02  0.00000000000E+00 0. -1.
         21    1    1    2  502  501  0.14327762720E+02 -0.75791031318E+02  0.97128552429E+02  0.12403032254E+03  0.00000000000E+00 0.  1.
<scales pt_clust_5="13000.00000" pt_clust_6="13000.00000" pt_clust_7="13000.00000" pt_clust_8="13000.00000" pt_clust_9="77.13342"></scales>
<clustering>
<clus scale="   77.133">  1  9  2 -1</clus>
<clus scale="   88.838">  5  6 -1 -1</clus>
<clus scale="   90.306">  7  8 -1 -1</clus>
<clus scale="  102.221">  2  5  1 -1</clus>
<clus scale="   77.133">  1  5  2 -1</clus>
</clustering>
</event>
<event>
 9    1  0.2423659E-006  0.1808142E+03  0.7546771E-02  0.1195887E+00
          1   -1    0    0  502    0  0.00000000000E+00  0.00000000000E+00  0.31519401689E+03  0.31519401689E+03  0.00000000000E+00 0. -1.
         -1   -1    0    0    0  501 -0.00000000000E+00 -0.00000000000E+00 -0.39497605638E+03  0.39497605638E+03  0.00000000000E+00 0.  1.
         23    2    1    2    0    0  0.69593822787E+01  0.23538339105E+02 -0.27871248251E+03  0.29434093250E+03  0.91397211294E+02 0.  0.
         23    2    1    2    0    0  0.15280304069E+03 -0.54045482172E+01  0.18030587979E+03  0.25396580174E+03  0.92792455426E+02 0.  0.
        -13    1    4    4    0    0  0.15301238949E+03  0.18872801236E+02  0.16133575886E+03  0.22315510537E+03  0.00000000000E+00 0. -1.
         13    1    4    4    0    0 -0.20934879835E+00 -0.24277349453E+02  0.18970120928E+02  0.30810696380E+02  0.00000000000E+00 0.  1.
        -13    1    3    3    0    0 -0.30533085763E+02  0.40570704499E+02 -0.18768039153E+03  0.19442782917E+03  0.00000000000E+00 0. -1.
         13    1    3    3    0    0  0.37492468041E+02 -0.17032365394E+02 -0.91032090979E+02  0.99913103338E+02  0.00000000000E+00 0.  1.
         21    1    1    2  502  501 -0.15976242297E+03 -0.18133790888E+02  0.18624563230E+02  0.16186333903E+03  0.00000000000E+00 0.  1.
<scales pt_clust_5="13000.00000" pt_clust_6="13000.00000" pt_clust_7="13000.00000" pt_clust_8="13000.00000" pt_clust_9="155.18808"></scales>
<clustering>
<clus scale="   91.397">  7  8 -1 -1</clus>
<clus scale="   92.792">  5  6 -1 -1</clus>
<clus scale="   94.636">  2  7  1 -1</clus>
<clus scale="  155.188">  2  9  1 -1</clus>
<clus scale="  180.814">  1  5  2 -1</clus>
</clustering>
</event>
<event>
 9    1  0.2423659E-006  0.1218078E+03  0.7546771E-02  0.1241473E+00
         -1   -1    0    0    0  501 -0.00000000000E+00  0.00000000000E+00  0.70106756953E+02  0.70106756953E+02  0.00000000000E+00 0.  1.
          1   -1    0    0  502    0  0.00000000000E+00 -0.00000000000E+00 -0.45246807467E+03  0.45246807467E+03  0.00000000000E+00 0. -1.
         23    2    1    2    0    0  0.85114814531E+02  0.52849498885E+02 -0.14507844279E+03  0.20004378704E+03  0.94510110494E+02 0.  0.
         23    2    1    2    0    0 -0.24453264636E+02 -0.67527170108E+02 -0.23296533545E+03  0.25996988398E+03  0.90297354343E+02 0.  0.
        -11    1    4    4    0    0 -0.15055880921E+02  0.16009235137E+02 -0.10204466832E+03  0.10438433548E+03  0.00000000000E+00 0.  1.
         11    1    4    4    0    0 -0.93973837145E+01 -0.83536405245E+02 -0.13092066713E+03  0.15558554851E+03  0.00000000000E+00 0. -1.
        -11    1    3    3    0    0  0.45421824937E+02  0.48078813448E+02 -0.20557921648E+02  0.69262851701E+02  0.00000000000E+00 0.  1.
         11    1    3    3    0    0  0.39692989594E+02  0.47706854375E+01 -0.12452052115E+03  0.13078093534E+03  0.00000000000E+00 0. -1.
         21    1    1    2  502  501 -0.60661549895E+02  0.14677671223E+02 -0.43175394689E+01  0.62561160597E+02  0.00000000000E+00 0.  1.
<scales pt_clust_5="13000.00000" pt_clust_6="13000.00000" pt_clust_7="13000.00000" pt_clust_8="13000.00000" pt_clust_9="62.41200"></scales>
<clustering>
<clus scale="   62.412">  1  9  2 -1</clus>
<clus scale="   90.297">  5  6 -1 -1</clus>
<clus scale="   94.510">  7  8 -1 -1</clus>
<clus scale="  118.569">  2  5  1 -1</clus>
<clus scale="  118.569">  2  5  1 -1</clus>
</clustering>
</event>
<event>
 9    1  0.2423659E-006  0.1496707E+03  0.7546771E-02  0.1213835E+00
         -1   -1    0    0    0  501 -0.00000000000E+00  0.00000000000E+00  0.10746745117E+03  0.10746745117E+03  0.00000000000E+00 0.  1.
          1   -1    0    0  502    0  0.00000000000E+00 -0.00000000000E+00 -0.65403443406E+03  0.65403443406E+03  0.00000000000E+00 0. -1.
         23    2    1    2    0    0  0.58246786535E+02 -0.69999388093E+02  0.45788171535E+01  0.11344757223E+03  0.67503952501E+02 0.  0.
         23    2    1    2    0    0  0.75645000855E+02  0.90679313746E+02 -0.46142816058E+03  0.48556146735E+03  0.94387960589E+02 0.  0.
        -11    1    4    4    0    0  0.85328175930E+02  0.43304681903E+02 -0.36953457387E+03  0.38172240485E+03  0.00000000000E+00 0. -1.
         11    1    4    4    0    0 -0.96831750756E+01  0.47374631843E+02 -0.91893586708E+02  0.10383906250E+03  0.00000000000E+00 0.  1.
        -11    1    3    3    0    0  0.46124418607E+02 -0.20751451188E+02 -0.23173064726E+02  0.55633404058E+02  0.00000000000E+00 0.  1.
         11    1    3    3    0    0  0.12122367928E+02 -0.49247936905E+02  0.27751881880E+02  0.57814168172E+02  0.00000000000E+00 0. -1.
         21    1    1    2  502  501 -0.13389178739E+03 -0.20679925653E+02 -0.89717639463E+02  0.16249284565E+03  0.00000000000E+00 0.  1.
<scales pt_clust_5="13000.00000" pt_clust_6="13000.00000" pt_clust_7="13000.00000" pt_clust_8="13000.00000" pt_clust_9="116.15608"></scales>
<clustering>
<clus scale="   67.504">  7  8 -1 -1</clus>
<clus scale="   94.388">  5  6 -1 -1</clus>
<clus scale="  113.355">  1  7  2 -1</clus>
<clus scale="  116.156">  1  9  2 -1</clus>
<clus scale="  149.671">  2  5  1 -1</clus>
</clustering>
</event>
<event>
 9    1  0.2423659E-006  0.2439315E+03  0.7546771E-02  0.1143305E+00
         -2   -1    0    0    0  501 -0.00000000000E+00  0.00000000000E+00  0.16670630419E+03  0.16670630419E+03  0.00000000000E+00 0.  1.
          2   -1    0    0  502    0  0.00000000000E+00 -0.00000000000E+00 -0.17958833196E+04  0.17958833196E+04  0.00000000000E+00 0. -1.
         23    2    1    2    0    0 -0.50577243337E+02 -0.28163314222E+03 -0.13739677657E+04  0.14063824999E+04  0.90824173372E+02 0.  0.
         23    2    1    2    0    0  0.72284302701E+02  0.59544791241E+02 -0.30200186445E+03  0.32820716593E+03  0.88001221908E+02 0.  0.
        -11    1    3    3    0    0 -0.54353570519E+02 -0.89314959031E+02 -0.58767265064E+03  0.59690084339E+03  0.00000000000E+00 0.  1.
         11    1    3    3    0    0  0.37763271818E+01 -0.19231818319E+03 -0.78629511504E+03  0.80948165648E+03  0.00000000000E+00 0. -1.
        -11    1    4    4    0    0  0.82409716515E+02  0.18920947873E+02 -0.22814147195E+03  0.24330617516E+03  0.00000000000E+00 0.  1.
         11    1    4    4    0    0 -0.10125413815E+02  0.40623843367E+02 -0.73860392493E+02  0.84900990772E+02  0.00000000000E+00 0. -1.
         21    1    1    2  502  501 -0.21707059363E+02  0.22208835098E+03  0.46792614686E+02  0.22799995802E+03  0.00000000000E+00 0.  1.
<scales pt_clust_5="13000.00000" pt_clust_6="13000.00000" pt_clust_7="13000.00000" pt_clust_8="13000.00000" pt_clust_9="226.39245"></scales>
<clustering>
<clus scale="   88.001">  7  8 -1 -1</clus>
<clus scale="   90.824">  5  6 -1 -1</clus>
<clus scale="  128.510">  2  7  1 -1</clus>
<clus scale="  226.392">  1  9  2 -1</clus>
<clus scale="  128.510">  2  5  1 -1</clus>
</clustering>
</event>
<event>
 9    1  0.2423659E-006  0.1105714E+03  0.7546771E-02  0.1271149E+00
         -2   -1    0    0    0  501 -0.00000000000E+00  0.00000000000E+00  0.98170036256E+02  0.98170036256E+02  0.00000000000E+00 0.  1.
          2   -1    0    0  502    0  0.00000000000E+00 -0.00000000000E+00 -0.16394191486E+03  0.16394191486E+03  0.00000000000E+00 0. -1.
         23    2    1    2    0    0  0.14196741769E+00  0.64469350279E+02 -0.34129704835E+02  0.10421610495E+03  0.74430118220E+02 0.  0.
         23    2    1    2    0    0 -0.11195474067E+02 -0.30365111986E+02 -0.51372318995E+02  0.11697448611E+03  0.99982681384E+02 0.  0.
        -11    1    4    4    0    0 -0.47677811218E+02  0.10521066207E+02 -0.33975709462E+02  0.59482899645E+02  0.00000000000E+00 0.  1.
         11    1    4    4    0    0  0.36482337151E+02 -0.40886178194E+02 -0.17396609533E+02  0.57491586467E+02  0.00000000000E+00 0. -1.
        -11    1    3    3    0    0  0.94372318166E+01  0.38569804349E+02 -0.56289631766E+02  0.68885512238E+02  0.00000000000E+00 0. -1.
         11    1    3    3    0    0 -0.92952643989E+01  0.25899545930E+02  0.22159926932E+02  0.35330592710E+02  0.00000000000E+00 0.  1.
         21    1    1    2  502  501  0.11053506649E+02 -0.34104238292E+02  0.19730145221E+02  0.40921360060E+02  0.00000000000E+00 0.  1.
<scales pt_clust_5="13000.00000" pt_clust_6="13000.00000" pt_clust_7="13000.00000" pt_clust_8="13000.00000" pt_clust_9="35.85079"></scales>
<clustering>
<clus scale="   35.851">  1  9  2 -1</clus>
<clus scale="   74.430">  7  8 -1 -1</clus>
<clus scale="   88.144">  1  7  2 -1</clus>
<clus scale="   99.983">  5  6 -1 -1</clus>
<clus scale="  110.571">  2  5  1 -1</clus>
</clustering>
</event>
<event>
 9    1  0.2423659E-006  0.1487091E+03  0.7546771E-02  0.1215622E+00
         -2   -1    0    0    0  501 -0.00000000000E+00  0.00000000000E+00  0.18129037204E+03  0.18129037204E+03  0.00000000000E+00 0.  1.
          2   -1    0    0  502    0  0.00000000000E+00 -0.00000000000E+00 -0.26683547700E+03  0.26683547700E+03  0.00000000000E+00 0. -1.
         23    2    1    2    0    0 -0.43098298129E+02  0.46788445160E+02  0.67839094194E+02  0.13032228080E+03  0.91296945568E+02 0.  0.
         23    2    1    2    0    0 -0.59328520249E+02  0.41702888486E+02 -0.82477233303E+01  0.11934307879E+03  0.94423203148E+02 0.  0.
        -11    1    3    3    0    0 -0.13603128634E+02  0.29364034777E+02  0.85758348565E+02  0.91661256786E+02  0.00000000000E+00 0.  1.
         11    1    3    3    0    0 -0.29495169495E+02  0.17424410383E+02 -0.17919254371E+02  0.38661024015E+02  0.00000000000E+00 0. -1.
        -13    1    4    4    0    0 -0.77192896958E+02  0.10550544738E+02  0.10861867408E+02  0.78664080104E+02  0.00000000000E+00 0.  1.
         13    1    4    4    0    0  0.17864376708E+02  0.31152343748E+02 -0.19109590739E+02  0.40678998690E+02  0.00000000000E+00 0. -1.
         21    1    1    2  502  501  0.10242681838E+03 -0.88491333646E+02 -0.14513647583E+03  0.19846048944E+03  0.00000000000E+00 0. -1.
<scales pt_clust_5="13000.00000" pt_clust_6="13000.00000" pt_clust_7="13000.00000" pt_clust_8="13000.00000" pt_clust_9="114.88545"></scales>
<clustering>
<clus scale="   91.297">  5  6 -1 -1</clus>
<clus scale="   94.423">  7  8 -1 -1</clus>
<clus scale="  111.273">  1  5  2 -1</clus>
<clus scale="  114.885">  2  9  1 -1</clus>
<clus scale="  114.885">  2  5  1 -1</clus>
</clustering>
</event>
<event>
 9    1  0.2423659E-006  0.1726501E+03  0.7546771E-02  0.1202935E+00
         -1   -1    0    0    0  501 -0.00000000000E+00  0.00000000000E+00  0.32935798299E+03  0.32935798299E+03  0.00000000000E+00 0.  1.
          1   -1    0    0  502    0  0.00000000000E+00 -0.00000000000E+00 -0.17101870302E+03  0.17101870302E+03  0.00000000000E+00 0. -1.
         23    2    1    2    0    0 -0.15023337656E+02  0.24270415441E+01  0.40700496411E+02  0.10175752434E+03  0.92013434599E+02 0.  0.
         23    2    1    2    0    0  0.11125015385E+03 -0.10338452330E+03 -0.48163066187E+02  0.18195752073E+03  0.87885732721E+02 0.  0.
        -13    1    3    3    0    0  0.23302813087E+02  0.21367603593E+02  0.48896876781E+02  0.58228001340E+02  0.00000000000E+00 0. -1.
         13    1    3    3    0    0 -0.38326150743E+02 -0.18940562049E+02 -0.81963803701E+01  0.43529523001E+02  0.00000000000E+00 0.  1.
        -13    1    4    4    0    0  0.30610498487E+02 -0.87231821982E+02 -0.16925198749E+02  0.93983273706E+02  0.00000000000E+00 0.  1.
         13    1    4    4    0    0  0.80639655364E+02 -0.16152701316E+02 -0.31237867438E+02  0.87974247022E+02  0.00000000000E+00 0. -1.
         21    1    1    2  502  501 -0.96226816194E+02  0.10095748175E+03  0.16580184975E+03  0.21666164095E+03  0.00000000000E+00 0.  1.
<scales pt_clust_5="13000.00000" pt_clust_6="13000.00000" pt_clust_7="13000.00000" pt_clust_8="13000.00000" pt_clust_9="148.60738"></scales>
<clustering>
<clus scale="   87.886">  7  8 -1 -1</clus>
<clus scale="   92.013">  5  6 -1 -1</clus>
<clus scale="   93.263">  1  5  2 -1</clus>
<clus scale="  148.607">  1  9  2 -1</clus>
<clus scale="  172.650">  2  5  1 -1</clus>
</clustering>
</event>
<event>
 9    1  0.2423659E-006  0.1733181E+03  0.7546771E-02  0.1187321E+00
          1   -1    0    0  502    0  0.00000000000E+00  0.00000000000E+00  0.81704469033E+03  0.81704469033E+03  0.00000000000E+00 0. -1.
         -1   -1    0    0    0  501 -0.00000000000E+00 -0.00000000000E+00 -0.14934408043E+03  0.14934408043E+03  0.00000000000E+00 0.  1.
         23    2    1    2    0    0  0.10719598865E+02 -0.88479207725E+02 -0.12601631467E+02  0.13038755341E+03  0.94332565796E+02 0.  0.
         23    2    1    2    0    0  0.64014759537E+02  0.20676304587E+03  0.13004354379E+03  0.26823284472E+03  0.90491375983E+02 0.  0.
        -11    1    3    3    0    0 -0.29556304517E+02 -0.27858082575E+01  0.12836512879E+02  0.32343653585E+02  0.00000000000E+00 0.  1.
         11    1    3    3    0    0  0.40275903382E+02 -0.85693399468E+02 -0.25438144346E+02  0.98043899827E+02  0.00000000000E+00 0. -1.
        -11    1    4    4    0    0  0.26680203955E+02  0.12694478402E+02  0.43268277391E+02  0.52393958558E+02  0.00000000000E+00 0. -1.
         11    1    4    4    0    0  0.37334555583E+02  0.19406856747E+03  0.86775266404E+02  0.21583888616E+03  0.00000000000E+00 0.  1.
         21    1    1    2  502  501 -0.74734358402E+02 -0.11828383815E+03  0.55025869757E+03  0.56776837262E+03  0.00000000000E+00 0. -1.
<scales pt_clust_5="13000.00000" pt_clust_6="13000.00000" pt_clust_7="13000.00000" pt_clust_8="13000.00000" pt_clust_9="147.81905"></scales>
<clustering>
<clus scale="   90.491">  7  8 -1 -1</clus>
<clus scale="   94.333">  5  6 -1 -1</clus>
<clus scale="  129.777">  2  5  1 -1</clus>
<clus scale="  147.819">  1  9  2 -1</clus>
<clus scale="  147.819">  1  5  2 -1</clus>
</clustering>
</event>
<event>
 9    1  0.2423659E-006  0.1002426E+03  0.7546771E-02  0.1281732E+00
          1   -1    0    0  502    0  0.00000000000E+00  0.00000000000E+00  0.35557482985E+03  0.35557482985E+03  0.00000000000E+00 0. -1.
         -1   -1    0    0    0  501 -0.00000000000E+00 -0.00000000000E+00 -0.99880730144E+02  0.99880730144E+02  0.00000000000E+00 0.  1.
         23    2    1    2    0    0  0.13363520211E+02 -0.25521181973E+02 -0.49176675804E+02  0.10752888694E+03  0.91182244339E+02 0.  0.
         23    2    1    2    0    0 -0.60058856001E+02  0.33001983346E+02  0.24549606890E+03  0.27202033235E+03  0.95029175919E+02 0.  0.
        -11    1    4    4    0    0 -0.52402948985E+02 -0.24655673674E+02  0.14094678931E+03  0.15238099856E+03  0.00000000000E+00 0. -1.
         11    1    4    4    0    0 -0.76559070164E+01  0.57657657020E+02  0.10454927960E+03  0.11963933379E+03  0.00000000000E+00 0.  1.
        -11    1    3    3    0    0 -0.33812471000E+02 -0.14156508764E+02 -0.46111842265E+02  0.58906637424E+02  0.00000000000E+00 0.  1.
         11    1    3    3    0    0  0.47175991211E+02 -0.11364673209E+02 -0.30648335390E+01  0.48622249521E+02  0.00000000000E+00 0. -1.
         21    1    1    2  502  501  0.46695335790E+02 -0.74808013734E+01  0.59374706609E+02  0.75906340701E+02  0.00000000000E+00 0.  1.
<scales pt_clust_5="13000.00000" pt_clust_6="13000.00000" pt_clust_7="13000.00000" pt_clust_8="13000.00000" pt_clust_9="47.29077"></scales>
<clustering>
<clus scale="   47.291">  1  9  2 -1</clus>
<clus scale="   91.182">  7  8 -1 -1</clus>
<clus scale="   95.029">  5  6 -1 -1</clus>
<clus scale="   96.603">  2  7  1 -1</clus>
<clus scale="   47.291">  1  5  2 -1</clus>
</clustering>
</event>
<event>
 9    1  0.2423659E-006  0.3677259E+03  0.7546771E-02  0.1104589E+00
         -1   -1    0    0    0  501 -0.00000000000E+00  0.00000000000E+00  0.30005614832E+03  0.30005614832E+03  0.00000000000E+00 0.  1.
          1   -1    0    0  502    0  0.00000000000E+00 -0.00000000000E+00 -0.89511228656E+03  0.89511228656E+03  0.00000000000E+00 0. -1.
         23    2    1    2    0    0  0.33354028290E+03 -0.11624823275E+03  0.80454438251E+02  0.37361571929E+03  0.91394841937E+02 0.  0.
         23    2    1    2    0    0  0.24787589391E+02  0.27331625504E+02 -0.15325692312E+03  0.18197949416E+03  0.90925296095E+02 0.  0.
        -11    1    3    3    0    0  0.13963266756E+03 -0.31309287398E+01  0.19701672280E+02  0.14105048903E+03  0.00000000000E+00 0.  1.
         11    1    3    3    0    0  0.19390761533E+03 -0.11311730401E+03  0.60752765971E+02  0.23256523026E+03  0.00000000000E+00 0. -1.
        -13    1    4    4    0    0  0.59181383617E+02  0.21373868069E+02 -0.91650655994E+02  0.11117158426E+03  0.00000000000E+00 0. -1.
         13    1    4    4    0    0 -0.34393794227E+02  0.59577574343E+01 -0.61606267129E+02  0.70807909901E+02  0.00000000000E+00 0.  1.
         21    1    1    2  502  501 -0.35832787229E+03  0.88916607247E+02 -0.52225365337E+03  0.63957322142E+03  0.00000000000E+00 0.  1.
<scales pt_clust_5="13000.00000" pt_clust_6="13000.00000" pt_clust_7="13000.00000" pt_clust_8="13000.00000" pt_clust_9="356.18723"></scales>
<clustering>
<clus scale="   90.925">  7  8 -1 -1</clus>
<clus scale="   91.395">  5  6 -1 -1</clus>
<clus scale="   98.127">  2  7  1 -1</clus>
<clus scale="  356.187">  2  9  1 -1</clus>
<clus scale="   98.127">  2  5  1 -1</clus>
</clustering>
</event>
<event>
 9    1  0.2423659E-006  0.1290794E+03  0.7546771E-02  0.1233711E+00
          2   -1    0    0  502    0  0.00000000000E+00  0.00000000000E+00  0.67576840447E+03  0.67576840447E+03  0.00000000000E+00 0. -1.
         -2   -1    0    0    0  501 -0.00000000000E+00 -0.00000000000E+00 -0.81502516660E+02  0.81502516660E+02  0.00000000000E+00 0.  1.
         23    2    1    2    0    0 -0.73701893353E+02  0.39401375727E+02  0.84128022675E+02  0.14926501500E+03  0.90653643114E+02 0.  0.
         23    2    1    2    0    0  0.45001846339E+02 -0.56827809899E+02  0.54480046189E+03  0.55974755016E+03  0.10609057680E+03 0.  0.
        -11    1    3    3    0    0 -0.73737498241E+01  0.51607146866E+02  0.55064835894E+02  0.75827474876E+02  0.00000000000E+00 0. -1.
         11    1    3    3    0    0 -0.66328143528E+02 -0.12205771139E+02  0.29063186782E+02  0.73437540120E+02  0.00000000000E+00 0.  1.
        -11    1    4    4    0    0 -0.14373016164E+02 -0.64616458160E+02  0.23163176799E+03  0.24090484885E+03  0.00000000000E+00 0.  1.
         11    1    4    4    0    0  0.59374862503E+02  0.77886482607E+01  0.31316869390E+03  0.31884270131E+03  0.00000000000E+00 0. -1.
         21    1    1    2  502  501  0.28700047014E+02  0.17426434172E+02 -0.34662596759E+02  0.48258355967E+02  0.00000000000E+00 0.  1.
<scales pt_clust_5="13000.00000" pt_clust_6="13000.00000" pt_clust_7="13000.00000" pt_clust_8="13000.00000" pt_clust_9="33.57638"></scales>
<clustering>
<clus scale="   33.576">  2  9  1 -1</clus>
<clus scale="   90.654">  5  6 -1 -1</clus>
<clus scale="  106.091">  7  8 -1 -1</clus>
<clus scale="  116.723">  2  5  1 -1</clus>
<clus scale="  129.079">  1  5  2 -1</clus>
</clustering>
</event>
<event>
 9    1  0.2423659E-006  0.1046453E+03  0.7546771E-02  0.1270848E+00
         -1   -1    0    0    0  501 -0.00000000000E+00  0.00000000000E+00  0.58823623236E+03  0.58823623236E+03  0.00000000000E+00 0.  1.
          1   -1    0    0  502    0  0.00000000000E+00 -0.00000000000E+00 -0.38042430321E+02  0.38042430321E+02  0.00000000000E+00 0. -1.
         23    2    1    2    0    0  0.50544339136E+01  0.19556470205E+02  0.36139686301E+03  0.37365007439E+03  0.92729082110E+02 0.  0.
         23    2    1    2    0    0  0.29252878312E+02 -0.50692811490E+02  0.84411402018E+02  0.13842349314E+03  0.92791630210E+02 0.  0.
        -11    1    4    4    0    0 -0.13932873108E+02  0.21478830071E+02  0.19739058072E+02  0.32327936956E+02  0.00000000000E+00 0.  1.
         11    1    4    4    0    0  0.43185751419E+02 -0.72171641560E+02  0.64672343946E+02  0.10609555619E+03  0.00000000000E+00 0. -1.
        -11    1    3    3    0    0 -0.30109957040E+02  0.43106030684E+02  0.20116167051E+03  0.20792007377E+03  0.00000000000E+00 0.  1.
         11    1    3    3    0    0  0.35164390953E+02 -0.23549560478E+02  0.16023519250E+03  0.16573000062E+03  0.00000000000E+00 0. -1.
         21    1    1    2  502  501 -0.34307312225E+02  0.31136341284E+02  0.10438553701E+03  0.11420509515E+03  0.00000000000E+00 0.  1.
<scales pt_clust_5="13000.00000" pt_clust_6="13000.00000" pt_clust_7="13000.00000" pt_clust_8="13000.00000" pt_clust_9="46.32994"></scales>
<clustering>
<clus scale="   46.330">  1  9  2 -1</clus>
<clus scale="   92.729">  7  8 -1 -1</clus>
<clus scale="   92.792">  5  6 -1 -1</clus>
<clus scale="  104.590">  1  7  2 -1</clus>
<clus scale="  104.645">  2  5  1 -1</clus>
</clustering>
</event>
<event>
 9    1  0.2423659E-006  0.1311466E+03  0.7546771E-02  0.1226356E+00
         -1   -1    0    0    0  501 -0.00000000000E+00  0.00000000000E+00  0.60313397760E+03  0.60313397760E+03  0.00000000000E+00 0.  1.
          1   -1    0    0  502    0  0.00000000000E+00 -0.00000000000E+00 -0.10874581775E+03  0.10874581775E+03  0.00000000000E+00 0. -1.
         23    2    1    2    0    0  0.29920724515E+02  0.93192190975E+02  0.52525714627E+03  0.54250691774E+03  0.94014104682E+02 0.  0.
         23    2    1    2    0    0  0.76645612000E+01 -0.43411586048E+02 -0.32827214346E+02  0.10696617134E+03  0.91765050581E+02 0.  0.
        -11    1    3    3    0    0 -0.19261694834E+02  0.14614550101E+02  0.29429196622E+02  0.38087735249E+02  0.00000000000E+00 0. -1.
         11    1    3    3    0    0  0.49182419349E+02  0.78577640874E+02  0.49582794965E+03  0.50441918250E+03  0.00000000000E+00 0.  1.
        -13    1    4    4    0    0 -0.24747374642E+02  0.14361247881E+02 -0.28804783387E+02  0.40600413031E+02  0.00000000000E+00 0.  1.
         13    1    4    4    0    0  0.32411935842E+02 -0.57772833929E+02 -0.40224309598E+01  0.66365758310E+02  0.00000000000E+00 0. -1.
         21    1    1    2  502  501 -0.37585285715E+02 -0.49780604927E+02  0.19582279279E+01  0.62406706256E+02  0.00000000000E+00 0. -1.
<scales pt_clust_5="13000.00000" pt_clust_6="13000.00000" pt_clust_7="13000.00000" pt_clust_8="13000.00000" pt_clust_9="62.37598"></scales>
<clustering>
<clus scale="   62.376">  2  9  1 -1</clus>
<clus scale="   91.765">  7  8 -1 -1</clus>
<clus scale="   94.014">  5  6 -1 -1</clus>
<clus scale="  129.544">  2  7  1 -1</clus>
<clus scale="   62.376">  2  5  1 -1</clus>
</clustering>
</event>
<event>
 9    1  0.2423659E-006  0.1111574E+03  0.7546771E-02  0.1263497E+00
          2   -1    0    0  502    0  0.00000000000E+00  0.00000000000E+00  0.28900710765E+03  0.28900710765E+03  0.00000000000E+00 0. -1.
         -2   -1    0    0    0  501 -0.00000000000E+00 -0.00000000000E+00 -0.10479654022E+03  0.10479654022E+03  0.00000000000E+00 0.  1.
         23    2    1    2    0    0 -0.87365094991E+01  0.58159113167E+01 -0.30092386210E+02  0.10830397227E+03  0.10350868215E+03 0.  0.
         23    2    1    2    0    0 -0.39894335473E+02 -0.27426433839E+02  0.20711637653E+03  0.23180032126E+03  0.92143519751E+02 0.  0.
        -11    1    4    4    0    0  0.20589085639E+02  0.14399399771E+02  0.90597603951E+02  0.94016908069E+02  0.00000000000E+00 0.  1.
         11    1    4    4    0    0 -0.60483421111E+02 -0.41825833610E+02  0.11651877258E+03  0.13778341319E+03  0.00000000000E+00 0. -1.
        -13    1    3    3    0    0 -0.51603024857E+02 -0.13376288487E+02 -0.15226227769E+01  0.53330250779E+02  0.00000000000E+00 0. -1.
         13    1    3    3    0    0  0.42866515358E+02  0.19192199803E+02 -0.28569763433E+02  0.54973721493E+02  0.00000000000E+00 0.  1.
         21    1    1    2  502  501  0.48630844972E+02  0.21610522522E+02  0.71865771029E+01  0.53699354343E+02  0.00000000000E+00 0.  1.
<scales pt_clust_5="13000.00000" pt_clust_6="13000.00000" pt_clust_7="13000.00000" pt_clust_8="13000.00000" pt_clust_9="53.21629"></scales>
<clustering>
<clus scale="   53.216">  2  9  1 -1</clus>
<clus scale="   92.144">  5  6 -1 -1</clus>
<clus scale="  100.660">  1  5  2 -1</clus>
<clus scale="  103.509">  7  8 -1 -1</clus>
<clus scale="  100.660">  1  5  2 -1</clus>
</clustering>
</event>
<event>
 9    1  0.2423659E-006  0.2175989E+03  0.7546771E-02  0.1154424E+00
          2   -1    0    0  502    0  0.00000000000E+00  0.00000000000E+00  0.90900436415E+03  0.90900436415E+03  0.00000000000E+00 0. -1.
         -2   -1    0    0    0  501 -0.00000000000E+00 -0.00000000000E+00 -0.16069247625E+03  0.16069247625E+03  0.00000000000E+00 0.  1.
         23    2    1    2    0    0 -0.94292707561E+02 -0.42989895134E+02 -0.49772426836E+02  0.14767475828E+03  0.92689233341E+02 0.  0.
         23    2    1    2    0    0 -0.10887394084E+03  0.12725288773E+03  0.15890963090E+03  0.24606260448E+03  0.85133437041E+02 0.  0.
        -11    1    4    4    0    0 -0.51205229082E+02  0.11553755896E+03  0.88412837360E+02  0.15423272294E+03  0.00000000000E+00 0. -1.
         11    1    4    4    0    0 -0.57668711757E+02  0.11715328763E+02  0.70496793536E+02  0.91829881534E+02  0.00000000000E+00 0.  1.
        -13    1    3    3    0    0 -0.50903241136E+02  0.26265055764E+02 -0.19005444643E+02  0.60350642403E+02  0.00000000000E+00 0. -1.
         13    1    3    3    0    0 -0.43389466426E+02 -0.69254950898E+02 -0.30766982193E+02  0.87324115877E+02  0.00000000000E+00 0.  1.
         21    1    1    2  502  501  0.20316664840E+03 -0.84262992592E+02  0.63917468384E+03  0.67595947763E+03  0.00000000000E+00 0. -1.
<scales pt_clust_5="13000.00000" pt_clust_6="13000.00000" pt_clust_7="13000.00000" pt_clust_8="13000.00000" pt_clust_9="200.25375"></scales>
<clustering>
<clus scale="   85.133">  5  6 -1 -1</clus>
<clus scale="   92.689">  7  8 -1 -1</clus>
<clus scale="  139.034">  2  7  1 -1</clus>
<clus scale="  200.254">  1  9  2 -1</clus>
<clus scale="  200.254">  1  5  2 -1</clus>
</clustering>
</event>
<event>
 9    1  0.2423659E-006  0.1626219E+03  0.7546771E-02  0.1186960E+00
         -1   -1    0    0    0  501 -0.00000000000E+00  0.00000000000E+00  0.56025866678E+03  0.56025866678E+03  0.00000000000E+00 0.  1.
          1   -1    0    0  502    0  0.00000000000E+00 -0.00000000000E+00 -0.34495352593E+03  0.34495352593E+03  0.00000000000E+00 0. -1.
         23    2    1    2    0    0 -0.18304886881E+03 -0.14674598542E+03  0.27527624373E+03  0.37295150137E+03  0.90964495273E+02 0.  0.
         23    2    1    2    0    0  0.26830964879E+02  0.12073856340E+03 -0.24284351006E+03  0.29034596088E+03  0.10015041313E+03 0.  0.
        -13    1    3    3    0    0 -0.16867102888E+03 -0.10620138470E+03  0.18064192690E+03  0.26899843094E+03  0.00000000000E+00 0.  1.
         13    1    3    3    0    0 -0.14377839929E+02 -0.40544600719E+02  0.94634316829E+02  0.10395307042E+03  0.00000000000E+00 0. -1.
        -13    1    4    4    0    0 -0.15533432206E+02  0.64796619099E+02 -0.19325612256E+03  0.20442068944E+03  0.00000000000E+00 0. -1.
         13    1    4    4    0    0  0.42364397085E+02  0.55941944304E+02 -0.49587387501E+02  0.85925271441E+02  0.00000000000E+00 0.  1.
         21    1    1    2  502  501  0.15621790393E+03  0.26007422012E+02  0.18287240718E+03  0.24191473046E+03  0.00000000000E+00 0.  1.
<scales pt_clust_5="13000.00000" pt_clust_6="13000.00000" pt_clust_7="13000.00000" pt_clust_8="13000.00000" pt_clust_9="158.36799"></scales>
<clustering>
<clus scale="   90.964">  5  6 -1 -1</clus>
<clus scale="  100.150">  7  8 -1 -1</clus>
<clus scale="  158.368">  1  9  2 -1</clus>
<clus scale="  158.368">  1  5  2 -1</clus>
<clus scale="  162.622">  2  5  1 -1</clus>
</clustering>
</event>
<event>
 9    1  0.2423659E-006  0.1040533E+03  0.7546771E-02  0.1273968E+00
          3   -1    0    0  502    0  0.00000000000E+00  0.00000000000E+00  0.68007694775E+03  0.68007694775E+03  0.00000000000E+00 0. -1.
         -3   -1    0    0    0  501 -0.00000000000E+00 -0.00000000000E+00 -0.25269134756E+02  0.25269134756E+02  0.00000000000E+00 0.  1.
         23    2    1    2    0    0  0.17538581883E+02 -0.13600274657E-01  0.19022272740E+03  0.21345448976E+03  0.95239336111E+02 0.  0.
         23    2    1    2    0    0 -0.50075505674E+02 -0.30683728285E+02  0.39151170710E+03  0.40621373075E+03  0.90989729112E+02 0.  0.
        -11    1    4    4    0    0  0.22012952062E+02 -0.23813735703E+02  0.78503004600E+02  0.84937540569E+02  0.00000000000E+00 0.  1.
         11    1    4    4    0    0 -0.72088457737E+02 -0.68699925817E+01  0.31300870250E+03  0.32127619018E+03  0.00000000000E+00 0. -1.
        -11    1    3    3    0    0 -0.33430918060E+02  0.93471060539E+01  0.12725287514E+03  0.13190257353E+03  0.00000000000E+00 0. -1.
         11    1    3    3    0    0  0.50969499943E+02 -0.93607063286E+01  0.62969852260E+02  0.81551916231E+02  0.00000000000E+00 0.  1.
         21    1    1    2  502  501  0.32536923791E+02  0.30697328559E+02  0.73073378501E+02  0.85677861995E+02  0.00000000000E+00 0. -1.
<scales pt_clust_5="13000.00000" pt_clust_6="13000.00000" pt_clust_7="13000.00000" pt_clust_8="13000.00000" pt_clust_9="44.73229"></scales>
<clustering>
<clus scale="   44.732">  2  9  1 -1</clus>
<clus scale="   90.990">  5  6 -1 -1</clus>
<clus scale="   95.239">  7  8 -1 -1</clus>
<clus scale="  100.178">  1  5  2 -1</clus>
<clus scale="  100.178">  1  5  2 -1</clus>
</clustering>
</event>
<event>
 9    1  0.2423659E-006  0.9843107E+02  0.7546771E-02  0.1284259E+00
         -1   -1    0    0    0  501 -0.00000000000E+00  0.00000000000E+00  0.16766015335E+03  0.16766015335E+03  0.00000000000E+00 0.  1.
          1   -1    0    0  502    0  0.00000000000E+00 -0.00000000000E+00 -0.84571675651E+02  0.84571675651E+02  0.00000000000E+00 0. -1.
         23    2    1    2    0    0 -0.50454020520E+00  0.33071968736E+02  0.46886472415E+02  0.10755425935E+03  0.90970147472E+02 0.  0.
         23    2    1    2    0    0 -0.28002756547E+02 -0.28236626043E+02  0.27485384931E+01  0.10046014156E+03  0.92212928343E+02 0.  0.
        -11    1    4    4    0    0  0.11642424321E+02 -0.17095269833E+02  0.39935494389E+02  0.44973747974E+02  0.00000000000E+00 0.  1.
         11    1    4    4    0    0 -0.39645180868E+02 -0.11141356209E+02 -0.37186955895E+02  0.55486393585E+02  0.00000000000E+00 0. -1.
        -11    1    3    3    0    0  0.18923738414E+02 -0.79343352111E+01 -0.18725881811E+02  0.27779852419E+02  0.00000000000E+00 0. -1.
         11    1    3    3    0    0 -0.19428278619E+02  0.41006303947E+02  0.65612354226E+02  0.79774406927E+02  0.00000000000E+00 0.  1.
         21    1    1    2  502  501  0.28507296752E+02 -0.48353426937E+01  0.33453466792E+02  0.44217428096E+02  0.00000000000E+00 0. -1.
<scales pt_clust_5="13000.00000" pt_clust_6="13000.00000" pt_clust_7="13000.00000" pt_clust_8="13000.00000" pt_clust_9="28.91447"></scales>
<clustering>
<clus scale="   28.914">  1  9  2 -1</clus>
<clus scale="   90.970">  7  8 -1 -1</clus>
<clus scale="   92.213">  5  6 -1 -1</clus>
<clus scale="   97.268">  1  7  2 -1</clus>
<clus scale="   98.431">  2  5  1 -1</clus>
</clustering>
</event>
<event>
 9    1  0.2423659E-006  0.9418300E+02  0.7546771E-02  0.1293273E+00
          2   -1    0    0  502    0  0.00000000000E+00  0.00000000000E+00  0.24094918730E+03  0.24094918730E+03  0.00000000000E+00 0. -1.
         -2   -1    0    0    0  501 -0.00000000000E+00 -0.00000000000E+00 -0.28833815251E+03  0.28833815251E+03  0.00000000000E+00 0.  1.
         23    2    1    2    0    0  0.12126815700E+02  0.42472882666E+01 -0.25891318674E+03  0.27506992678E+03  0.91990908438E+02 0.  0.
         23    2    1    2    0    0 -0.71316557791E+00 -0.20757029605E+02  0.21429556582E+03  0.23395603801E+03  0.91550397631E+02 0.  0.
        -11    1    3    3    0    0  0.35927452322E+02  0.34619920284E+02 -0.18600233839E+03  0.19257775209E+03  0.00000000000E+00 0.  1.
         11    1    3    3    0    0 -0.23800636623E+02 -0.30372632018E+02 -0.72910848346E+02  0.82492174695E+02  0.00000000000E+00 0. -1.
        -11    1    4    4    0    0  0.83118314611E+01  0.35457775721E+02  0.95896129035E+02  0.10257878906E+03  0.00000000000E+00 0. -1.
         11    1    4    4    0    0 -0.90249970390E+01 -0.56214805327E+02  0.11839943679E+03  0.13137724895E+03  0.00000000000E+00 0.  1.
         21    1    1    2  502  501 -0.11413650122E+02  0.16509741339E+02 -0.27713442899E+01  0.20261375011E+02  0.00000000000E+00 0.  1.
<scales pt_clust_5="13000.00000" pt_clust_6="13000.00000" pt_clust_7="13000.00000" pt_clust_8="13000.00000" pt_clust_9="20.07095"></scales>
<clustering>
<clus scale="   20.071">  2  9  1 -1</clus>
<clus scale="   91.550">  7  8 -1 -1</clus>
<clus scale="   91.991">  5  6 -1 -1</clus>
<clus scale="   93.753">  1  7  2 -1</clus>
<clus scale="   93.753">  1  5  2 -1</clus>
</clustering>
</event>
<event>
 9    1  0.2423659E-006  0.9285882E+02  0.7546771E-02  0.1296084E+00
         -3   -1    0    0    0  501 -0.00000000000E+00  0.00000000000E+00  0.37852619659E+03  0.37852619659E+03  0.00000000000E+00 0.  1.
          3   -1    0    0  502    0  0.00000000000E+00 -0.00000000000E+00 -0.13280277314E+03  0.13280277314E+03  0.00000000000E+00 0. -1.
         23    2    1    2    0    0 -0.24709187044E+02  0.46131058680E+02  0.18465666852E+02  0.10685896843E+03  0.91319438136E+02 0.  0.
         23    2    1    2    0    0 -0.18819129538E+02 -0.32449516093E+01 -0.59919610284E+02  0.11086350858E+03  0.91299882200E+02 0.  0.
        -11    1    3    3    0    0  0.13334773720E+02 -0.22731396022E+02  0.16246938160E+01  0.26404018354E+02  0.00000000000E+00 0.  1.
         11    1    3    3    0    0 -0.38043960764E+02  0.68862454702E+02  0.16840973036E+02  0.80454950071E+02  0.00000000000E+00 0. -1.
        -11    1    4    4    0    0 -0.28715912249E+02 -0.32350199940E+02  0.29243070934E+00  0.43257653290E+02  0.00000000000E+00 0.  1.
         11    1    4    4    0    0  0.98967827107E+01  0.29105248330E+02 -0.60212040994E+02  0.67605855287E+02  0.00000000000E+00 0. -1.
         21    1    1    2  502  501  0.43528316582E+02 -0.42886107071E+02  0.28717736688E+03  0.29360649272E+03  0.00000000000E+00 0.  1.
<scales pt_clust_5="13000.00000" pt_clust_6="13000.00000" pt_clust_7="13000.00000" pt_clust_8="13000.00000" pt_clust_9="61.10591"></scales>
<clustering>
<clus scale="   61.106">  1  9  2 -1</clus>
<clus scale="   91.300">  7  8 -1 -1</clus>
<clus scale="   91.319">  5  6 -1 -1</clus>
<clus scale="   92.840">  2  7  1 -1</clus>
<clus scale="   92.840">  2  5  1 -1</clus>
</clustering>
</event>
<event>
 9    1  0.2423659E-006  0.1412586E+03  0.7546771E-02  0.1231220E+00
          3   -1    0    0  502    0  0.00000000000E+00  0.00000000000E+00  0.60858623737E+02  0.60858623737E+02  0.00000000000E+00 0. -1.
         -3   -1    0    0    0  501 -0.00000000000E+00 -0.00000000000E+00 -0.71817006481E+03  0.71817006481E+03  0.00000000000E+00 0.  1.
         23    2    1    2    0    0 -0.67663173500E+02 -0.75127698757E+02 -0.39460115536E+03  0.41745524191E+03  0.91303510422E+02 0.  0.
         23    2    1    2    0    0 -0.30740832588E+01 -0.16482421843E+02 -0.24743453327E+02  0.96952232438E+02  0.92230020463E+02 0.  0.
        -11    1    3    3    0    0 -0.10227223475E+02 -0.67712947855E+02 -0.13385924740E+03  0.15035936127E+03  0.00000000000E+00 0.  1.
         11    1    3    3    0    0 -0.57435950025E+02 -0.74147509021E+01 -0.26074190796E+03  0.26709588063E+03  0.00000000000E+00 0. -1.
        -13    1    4    4    0    0  0.26355143698E+00 -0.54896028354E+02 -0.10791260813E+02  0.55947249247E+02  0.00000000000E+00 0.  1.
         13    1    4    4    0    0 -0.33376346957E+01  0.38413606511E+02 -0.13952192514E+02  0.41004983191E+02  0.00000000000E+00 0. -1.
         21    1    1    2  502  501  0.70737256758E+02  0.91610120600E+02 -0.23796683239E+03  0.26462121420E+03  0.00000000000E+00 0.  1.
<scales pt_clust_5="13000.00000" pt_clust_6="13000.00000" pt_clust_7="13000.00000" pt_clust_8="13000.00000" pt_clust_9="107.78521"></scales>
<clustering>
<clus scale="   91.304">  5  6 -1 -1</clus>
<clus scale="   92.230">  7  8 -1 -1</clus>
<clus scale="   93.742">  1  7  2 -1</clus>
<clus scale="  107.785">  1  9  2 -1</clus>
<clus scale="   93.742">  1  5  2 -1</clus>
</clustering>
</event>
<event>
 9    1  0.2423659E-006  0.9467092E+02  0.7546771E-02  0.1292089E+00
          2   -1    0    0  502    0  0.00000000000E+00  0.00000000000E+00  0.11827101124E+04  0.11827101124E+04  0.00000000000E+00 0. -1.
         -2   -1    0    0    0  501 -0.00000000000E+00 -0.00000000000E+00 -0.18330407288E+02  0.18330407288E+02  0.00000000000E+00 0.  1.
         23    2    1    2    0    0 -0.52247259850E+02  0.48739527085E+02  0.52804814376E+03  0.54054976883E+03  0.90850937195E+02 0.  0.
         23    2    1    2    0    0 -0.66037113222E+01  0.10421789385E+02  0.38386974233E+03  0.39459515436E+03  0.90538025553E+02 0.  0.
        -11    1    3    3    0    0  0.22396454132E+02  0.18602384787E+02  0.75912333885E+02  0.81303950171E+02  0.00000000000E+00 0.  1.
         11    1    3    3    0    0 -0.74643713982E+02  0.30137142298E+02  0.45213580988E+03  0.45924581866E+03  0.00000000000E+00 0. -1.
        -13    1    4    4    0    0  0.10454110853E+02 -0.38310232438E+02  0.17213350808E+03  0.17665476769E+03  0.00000000000E+00 0.  1.
         13    1    4    4    0    0 -0.17057822175E+02  0.48732021823E+02  0.21173623426E+03  0.21794038668E+03  0.00000000000E+00 0. -1.
         21    1    1    2  502  501  0.58850971172E+02 -0.59161316470E+02  0.25246181903E+03  0.26589559650E+03  0.00000000000E+00 0.  1.
<scales pt_clust_5="13000.00000" pt_clust_6="13000.00000" pt_clust_7="13000.00000" pt_clust_8="13000.00000" pt_clust_9="83.44758"></scales>
<clustering>
<clus scale="   83.448">  2  9  1 -1</clus>
<clus scale="   90.538">  7  8 -1 -1</clus>
<clus scale="   90.851">  5  6 -1 -1</clus>
<clus scale="   94.371">  1  7  2 -1</clus>
<clus scale="   94.371">  1  5  2 -1</clus>
</clustering>
</event>
<event>
 9    1  0.2423659E-006  0.1477986E+03  0.7546771E-02  0.1208031E+00
         -2   -1    0    0    0  501 -0.00000000000E+00  0.00000000000E+00  0.66521801632E+03  0.66521801632E+03  0.00000000000E+00 0.  1.
          2   -1    0    0  502    0  0.00000000000E+00 -0.00000000000E+00 -0.28624919127E+03  0.28624919127E+03  0.00000000000E+00 0. -1.
         23    2    1    2    0    0 -0.76489966779E+02 -0.59567272298E+02  0.11106416292E+03  0.17344540775E+03  0.91373334399E+02 0.  0.
         23    2    1    2    0    0 -0.29093532149E+02 -0.10725865365E+03 -0.21321218701E+03  0.25797162212E+03  0.93482986340E+02 0.  0.
        -11    1    3    3    0    0  0.64487823866E+01 -0.34382609243E+02  0.68421675291E+02  0.76845795345E+02  0.00000000000E+00 0.  1.
         11    1    3    3    0    0 -0.82938749165E+02 -0.25184663055E+02  0.42642487625E+02  0.96599612407E+02  0.00000000000E+00 0. -1.
        -11    1    4    4    0    0 -0.42056545859E+02 -0.87780588608E+02 -0.90033164257E+02  0.13259017857E+03  0.00000000000E+00 0. -1.
         11    1    4    4    0    0  0.12963013710E+02 -0.19478065045E+02 -0.12317902275E+03  0.12538144355E+03  0.00000000000E+00 0.  1.
         21    1    1    2  502  501  0.10558349893E+03  0.16682592595E+03  0.48111684914E+03  0.52005017772E+03  0.00000000000E+00 0.  1.
<scales pt_clust_5="13000.00000" pt_clust_6="13000.00000" pt_clust_7="13000.00000" pt_clust_8="13000.00000" pt_clust_9="114.47865"></scales>
<clustering>
<clus scale="   91.373">  5  6 -1 -1</clus>
<clus scale="   93.483">  7  8 -1 -1</clus>
<clus scale="  133.222">  1  5  2 -1</clus>
<clus scale="  114.479">  1  9  2 -1</clus>
<clus scale="  147.799">  2  5  1 -1</clus>
</clustering>
</event>
<event>
 9    1  0.2423659E-006  0.1264300E+03  0.7546771E-02  0.1235546E+00
         -1   -1    0    0    0  501 -0.00000000000E+00  0.00000000000E+00  0.27743732187E+03  0.27743732187E+03  0.00000000000E+00 0.  1.
          1   -1    0    0  502    0  0.00000000000E+00 -0.00000000000E+00 -0.90763992340E+02  0.90763992340E+02  0.00000000000E+00 0. -1.
         23    2    1    2    0    0  0.78699323438E+02 -0.21691501060E+02  0.73888287319E+02  0.14980140619E+03  0.10157203141E+03 0.  0.
         23    2    1    2    0    0 -0.40423768839E+02  0.70374066616E+02  0.60959251588E+02  0.13764767683E+03  0.92974524697E+02 0.  0.
        -11    1    3    3    0    0  0.95032362433E+02 -0.34961084987E+02  0.37914737221E+02  0.10812471813E+03  0.00000000000E+00 0.  1.
         11    1    3    3    0    0 -0.16333038995E+02  0.13269583927E+02  0.35973550098E+02  0.41676688053E+02  0.00000000000E+00 0. -1.
        -13    1    4    4    0    0  0.25730821413E+02  0.28897060828E+01  0.13731609016E+01  0.25928963394E+02  0.00000000000E+00 0.  1.
         13    1    4    4    0    0 -0.66154590252E+02  0.67484360534E+02  0.59586090687E+02  0.11171871343E+03  0.00000000000E+00 0. -1.
         21    1    1    2  502  501 -0.38275554599E+02 -0.48682565557E+02  0.51825790620E+02  0.80752231192E+02  0.00000000000E+00 0. -1.
<scales pt_clust_5="13000.00000" pt_clust_6="13000.00000" pt_clust_7="13000.00000" pt_clust_8="13000.00000" pt_clust_9="61.92746"></scales>
<clustering>
<clus scale="   61.927">  1  9  2 -1</clus>
<clus scale="   92.975">  7  8 -1 -1</clus>
<clus scale="  101.572">  5  6 -1 -1</clus>
<clus scale="  119.633">  2  7  1 -1</clus>
<clus scale="  119.633">  2  5  1 -1</clus>
</clustering>
</event>
<event>
 9    1  0.2850473E-006  0.2136110E+03  0.7546771E-02  0.1138756E+00
         -1   -1    0    0    0  501 -0.00000000000E+00  0.00000000000E+00  0.73415369796E+03  0.73415369796E+03  0.00000000000E+00 0.  1.
          1   -1    0    0  502    0  0.00000000000E+00 -0.00000000000E+00 -0.28884126551E+03  0.28884126551E+03  0.00000000000E+00 0. -1.
         23    2    1    2    0    0  0.15050556016E+03  0.11007230839E+03  0.55893147422E+03  0.59641727026E+03  0.92419319826E+02 0.  0.
         23    2    1    2    0    0 -0.25916981731E+03 -0.91667986515E+02 -0.12505640989E+03  0.31577402344E+03  0.92206910095E+02 0.  0.
        -11    1    4    4    0    0 -0.58510843617E+02  0.72717011690E+01 -0.56795968112E+02  0.81866833654E+02  0.00000000000E+00 0.  1.
         11    1    4    4    0    0 -0.20065897370E+03 -0.98939687684E+02 -0.68260441780E+02  0.23390718979E+03  0.00000000000E+00 0. -1.
        -11    1    3    3    0    0  0.55775204436E+02  0.43143474137E+02  0.95623314186E+02  0.11881098858E+03  0.00000000000E+00 0. -1.
         11    1    3    3    0    0  0.94730355728E+02  0.66928834253E+02  0.46330816004E+03  0.47760628169E+03  0.00000000000E+00 0.  1.
         21    1    1    2  502  501  0.10866425715E+03 -0.18404321875E+02  0.11437368122E+02  0.11080366977E+03  0.00000000000E+00 0.  1.
<scales pt_clust_5="13000.00000" pt_clust_6="13000.00000" pt_clust_7="13000.00000" pt_clust_8="13000.00000" pt_clust_9="110.21180"></scales>
<clustering>
<clus scale="   92.207">  5  6 -1 -1</clus>
<clus scale="   92.419">  7  8 -1 -1</clus>
<clus scale="  110.212">  2  9  1 -1</clus>
<clus scale="  213.519">  2  5  1 -1</clus>
<clus scale="  110.212">  2  5  1 -1</clus>
</clustering>
</event>
<event>
 9    1  0.2423659E-006  0.1421285E+03  0.7546771E-02  0.1228283E+00
          3   -1    0    0  502    0  0.00000000000E+00  0.00000000000E+00  0.43967671844E+03  0.43967671844E+03  0.00000000000E+00 0. -1.
         -3   -1    0    0    0  501 -0.00000000000E+00 -0.00000000000E+00 -0.38563816459E+03  0.38563816459E+03  0.00000000000E+00 0.  1.
         23    2    1    2    0    0 -0.10247658632E+03  0.29919976080E+02 -0.11433673935E+03  0.17959819630E+03  0.88238123488E+02 0.  0.
         23    2    1    2    0    0 -0.12194528393E+02 -0.28779023406E+02  0.38682614343E+03  0.39899510216E+03  0.92658985514E+02 0.  0.
        -13    1    3    3    0    0  0.10726195939E+02  0.22580673541E+02 -0.18609430254E+02  0.31164867901E+02  0.00000000000E+00 0.  1.
         13    1    3    3    0    0 -0.11320278226E+03  0.73393025390E+01 -0.95727309091E+02  0.14843332840E+03  0.00000000000E+00 0. -1.
        -13    1    4    4    0    0  0.40374062541E+01  0.27608757403E+02  0.51492498110E+02  0.58566385377E+02  0.00000000000E+00 0.  1.
         13    1    4    4    0    0 -0.16231934647E+02 -0.56387780810E+02  0.33533364532E+03  0.34042871679E+03  0.00000000000E+00 0. -1.
         21    1    1    2  502  501  0.11467111471E+03 -0.11409526740E+01 -0.21845085023E+03  0.24672158457E+03  0.00000000000E+00 0.  1.
<scales pt_clust_5="13000.00000" pt_clust_6="13000.00000" pt_clust_7="13000.00000" pt_clust_8="13000.00000" pt_clust_9="111.42056"></scales>
<clustering>
<clus scale="   88.238">  5  6 -1 -1</clus>
<clus scale="   92.659">  7  8 -1 -1</clus>
<clus scale="   97.789">  1  7  2 -1</clus>
<clus scale="  111.421">  2  9  1 -1</clus>
<clus scale="   97.789">  1  5  2 -1</clus>
</clustering>
</event>
<event>
 9    1  0.2423659E-006  0.1042581E+03  0.7546771E-02  0.1273972E+00
         -2   -1    0    0    0  501 -0.00000000000E+00  0.00000000000E+00  0.59140661636E+02  0.59140661636E+02  0.00000000000E+00 0.  1.
          2   -1    0    0  502    0  0.00000000000E+00 -0.00000000000E+00 -0.34556328402E+03  0.34556328402E+03  0.00000000000E+00 0. -1.
         23    2    1    2    0    0 -0.44318044408E+02  0.17856503980E+02 -0.53060604409E+02  0.11505754689E+03  0.90221214585E+02 0.  0.
         23    2    1    2    0    0  0.22478567560E+02 -0.32415513062E+02 -0.71199485978E+02  0.12537341171E+03  0.95357611509E+02 0.  0.
        -11    1    4    4    0    0 -0.70545891420E+01 -0.46012556730E+02  0.60160343428E+00  0.46554103272E+02  0.00000000000E+00 0.  1.
         11    1    4    4    0    0  0.29533156702E+02  0.13597043668E+02 -0.71801089412E+02  0.78819308435E+02  0.00000000000E+00 0. -1.
        -13    1    3    3    0    0 -0.99598480989E+01 -0.36414222167E+02 -0.22211759948E+02  0.43801329091E+02  0.00000000000E+00 0.  1.
         13    1    3    3    0    0 -0.34358196309E+02  0.54270726147E+02 -0.30848844462E+02  0.71256217797E+02  0.00000000000E+00 0. -1.
         21    1    1    2  502  501  0.21839476848E+02  0.14559009081E+02 -0.16216253200E+03  0.16427298706E+03  0.00000000000E+00 0. -1.
<scales pt_clust_5="13000.00000" pt_clust_6="13000.00000" pt_clust_7="13000.00000" pt_clust_8="13000.00000" pt_clust_9="26.24743"></scales>
<clustering>
<clus scale="   26.247">  2  9  1 -1</clus>
<clus scale="   90.221">  7  8 -1 -1</clus>
<clus scale="   95.358">  5  6 -1 -1</clus>
<clus scale="   99.582">  1  7  2 -1</clus>
<clus scale="   26.247">  2  5  1 -1</clus>
</clustering>
</event>
<event>
 9    1  0.2423659E-006  0.2430009E+03  0.7546771E-02  0.1149402E+00
          1   -1    0    0  502    0  0.00000000000E+00  0.00000000000E+00  0.78019648941E+03  0.78019648941E+03  0.00000000000E+00 0. -1.
         -1   -1    0    0    0  501 -0.00000000000E+00 -0.00000000000E+00 -0.24665384636E+03  0.24665384636E+03  0.00000000000E+00 0.  1.
         23    2    1    2    0    0  0.21251333694E+03 -0.11176710574E+03  0.48083719701E+03  0.54465926168E+03  0.88292111798E+02 0.  0.
         23    2    1    2    0    0  0.87449810148E+01  0.66974244819E+02  0.18797614420E+03  0.21901849681E+03  0.89844571326E+02 0.  0.
        -13    1    3    3    0    0  0.13607230440E+03 -0.80703890700E+02  0.39543843594E+03  0.42591119570E+03  0.00000000000E+00 0.  1.
         13    1    3    3    0    0  0.76441032531E+02 -0.31063215043E+02  0.85398761071E+02  0.11874806599E+03  0.00000000000E+00 0. -1.
        -13    1    4    4    0    0 -0.22321363731E+02  0.18762232472E+02  0.81637457495E+01  0.30280544757E+02  0.00000000000E+00 0. -1.
         13    1    4    4    0    0  0.31066344746E+02  0.48212012348E+02  0.17981239845E+03  0.18873795205E+03  0.00000000000E+00 0.  1.
         21    1    1    2  502  501 -0.22125831795E+03  0.44792860923E+02 -0.13527069816E+03  0.26317257728E+03  0.00000000000E+00 0.  1.
<scales pt_clust_5="13000.00000" pt_clust_6="13000.00000" pt_clust_7="13000.00000" pt_clust_8="13000.00000" pt_clust_9="226.39337"></scales>
<clustering>
<clus scale="   88.292">  5  6 -1 -1</clus>
<clus scale="   89.845">  7  8 -1 -1</clus>
<clus scale="  112.401">  1  7  2 -1</clus>
<clus scale="  226.393">  2  9  1 -1</clus>
<clus scale="  112.401">  1  5  2 -1</clus>
</clustering>
</event>
<event>
 9    1  0.2423659E-006  0.9204240E+02  0.7546771E-02  0.1298543E+00
         -1   -1    0    0    0  501 -0.00000000000E+00  0.00000000000E+00  0.23894313862E+03  0.23894313862E+03  0.00000000000E+00 0.  1.
          1   -1    0    0  502    0  0.00000000000E+00 -0.00000000000E+00 -0.78940498334E+02  0.78940498334E+02  0.00000000000E+00 0. -1.
         23    2    1    2    0    0  0.55809543173E+02 -0.82360942543E+01  0.79818695138E+02  0.13269852053E+03  0.89751517538E+02 0.  0.
         23    2    1    2    0    0 -0.43394082712E+00 -0.17743812294E+02  0.84665337627E+01  0.90925899495E+02  0.88773902841E+02 0.  0.
        -11    1    3    3    0    0  0.74745505696E+02 -0.20904237418E+02  0.41227073750E+02  0.87883726444E+02  0.00000000000E+00 0.  1.
         11    1    3    3    0    0 -0.18935962523E+02  0.12668143163E+02  0.38591621388E+02  0.44814794089E+02  0.00000000000E+00 0. -1.
        -13    1    4    4    0    0  0.32903104148E+02  0.11612997341E+02  0.25641348656E+02  0.43300747462E+02  0.00000000000E+00 0.  1.
         13    1    4    4    0    0 -0.33337044975E+02 -0.29356809635E+02 -0.17174814894E+02  0.47625152034E+02  0.00000000000E+00 0. -1.
         21    1    1    2  502  501 -0.55375602346E+02  0.25979906548E+02  0.71717411382E+02  0.94259216922E+02  0.00000000000E+00 0. -1.
<scales pt_clust_5="13000.00000" pt_clust_6="13000.00000" pt_clust_7="13000.00000" pt_clust_8="13000.00000" pt_clust_9="61.16709"></scales>
<clustering>
<clus scale="   61.167">  1  9  2 -1</clus>
<clus scale="   88.774">  7  8 -1 -1</clus>
<clus scale="   89.752">  5  6 -1 -1</clus>
<clus scale="   91.089">  2  7  1 -1</clus>
<clus scale="   91.089">  2  5  1 -1</clus>
</clustering>
</event>
<event>
 9    1  0.2423659E-006  0.1217218E+03  0.7546771E-02  0.1240830E+00
         -2   -1    0    0    0  501 -0.00000000000E+00  0.00000000000E+00  0.36110614692E+02  0.36110614692E+02  0.00000000000E+00 0.  1.
          2   -1    0    0  502    0  0.00000000000E+00 -0.00000000000E+00 -0.57085433663E+03  0.57085433663E+03  0.00000000000E+00 0. -1.
         23    2    1    2    0    0  0.53274655524E+02 -0.83834837785E+02 -0.21338425499E+03  0.25270454753E+03  0.91979775599E+02 0.  0.
         23    2    1    2    0    0 -0.26122856511E+02  0.63611249032E+02 -0.26869610473E+03  0.29165334786E+03  0.90195809136E+02 0.  0.
        -13    1    3    3    0    0  0.42018288443E+02  0.78346995103E+01 -0.75169246082E+02  0.86471582827E+02  0.00000000000E+00 0.  1.
         13    1    3    3    0    0  0.11256367081E+02 -0.91669537295E+02 -0.13821500891E+03  0.16623296471E+03  0.00000000000E+00 0. -1.
        -13    1    4    4    0    0  0.13401636002E+02  0.57798721175E+02 -0.22391461806E+03  0.23164207778E+03  0.00000000000E+00 0. -1.
         13    1    4    4    0    0 -0.39524492513E+02  0.58125278572E+01 -0.44781486671E+02  0.60011270082E+02  0.00000000000E+00 0.  1.
         21    1    1    2  502  501 -0.27151799013E+02  0.20223588753E+02 -0.52663362216E+02  0.62607055925E+02  0.00000000000E+00 0.  1.
<scales pt_clust_5="13000.00000" pt_clust_6="13000.00000" pt_clust_7="13000.00000" pt_clust_8="13000.00000" pt_clust_9="33.85578"></scales>
<clustering>
<clus scale="   33.856">  1  9  2 -1</clus>
<clus scale="   90.196">  7  8 -1 -1</clus>
<clus scale="   91.980">  5  6 -1 -1</clus>
<clus scale="  120.379">  2  7  1 -1</clus>
<clus scale="  120.379">  2  5  1 -1</clus>
</clustering>
</event>
<event>
 9    1  0.2423659E-006  0.1844870E+03  0.7546771E-02  0.1164965E+00
          1   -1    0    0  502    0  0.00000000000E+00  0.00000000000E+00  0.94605482696E+03  0.94605482696E+03  0.00000000000E+00 0. -1.
         -1   -1    0    0    0  501 -0.00000000000E+00 -0.00000000000E+00 -0.80642374597E+02  0.80642374597E+02  0.00000000000E+00 0.  1.
         23    2    1    2    0    0 -0.10539424671E+03 -0.46182047093E+02  0.17218956330E+03  0.22676244359E+03  0.92364665312E+02 0.  0.
         23    2    1    2    0    0  0.10326855820E+03  0.15139665728E+03  0.65497643422E+03  0.68796411871E+03  0.10351403914E+03 0.  0.
        -11    1    3    3    0    0 -0.78619553593E+01 -0.48064254965E+02  0.43674749167E+02  0.65417632655E+02  0.00000000000E+00 0. -1.
         11    1    3    3    0    0 -0.97532291352E+02  0.18822078718E+01  0.12851481413E+03  0.16134481093E+03  0.00000000000E+00 0.  1.
        -11    1    4    4    0    0  0.25325277342E+02  0.11111067115E+02  0.23123157533E+02  0.36048660157E+02  0.00000000000E+00 0.  1.
         11    1    4    4    0    0  0.77943280863E+02  0.14028559017E+03  0.63185327669E+03  0.65191545855E+03  0.00000000000E+00 0. -1.
         21    1    1    2  502  501  0.21256885071E+01 -0.10521461019E+03  0.38246454846E+02  0.11197063926E+03  0.00000000000E+00 0.  1.
<scales pt_clust_5="13000.00000" pt_clust_6="13000.00000" pt_clust_7="13000.00000" pt_clust_8="13000.00000" pt_clust_9="105.23608"></scales>
<clustering>
<clus scale="   92.365">  5  6 -1 -1</clus>
<clus scale="  103.514">  7  8 -1 -1</clus>
<clus scale="  105.236">  2  9  1 -1</clus>
<clus scale="  178.470">  2  5  1 -1</clus>
<clus scale="  184.487">  1  5  2 -1</clus>
</clustering>
</event>
<event>
 9    1  0.2423659E-006  0.1298920E+03  0.7546771E-02  0.1228986E+00
         -4   -1    0    0    0  501 -0.00000000000E+00  0.00000000000E+00  0.79529006080E+03  0.79529006080E+03  0.00000000000E+00 0.  1.
          4   -1    0    0  502    0  0.00000000000E+00 -0.00000000000E+00 -0.37549344188E+02  0.37549344188E+02  0.00000000000E+00 0. -1.
         23    2    1    2    0    0 -0.84647747413E+02 -0.80051915748E+02  0.30240065710E+03  0.33494802969E+03  0.84678656228E+02 0.  0.
         23    2    1    2    0    0  0.85029584117E+02  0.24990121868E+01  0.27988645753E+03  0.30606185437E+03  0.90006412869E+02 0.  0.
        -11    1    3    3    0    0 -0.59406734694E+02 -0.70695843568E+02  0.29172177381E+03  0.30598799934E+03  0.00000000000E+00 0.  1.
         11    1    3    3    0    0 -0.25241012720E+02 -0.93560721801E+01  0.10678883298E+02  0.28960030356E+02  0.00000000000E+00 0. -1.
        -13    1    4    4    0    0 -0.77595218146E+00 -0.25152854219E+02  0.11907202710E+03  0.12170216027E+03  0.00000000000E+00 0. -1.
         13    1    4    4    0    0  0.85805536298E+02  0.27651866406E+02  0.16081443043E+03  0.18435969410E+03  0.00000000000E+00 0.  1.
         21    1    1    2  502  501 -0.38183670364E+00  0.77552903561E+02  0.17545360198E+03  0.19182952092E+03  0.00000000000E+00 0. -1.
<scales pt_clust_5="13000.00000" pt_clust_6="13000.00000" pt_clust_7="13000.00000" pt_clust_8="13000.00000" pt_clust_9="77.55384"></scales>
<clustering>
<clus scale="   77.554">  1  9  2 -1</clus>
<clus scale="   84.679">  5  6 -1 -1</clus>
<clus scale="   90.006">  7  8 -1 -1</clus>
<clus scale="  126.259">  1  5  2 -1</clus>
<clus scale="  129.892">  2  5  1 -1</clus>
</clustering>
</event>
<event>
 9    1  0.2423659E-006  0.1083455E+03  0.7546771E-02  0.1264462E+00
         -2   -1    0    0    0  501 -0.00000000000E+00  0.00000000000E+00  0.56444279729E+02  0.56444279729E+02  0.00000000000E+00 0.  1.
          2   -1    0    0  502    0  0.00000000000E+00 -0.00000000000E+00 -0.36189498926E+03  0.36189498926E+03  0.00000000000E+00 0. -1.
         23    2    1    2    0    0 -0.26349520103E+02  0.83477991950E+02 -0.12555037705E+03  0.17682800856E+03  0.88557185380E+02 0.  0.
         23    2    1    2    0    0 -0.11922777448E+02 -0.44233707196E+02 -0.14329125262E+03  0.17559383198E+03  0.90565099662E+02 0.  0.
        -11    1    4    4    0    0 -0.27248620276E+02  0.20767346154E+02 -0.40972480602E+02  0.53408933147E+02  0.00000000000E+00 0.  1.
         11    1    4    4    0    0  0.15325842828E+02 -0.65001053350E+02 -0.10231877202E+03  0.12218489883E+03  0.00000000000E+00 0. -1.
        -13    1    3    3    0    0  0.24034192800E+02  0.13054032371E+02 -0.66813867649E+02  0.72195173626E+02  0.00000000000E+00 0. -1.
         13    1    3    3    0    0 -0.50383712903E+02  0.70423959579E+02 -0.58736509404E+02  0.10463283493E+03  0.00000000000E+00 0.  1.
         21    1    1    2  502  501  0.38272297551E+02 -0.39244284754E+02 -0.36609079854E+02  0.65917428450E+02  0.00000000000E+00 0. -1.
<scales pt_clust_5="13000.00000" pt_clust_6="13000.00000" pt_clust_7="13000.00000" pt_clust_8="13000.00000" pt_clust_9="54.81681"></scales>
<clustering>
<clus scale="   54.817">  1  9  2 -1</clus>
<clus scale="   88.557">  7  8 -1 -1</clus>
<clus scale="   90.565">  5  6 -1 -1</clus>
<clus scale="  106.673">  1  7  2 -1</clus>
<clus scale="  108.346">  2  5  1 -1</clus>
</clustering>
</event>
<event>
 9    1  0.2423659E-006  0.1285697E+03  0.7546771E-02  0.1230056E+00
         -1   -1    0    0    0  501 -0.00000000000E+00  0.00000000000E+00  0.11430761022E+03  0.11430761022E+03  0.00000000000E+00 0.  1.
          1   -1    0    0  502    0  0.00000000000E+00 -0.00000000000E+00 -0.57209186055E+03  0.57209186055E+03  0.00000000000E+00 0. -1.
         23    2    1    2    0    0  0.59660485972E+02 -0.72370170860E+02  0.54060038658E+02  0.14091583318E+03  0.90210692523E+02 0.  0.
         23    2    1    2    0    0 -0.98085881974E+01  0.54072193277E+02 -0.45604968694E+03  0.46845724398E+03  0.91928570046E+02 0.  0.
        -11    1    3    3    0    0  0.27336866840E+01 -0.44850705550E+02 -0.14915145121E+02  0.47344697541E+02  0.00000000000E+00 0. -1.
         11    1    3    3    0    0  0.56926799288E+02 -0.27519465310E+02  0.68975183780E+02  0.93571135643E+02  0.00000000000E+00 0.  1.
        -13    1    4    4    0    0 -0.41755999411E+02  0.53541422990E+02 -0.37918248284E+03  0.38521371050E+03  0.00000000000E+00 0. -1.
         13    1    4    4    0    0  0.31947411214E+02  0.53077028635E+00 -0.76867204096E+02  0.83243533478E+02  0.00000000000E+00 0.  1.
         21    1    1    2  502  501 -0.49851897775E+02  0.18297977583E+02 -0.55794602049E+02  0.77026393614E+02  0.00000000000E+00 0. -1.
<scales pt_clust_5="13000.00000" pt_clust_6="13000.00000" pt_clust_7="13000.00000" pt_clust_8="13000.00000" pt_clust_9="53.10393"></scales>
<clustering>
<clus scale="   53.104">  2  9  1 -1</clus>
<clus scale="   90.211">  5  6 -1 -1</clus>
<clus scale="   91.929">  7  8 -1 -1</clus>
<clus scale="  127.347">  1  5  2 -1</clus>
<clus scale="   53.104">  2  5  1 -1</clus>
</clustering>
</event>
<event>
 9    1  0.2423659E-006  0.1310830E+03  0.7546771E-02  0.1226270E+00
         -1   -1    0    0    0  501 -0.00000000000E+00  0.00000000000E+00  0.13366139078E+03  0.13366139078E+03  0.00000000000E+00 0.  1.
          1   -1    0    0  502    0  0.00000000000E+00 -0.00000000000E+00 -0.71827255945E+03  0.71827255945E+03  0.00000000000E+00 0. -1.
         23    2    1    2    0    0 -0.44067180430E+02 -0.20465406282E+02 -0.22533137483E+02  0.10332374706E+03  0.88358956406E+02 0.  0.
         23    2    1    2    0    0  0.59260681325E+02  0.86801334281E+02 -0.63439390522E+03  0.64930822207E+03  0.89995779244E+02 0.  0.
        -11    1    3    3    0    0  0.27299735768E+02 -0.72415677343E+01 -0.56221989949E+01  0.28798003364E+02  0.00000000000E+00 0. -1.
         11    1    3    3    0    0 -0.71366916198E+02 -0.13223838547E+02 -0.16910938488E+02  0.74525743700E+02  0.00000000000E+00 0.  1.
        -13    1    4    4    0    0  0.51623753170E+02  0.62288299566E+00 -0.21948838838E+03  0.22547849678E+03  0.00000000000E+00 0.  1.
         13    1    4    4    0    0  0.76369281542E+01  0.86178451285E+02 -0.41490551684E+03  0.42382972529E+03  0.00000000000E+00 0. -1.
         21    1    1    2  502  501 -0.15193500895E+02 -0.66335927999E+02  0.72315874037E+02  0.99301981102E+02  0.00000000000E+00 0.  1.
<scales pt_clust_5="13000.00000" pt_clust_6="13000.00000" pt_clust_7="13000.00000" pt_clust_8="13000.00000" pt_clust_9="68.05364"></scales>
<clustering>
<clus scale="   68.054">  1  9  2 -1</clus>
<clus scale="   88.359">  5  6 -1 -1</clus>
<clus scale="   89.996">  7  8 -1 -1</clus>
<clus scale="  129.965">  1  5  2 -1</clus>
<clus scale="  131.083">  2  5  1 -1</clus>
</clustering>
</event>
<event>
 9    1  0.5588687E-006  0.1412303E+03  0.7546771E-02  0.1230927E+00
          2   -1    0    0  502    0  0.00000000000E+00  0.00000000000E+00  0.71514137339E+03  0.71514137339E+03  0.00000000000E+00 0. -1.
         -2   -1    0    0    0  501 -0.00000000000E+00 -0.00000000000E+00 -0.11738975812E+03  0.11738975812E+03  0.00000000000E+00 0.  1.
         23    2    1    2    0    0 -0.15703905820E+02  0.11689830027E+02 -0.66196418265E+02  0.11526868165E+03  0.92312720649E+02 0.  0.
         23    2    1    2    0    0 -0.46266982501E+02  0.81827834502E+02  0.19439002688E+03  0.23448852121E+03  0.91438262566E+02 0.  0.
        -11    1    3    3    0    0 -0.41812241894E+02 -0.16316977261E+02 -0.79763188787E+01  0.45586499997E+02  0.00000000000E+00 0. -1.
         11    1    3    3    0    0  0.26108336074E+02  0.28006807289E+02 -0.58220099386E+02  0.69682181651E+02  0.00000000000E+00 0.  1.
        -13    1    4    4    0    0 -0.33114769783E+02  0.10184126513E+03  0.15521592352E+03  0.18857416094E+03  0.00000000000E+00 0.  1.
         13    1    4    4    0    0 -0.13152212718E+02 -0.20013430629E+02  0.39174103365E+02  0.45914360274E+02  0.00000000000E+00 0. -1.
         21    1    1    2  502  501  0.61970888322E+02 -0.93517664530E+02  0.46955800665E+03  0.48277392865E+03  0.00000000000E+00 0. -1.
<scales pt_clust_5="13000.00000" pt_clust_6="13000.00000" pt_clust_7="13000.00000" pt_clust_8="13000.00000" pt_clust_9="107.63380"></scales>
<clustering>
<clus scale="   91.438">  7  8 -1 -1</clus>
<clus scale="   92.313">  5  6 -1 -1</clus>
<clus scale="   94.366">  2  5  1 -1</clus>
<clus scale="  107.634">  1  9  2 -1</clus>
<clus scale="  107.634">  1  5  2 -1</clus>
</clustering>
</event>
<event>
 9    1  0.2423659E-006  0.1173115E+03  0.7546771E-02  0.1248176E+00
          1   -1    0    0  502    0  0.00000000000E+00  0.00000000000E+00  0.43957208773E+03  0.43957208773E+03  0.00000000000E+00 0. -1.
         -1   -1    0    0    0  501 -0.00000000000E+00 -0.00000000000E+00 -0.11582014988E+03  0.11582014988E+03  0.00000000000E+00 0.  1.
         23    2    1    2    0    0 -0.32539058197E+02  0.53938279785E+02 -0.22897240316E+02  0.11278231292E+03  0.90705226746E+02 0.  0.
         23    2    1    2    0    0  0.12696529197E+02 -0.96263086598E+02  0.51215406625E+02  0.14350086666E+03  0.92421302529E+02 0.  0.
        -11    1    3    3    0    0 -0.43580193943E+02  0.74077075587E+02 -0.25549400289E+02  0.89662803250E+02  0.00000000000E+00 0.  1.
         11    1    3    3    0    0  0.11041135746E+02 -0.20138795801E+02  0.26521599725E+01  0.23119509670E+02  0.00000000000E+00 0. -1.
        -13    1    4    4    0    0  0.28791221199E+02 -0.40442332191E+02  0.66917558737E+02  0.83321523741E+02  0.00000000000E+00 0. -1.
         13    1    4    4    0    0 -0.16094692001E+02 -0.55820754407E+02 -0.15702152112E+02  0.60179342918E+02  0.00000000000E+00 0.  1.
         21    1    1    2  502  501  0.19842529000E+02  0.42324806812E+02  0.29543377154E+03  0.29910905803E+03  0.00000000000E+00 0. -1.
<scales pt_clust_5="13000.00000" pt_clust_6="13000.00000" pt_clust_7="13000.00000" pt_clust_8="13000.00000" pt_clust_9="46.74522"></scales>
<clustering>
<clus scale="   46.745">  1  9  2 -1</clus>
<clus scale="   90.705">  5  6 -1 -1</clus>
<clus scale="   92.421">  7  8 -1 -1</clus>
<clus scale="  115.964">  2  5  1 -1</clus>
<clus scale="   46.745">  1  5  2 -1</clus>
</clustering>
</event>
<event>
 9    1  0.2423659E-006  0.1044385E+03  0.7546771E-02  0.1275940E+00
         -1   -1    0    0    0  501 -0.00000000000E+00  0.00000000000E+00  0.88607855145E+02  0.88607855145E+02  0.00000000000E+00 0.  1.
          1   -1    0    0  502    0  0.00000000000E+00 -0.00000000000E+00 -0.18162567745E+03  0.18162567745E+03  0.00000000000E+00 0. -1.
         23    2    1    2    0    0  0.12412941415E+02  0.43535082281E+02 -0.38088733500E+02  0.11193532569E+03  0.95023055169E+02 0.  0.
         23    2    1    2    0    0  0.15447095284E+02 -0.42798719462E+02 -0.76492808570E+02  0.12306018930E+03  0.84984217874E+02 0.  0.
        -13    1    4    4    0    0 -0.30121707815E+02 -0.10531508794E+02 -0.54286337553E+02  0.62970123107E+02  0.00000000000E+00 0.  1.
         13    1    4    4    0    0  0.45568803100E+02 -0.32267210667E+02 -0.22206471017E+02  0.60090066194E+02  0.00000000000E+00 0. -1.
        -13    1    3    3    0    0 -0.79012152504E+01 -0.19663291653E+02 -0.40282049369E+02  0.45516126180E+02  0.00000000000E+00 0.  1.
         13    1    3    3    0    0  0.20314156666E+02  0.63198373934E+02  0.21933158693E+01  0.66419199509E+02  0.00000000000E+00 0. -1.
         21    1    1    2  502  501 -0.27860036700E+02 -0.73636281985E+00  0.21563719761E+02  0.35238017609E+02  0.00000000000E+00 0.  1.
<scales pt_clust_5="13000.00000" pt_clust_6="13000.00000" pt_clust_7="13000.00000" pt_clust_8="13000.00000" pt_clust_9="27.86977"></scales>
<clustering>
<clus scale="   27.870">  1  9  2 -1</clus>
<clus scale="   84.984">  5  6 -1 -1</clus>
<clus scale="   95.023">  7  8 -1 -1</clus>
<clus scale="   95.396">  2  5  1 -1</clus>
<clus scale="   95.396">  2  5  1 -1</clus>
</clustering>
</event>
<event>
 9    1  0.2423659E-006  0.3774527E+03  0.7546771E-02  0.1101952E+00
         -2   -1    0    0    0  501 -0.00000000000E+00  0.00000000000E+00  0.83568328291E+03  0.83568328291E+03  0.00000000000E+00 0.  1.
          2   -1    0    0  502    0  0.00000000000E+00 -0.00000000000E+00 -0.29960634578E+03  0.29960634578E+03  0.00000000000E+00 0. -1.
         23    2    1    2    0    0  0.28526099993E+02 -0.16412783700E+02  0.19630818450E+03  0.21901955038E+03  0.91375829943E+02 0.  0.
         23    2    1    2    0    0 -0.28572908094E+03 -0.23398373211E+03 -0.53177538898E+02  0.38404965728E+03  0.90976887342E+02 0.  0.
        -11    1    3    3    0    0  0.35436466861E+02  0.12175164320E+02  0.24629111255E+02  0.44839390395E+02  0.00000000000E+00 0.  1.
         11    1    3    3    0    0 -0.69103668685E+01 -0.28587948020E+02  0.17167907325E+03  0.17418015999E+03  0.00000000000E+00 0. -1.
        -13    1    4    4    0    0 -0.86334229070E+01 -0.27687834331E+02  0.13867756433E+02  0.32147578906E+02  0.00000000000E+00 0.  1.
         13    1    4    4    0    0 -0.27709565803E+03 -0.20629589778E+03 -0.67045295332E+02  0.35190207838E+03  0.00000000000E+00 0. -1.
         21    1    1    2  502  501  0.25720298095E+03  0.25039651581E+03  0.39294629152E+03  0.53222042103E+03  0.00000000000E+00 0.  1.
<scales pt_clust_5="13000.00000" pt_clust_6="13000.00000" pt_clust_7="13000.00000" pt_clust_8="13000.00000" pt_clust_9="366.32460"></scales>
<clustering>
<clus scale="   90.977">  7  8 -1 -1</clus>
<clus scale="   91.376">  5  6 -1 -1</clus>
<clus scale="   97.122">  1  5  2 -1</clus>
<clus scale="  366.325">  1  9  2 -1</clus>
<clus scale="  377.453">  2  5  1 -1</clus>
</clustering>
</event>
<event>
 9    1  0.2423659E-006  0.1001581E+03  0.7546771E-02  0.1281577E+00
         -2   -1    0    0    0  501 -0.00000000000E+00  0.00000000000E+00  0.36436590467E+02  0.36436590467E+02  0.00000000000E+00 0.  1.
          2   -1    0    0  502    0  0.00000000000E+00 -0.00000000000E+00 -0.56285194352E+03  0.56285194352E+03  0.00000000000E+00 0. -1.
         23    2    1    2    0    0  0.94558577290E+01 -0.73644005202E+02 -0.13115458257E+03  0.17431228219E+03  0.87580788107E+02 0.  0.
         23    2    1    2    0    0 -0.22734735721E+02  0.62370641683E+01 -0.21480069778E+03  0.23188077765E+03  0.84104613994E+02 0.  0.
        -11    1    3    3    0    0 -0.33000153083E+02 -0.49355155827E+02 -0.10007279631E+03  0.11635938325E+03  0.00000000000E+00 0. -1.
         11    1    3    3    0    0  0.42456010812E+02 -0.24288849374E+02 -0.31081786267E+02  0.57952898940E+02  0.00000000000E+00 0.  1.
        -11    1    4    4    0    0  0.29268923289E+02  0.73129071567E+01 -0.44104969177E+02  0.53435912902E+02  0.00000000000E+00 0.  1.
         11    1    4    4    0    0 -0.52003659009E+02 -0.10758429884E+01 -0.17069572861E+03  0.17844486474E+03  0.00000000000E+00 0. -1.
         21    1    1    2  502  501  0.13278877992E+02  0.67406941033E+02 -0.18046007270E+03  0.19309547415E+03  0.00000000000E+00 0. -1.
<scales pt_clust_5="13000.00000" pt_clust_6="13000.00000" pt_clust_7="13000.00000" pt_clust_8="13000.00000" pt_clust_9="68.70243"></scales>
<clustering>
<clus scale="   68.702">  2  9  1 -1</clus>
<clus scale="   84.105">  7  8 -1 -1</clus>
<clus scale="   87.581">  5  6 -1 -1</clus>
<clus scale="   97.133">  2  7  1 -1</clus>
<clus scale="   68.702">  2  5  1 -1</clus>
</clustering>
</event>
<event>
 9    1  0.2423659E-006  0.1094595E+03  0.7546771E-02  0.1262478E+00
         -2   -1    0    0    0  501 -0.00000000000E+00  0.00000000000E+00  0.11390351362E+03  0.11390351362E+03  0.00000000000E+00 0.  1.
          2   -1    0    0  502    0  0.00000000000E+00 -0.00000000000E+00 -0.29324772386E+03  0.29324772386E+03  0.00000000000E+00 0. -1.
         23    2    1    2    0    0  0.68805190758E+02 -0.46657612274E+02  0.41097628300E+02  0.12940456040E+03  0.90252081094E+02 0.  0.
         23    2    1    2    0    0 -0.56490911520E+02  0.18191583181E+02 -0.22267854205E+03  0.24665071066E+03  0.87912929623E+02 0.  0.
        -13    1    3    3    0    0  0.31896018874E+02  0.25795437841E+02  0.18570801191E+02  0.45029271483E+02  0.00000000000E+00 0.  1.
         13    1    3    3    0    0  0.36909171884E+02 -0.72453050115E+02  0.22526827109E+02  0.84375288916E+02  0.00000000000E+00 0. -1.
        -13    1    4    4    0    0 -0.19583355659E+02  0.51682800030E+02 -0.10042630846E+03  0.11463011415E+03  0.00000000000E+00 0.  1.
         13    1    4    4    0    0 -0.36907555861E+02 -0.33491216850E+02 -0.12225223359E+03  0.13202059651E+03  0.00000000000E+00 0. -1.
         21    1    1    2  502  501 -0.12314279238E+02  0.28466029094E+02  0.22367035119E+01  0.31095966428E+02  0.00000000000E+00 0. -1.
<scales pt_clust_5="13000.00000" pt_clust_6="13000.00000" pt_clust_7="13000.00000" pt_clust_8="13000.00000" pt_clust_9="31.01542"></scales>
<clustering>
<clus scale="   31.015">  1  9  2 -1</clus>
<clus scale="   87.913">  7  8 -1 -1</clus>
<clus scale="   90.252">  5  6 -1 -1</clus>
<clus scale="  107.539">  2  7  1 -1</clus>
<clus scale="  107.539">  2  5  1 -1</clus>
</clustering>
</event>
<event>
 9    1  0.2423659E-006  0.1043415E+03  0.7546771E-02  0.1272830E+00
         -1   -1    0    0    0  501 -0.00000000000E+00  0.00000000000E+00  0.71860993730E+02  0.71860993730E+02  0.00000000000E+00 0.  1.
          1   -1    0    0  502    0  0.00000000000E+00 -0.00000000000E+00 -0.35345164826E+03  0.35345164826E+03  0.00000000000E+00 0. -1.
         23    2    1    2    0    0  0.16599347763E+02 -0.76014484474E+02 -0.12877924186E+03  0.17580817937E+03  0.90943293354E+02 0.  0.
         23    2    1    2    0    0 -0.45581169830E+02 -0.79990928468E+01 -0.10593065660E+03  0.14902544752E+03  0.94051323603E+02 0.  0.
        -11    1    3    3    0    0  0.34529888628E+01 -0.37135188982E+02 -0.12949653318E+03  0.13476014803E+03  0.00000000000E+00 0. -1.
         11    1    3    3    0    0  0.13146358900E+02 -0.38879295492E+02  0.71729132096E+00  0.41048031343E+02  0.00000000000E+00 0.  1.
        -13    1    4    4    0    0 -0.50274644376E+02 -0.28131502859E+02 -0.20530643294E+02  0.61159043765E+02  0.00000000000E+00 0.  1.
         13    1    4    4    0    0  0.46934745458E+01  0.20132410012E+02 -0.85400013305E+02  0.87866403754E+02  0.00000000000E+00 0. -1.
         21    1    1    2  502  501  0.28981822067E+02  0.84013577321E+02 -0.46880756076E+02  0.10047901510E+03  0.00000000000E+00 0.  1.
<scales pt_clust_5="13000.00000" pt_clust_6="13000.00000" pt_clust_7="13000.00000" pt_clust_8="13000.00000" pt_clust_9="88.87197"></scales>
<clustering>
<clus scale="   88.872">  1  9  2 -1</clus>
<clus scale="   90.943">  5  6 -1 -1</clus>
<clus scale="   94.051">  7  8 -1 -1</clus>
<clus scale="  101.549">  1  5  2 -1</clus>
<clus scale="  104.342">  2  5  1 -1</clus>
</clustering>
</event>
<event>
 9    1  0.2423659E-006  0.9789497E+02  0.7546771E-02  0.1286229E+00
          2   -1    0    0  502    0  0.00000000000E+00  0.00000000000E+00  0.64879018057E+02  0.64879018057E+02  0.00000000000E+00 0. -1.
         -2   -1    0    0    0  501 -0.00000000000E+00 -0.00000000000E+00 -0.23105593152E+03  0.23105593152E+03  0.00000000000E+00 0.  1.
         23    2    1    2    0    0 -0.32199676924E+02 -0.17057258609E+02 -0.13703152225E+03  0.16839086725E+03  0.90829933500E+02 0.  0.
         23    2    1    2    0    0  0.12107946159E+02  0.24982977052E+02 -0.90326173994E+01  0.98031062681E+02  0.93582848700E+02 0.  0.
        -11    1    4    4    0    0  0.40717877404E+02  0.46473890849E+02 -0.43095455452E+01  0.61938197050E+02  0.00000000000E+00 0.  1.
         11    1    4    4    0    0 -0.28609931246E+02 -0.21490913797E+02 -0.47230718543E+01  0.36092865631E+02  0.00000000000E+00 0. -1.
        -13    1    3    3    0    0 -0.49283031385E+02 -0.38211619493E+02 -0.59355226427E+02  0.86092903023E+02  0.00000000000E+00 0. -1.
         13    1    3    3    0    0  0.17083354462E+02  0.21154360884E+02 -0.77676295820E+02  0.82297964230E+02  0.00000000000E+00 0.  1.
         21    1    1    2  502  501  0.20091730765E+02 -0.79257184433E+01 -0.20112773821E+02  0.29513019648E+02  0.00000000000E+00 0. -1.
<scales pt_clust_5="13000.00000" pt_clust_6="13000.00000" pt_clust_7="13000.00000" pt_clust_8="13000.00000" pt_clust_9="21.59849"></scales>
<clustering>
<clus scale="   21.598">  2  9  1 -1</clus>
<clus scale="   90.830">  7  8 -1 -1</clus>
<clus scale="   93.583">  5  6 -1 -1</clus>
<clus scale="   95.267">  2  7  1 -1</clus>
<clus scale="   97.895">  1  5  2 -1</clus>
</clustering>
</event>
<event>
 9    1  0.2423659E-006  0.1873519E+03  0.7546771E-02  0.1175820E+00
          4   -1    0    0  502    0  0.00000000000E+00  0.00000000000E+00  0.67481356241E+02  0.67481356241E+02  0.00000000000E+00 0. -1.
         -4   -1    0    0    0  501 -0.00000000000E+00 -0.00000000000E+00 -0.11867588489E+04  0.11867588489E+04  0.00000000000E+00 0.  1.
         23    2    1    2    0    0  0.10127727751E+03 -0.13649498045E+03 -0.74947373603E+03  0.77379749257E+03  0.90353261609E+02 0.  0.
         23    2    1    2    0    0  0.58687584153E+02  0.77295361863E+02 -0.12821946826E+03  0.18471256499E+03  0.90882859347E+02 0.  0.
        -11    1    3    3    0    0  0.58093228361E+01 -0.81539660529E+02 -0.34944389532E+03  0.35887811364E+03  0.00000000000E+00 0.  1.
         11    1    3    3    0    0  0.95467954676E+02 -0.54955319926E+02 -0.40002984071E+03  0.41491937893E+03  0.00000000000E+00 0. -1.
        -13    1    4    4    0    0  0.32839878733E+02  0.31087426891E+02 -0.12354476606E+03  0.13156061328E+03  0.00000000000E+00 0.  1.
         13    1    4    4    0    0  0.25847705420E+02  0.46207934972E+02 -0.46747022067E+01  0.53151951710E+02  0.00000000000E+00 0. -1.
         21    1    1    2  502  501 -0.15996486166E+03  0.59199618592E+02 -0.24158428842E+03  0.29573014763E+03  0.00000000000E+00 0.  1.
<scales pt_clust_5="13000.00000" pt_clust_6="13000.00000" pt_clust_7="13000.00000" pt_clust_8="13000.00000" pt_clust_9="164.12505"></scales>
<clustering>
<clus scale="   90.353">  5  6 -1 -1</clus>
<clus scale="   90.883">  7  8 -1 -1</clus>
<clus scale="  132.961">  1  7  2 -1</clus>
<clus scale="  164.125">  1  9  2 -1</clus>
<clus scale="  132.961">  1  5  2 -1</clus>
</clustering>
</event>
<event>
 9    1  0.2423659E-006  0.9959686E+02  0.7546771E-02  0.1283312E+00
         -1   -1    0    0    0  501 -0.00000000000E+00  0.00000000000E+00  0.21385860650E+02  0.21385860650E+02  0.00000000000E+00 0.  1.
          1   -1    0    0  502    0  0.00000000000E+00 -0.00000000000E+00 -0.56865920240E+03  0.56865920240E+03  0.00000000000E+00 0. -1.
         23    2    1    2    0    0 -0.75829904393E+01  0.23614894879E+02 -0.18900394400E+03  0.21149125159E+03  0.91601821204E+02 0.  0.
         23    2    1    2    0    0  0.27677230894E+02 -0.20881365212E+02 -0.30468365284E+03  0.32125911065E+03  0.95776966647E+02 0.  0.
        -11    1    3    3    0    0 -0.42631989120E+02  0.19980350287E+02 -0.15693771207E+03  0.16384793671E+03  0.00000000000E+00 0.  1.
         11    1    3    3    0    0  0.35048998680E+02  0.36345445917E+01 -0.32066231933E+02  0.47643314886E+02  0.00000000000E+00 0. -1.
        -11    1    4    4    0    0  0.45632085027E+02  0.25341188510E+02 -0.15006134503E+03  0.15888005001E+03  0.00000000000E+00 0. -1.
         11    1    4    4    0    0 -0.17954854132E+02 -0.46222553723E+02 -0.15462230782E+03  0.16237906064E+03  0.00000000000E+00 0.  1.
         21    1    1    2  502  501 -0.20094240455E+02 -0.27335296664E+01 -0.53585744902E+02  0.57294700808E+02  0.00000000000E+00 0.  1.
<scales pt_clust_5="13000.00000" pt_clust_6="13000.00000" pt_clust_7="13000.00000" pt_clust_8="13000.00000" pt_clust_9="20.27932"></scales>
<clustering>
<clus scale="   20.279">  2  9  1 -1</clus>
<clus scale="   91.602">  5  6 -1 -1</clus>
<clus scale="   95.589">  1  5  2 -1</clus>
<clus scale="   95.777">  7  8 -1 -1</clus>
<clus scale="   20.279">  2  5  1 -1</clus>
</clustering>
</event>
<event>
 9    1  0.2423659E-006  0.1016762E+03  0.7546771E-02  0.1278926E+00
         -1   -1    0    0    0  501 -0.00000000000E+00  0.00000000000E+00  0.55454340484E+03  0.55454340484E+03  0.00000000000E+00 0.  1.
          1   -1    0    0  502    0  0.00000000000E+00 -0.00000000000E+00 -0.69379360793E+02  0.69379360793E+02  0.00000000000E+00 0. -1.
         23    2    1    2    0    0  0.38443036429E+02 -0.25570100785E+02  0.38432719114E+03  0.39788757898E+03  0.92062145079E+02 0.  0.
         23    2    1    2    0    0 -0.69094591188E+01 -0.87445378370E+01  0.13644142594E+03  0.16738753927E+03  0.96322988036E+02 0.  0.
        -11    1    3    3    0    0  0.61355243961E+02  0.29237659631E+01  0.29573780681E+03  0.30204944090E+03  0.00000000000E+00 0.  1.
         11    1    3    3    0    0 -0.22912207532E+02 -0.28493866748E+02  0.88589384327E+02  0.95838138085E+02  0.00000000000E+00 0. -1.
        -13    1    4    4    0    0 -0.49372082940E+02 -0.52681208428E+01  0.98633756156E+02  0.11042632623E+03  0.00000000000E+00 0. -1.
         13    1    4    4    0    0  0.42462623822E+02 -0.34764169941E+01  0.37807669782E+02  0.56961213043E+02  0.00000000000E+00 0.  1.
         21    1    1    2  502  501 -0.31533577310E+02  0.34314638622E+02 -0.35604573034E+02  0.58647647375E+02  0.00000000000E+00 0. -1.
<scales pt_clust_5="13000.00000" pt_clust_6="13000.00000" pt_clust_7="13000.00000" pt_clust_8="13000.00000" pt_clust_9="46.60323"></scales>
<clustering>
<clus scale="   46.603">  2  9  1 -1</clus>
<clus scale="   92.062">  5  6 -1 -1</clus>
<clus scale="   96.323">  7  8 -1 -1</clus>
<clus scale="   97.649">  1  5  2 -1</clus>
<clus scale="   46.603">  2  5  1 -1</clus>
</clustering>
</event>
<event>
 9    1  0.2423659E-006  0.1253946E+03  0.7546771E-02  0.1235645E+00
          1   -1    0    0  502    0  0.00000000000E+00  0.00000000000E+00  0.24739158405E+03  0.24739158405E+03  0.00000000000E+00 0. -1.
         -1   -1    0    0    0  501 -0.00000000000E+00 -0.00000000000E+00 -0.84582406974E+02  0.84582406974E+02  0.00000000000E+00 0.  1.
         23    2    1    2    0    0 -0.94540113042E+02  0.28163121536E+02  0.45311730495E+02  0.14182125053E+03  0.91264011482E+02 0.  0.
         23    2    1    2    0    0  0.71773306798E+02  0.30812308344E+00  0.93121091784E+02  0.14629905297E+03  0.87065335559E+02 0.  0.
        -11    1    3    3    0    0 -0.22868107481E+02  0.49592451806E+02  0.38265897873E+02  0.66683135469E+02  0.00000000000E+00 0.  1.
         11    1    3    3    0    0 -0.71672005562E+02 -0.21429330271E+02  0.70458326218E+01  0.75138115057E+02  0.00000000000E+00 0. -1.
        -13    1    4    4    0    0  0.75908885146E+02 -0.27970516285E+02  0.51813088000E+02  0.96068229470E+02  0.00000000000E+00 0.  1.
         13    1    4    4    0    0 -0.41355783483E+01  0.28278639368E+02  0.41308003784E+02  0.50230823499E+02  0.00000000000E+00 0. -1.
         21    1    1    2  502  501  0.22766806245E+02 -0.28471244619E+02  0.24376354800E+02  0.43853687531E+02  0.00000000000E+00 0.  1.
<scales pt_clust_5="13000.00000" pt_clust_6="13000.00000" pt_clust_7="13000.00000" pt_clust_8="13000.00000" pt_clust_9="36.45462"></scales>
<clustering>
<clus scale="   36.455">  1  9  2 -1</clus>
<clus scale="   87.065">  7  8 -1 -1</clus>
<clus scale="   91.264">  5  6 -1 -1</clus>
<clus scale="  122.373">  1  7  2 -1</clus>
<clus scale="   36.455">  1  5  2 -1</clus>
</clustering>
</event>
<event>
 9    1  0.2423659E-006  0.2154003E+03  0.7546771E-02  0.1137982E+00
          1   -1    0    0  502    0  0.00000000000E+00  0.00000000000E+00  0.52963113159E+03  0.52963113159E+03  0.00000000000E+00 0. -1.
         -1   -1    0    0    0  501 -0.00000000000E+00 -0.00000000000E+00 -0.29110328903E+03  0.29110328903E+03  0.00000000000E+00 0.  1.
         23    2    1    2    0    0  0.18351858127E+03 -0.86323227940E+02 -0.11654613567E+03  0.25137024224E+03  0.92050136280E+02 0.  0.
         23    2    1    2    0    0 -0.12720547747E+03 -0.13957791180E+03  0.16351859370E+03  0.26787461648E+03  0.96722555331E+02 0.  0.
        -11    1    4    4    0    0 -0.23821525317E+02  0.11049126605E+02  0.38107546063E+02  0.46278864874E+02  0.00000000000E+00 0.  1.
         11    1    4    4    0    0 -0.10338395215E+03 -0.15062703841E+03  0.12541104764E+03  0.22159575161E+03  0.00000000000E+00 0. -1.
        -11    1    3    3    0    0  0.65671093902E+02 -0.40853298521E+02 -0.96187358209E+02  0.12342484537E+03  0.00000000000E+00 0.  1.
         11    1    3    3    0    0  0.11784748737E+03 -0.45469929419E+02 -0.20358777457E+02  0.12794539687E+03  0.00000000000E+00 0. -1.
         21    1    1    2  502  501 -0.56313103807E+02  0.22590113974E+03  0.19155538452E+03  0.30148956190E+03  0.00000000000E+00 0.  1.
<scales pt_clust_5="13000.00000" pt_clust_6="13000.00000" pt_clust_7="13000.00000" pt_clust_8="13000.00000" pt_clust_9="194.74103"></scales>
<clustering>
<clus scale="   92.050">  7  8 -1 -1</clus>
<clus scale="   96.723">  5  6 -1 -1</clus>
<clus scale="  212.176">  1  5  2 -1</clus>
<clus scale="  194.741">  1  9  2 -1</clus>
<clus scale="  212.176">  1  5  2 -1</clus>
</clustering>
</event>
<event>
 9    1  0.2423659E-006  0.9119210E+02  0.7546771E-02  0.1300627E+00
          1   -1    0    0  502    0  0.00000000000E+00  0.00000000000E+00  0.13153773324E+03  0.13153773324E+03  0.00000000000E+00 0. -1.
         -1   -1    0    0    0  501 -0.00000000000E+00 -0.00000000000E+00 -0.19468207054E+03  0.19468207054E+03  0.00000000000E+00 0.  1.
         23    2    1    2    0    0  0.27705744178E+02  0.20890049304E+02 -0.94296527542E+02  0.13461591088E+03  0.89585746276E+02 0.  0.
         23    2    1    2    0    0  0.83431620985E+01 -0.74211543737E+01  0.85431927028E+02  0.12506650039E+03  0.90655024565E+02 0.  0.
        -13    1    4    4    0    0 -0.19595771493E+02  0.26883160622E+02  0.55158188313E+01  0.33721252094E+02  0.00000000000E+00 0.  1.
         13    1    4    4    0    0  0.27938933592E+02 -0.34304314995E+02  0.79916108197E+02  0.91345248299E+02  0.00000000000E+00 0. -1.
        -13    1    3    3    0    0  0.25993847145E+02  0.54355894947E+02 -0.74047324905E+02  0.95463342339E+02  0.00000000000E+00 0.  1.
         13    1    3    3    0    0  0.17118970329E+01 -0.33465845644E+02 -0.20249202637E+02  0.39152568543E+02  0.00000000000E+00 0. -1.
         21    1    1    2  502  501 -0.36048906277E+02 -0.13468894930E+02 -0.54279736786E+02  0.66537392495E+02  0.00000000000E+00 0.  1.
<scales pt_clust_5="13000.00000" pt_clust_6="13000.00000" pt_clust_7="13000.00000" pt_clust_8="13000.00000" pt_clust_9="38.48292"></scales>
<clustering>
<clus scale="   38.483">  2  9  1 -1</clus>
<clus scale="   89.586">  7  8 -1 -1</clus>
<clus scale="   90.129">  2  7  1 -1</clus>
<clus scale="   90.655">  5  6 -1 -1</clus>
<clus scale="   91.192">  1  5  2 -1</clus>
</clustering>
</event>
<event>
 9    1  0.2423659E-006  0.9539255E+02  0.7546771E-02  0.1291060E+00
         -2   -1    0    0    0  501 -0.00000000000E+00  0.00000000000E+00  0.94747827840E+02  0.94747827840E+02  0.00000000000E+00 0.  1.
          2   -1    0    0  502    0  0.00000000000E+00 -0.00000000000E+00 -0.38094680727E+03  0.38094680727E+03  0.00000000000E+00 0. -1.
         23    2    1    2    0    0  0.15646167117E+02  0.78464180722E+01 -0.43463463365E+01  0.93683062818E+02  0.91930716903E+02 0.  0.
         23    2    1    2    0    0 -0.19056877937E+02  0.21284741743E+02 -0.32006293771E+03  0.33384223765E+03  0.90521548340E+02 0.  0.
        -11    1    4    4    0    0 -0.42302990007E+02  0.33249529714E+02 -0.28538544671E+03  0.29041337329E+03  0.00000000000E+00 0. -1.
         11    1    4    4    0    0  0.23246112070E+02 -0.11964787970E+02 -0.34677490997E+02  0.43428864357E+02  0.00000000000E+00 0.  1.
        -11    1    3    3    0    0  0.41523645322E+02 -0.26912816556E+02 -0.82812609622E+01  0.50170629844E+02  0.00000000000E+00 0.  1.
         11    1    3    3    0    0 -0.25877478205E+02  0.34759234628E+02  0.39349146257E+01  0.43512432974E+02  0.00000000000E+00 0. -1.
         21    1    1    2  502  501  0.34107108196E+01 -0.29131159815E+02  0.38210304621E+02  0.48169334641E+02  0.00000000000E+00 0.  1.
<scales pt_clust_5="13000.00000" pt_clust_6="13000.00000" pt_clust_7="13000.00000" pt_clust_8="13000.00000" pt_clust_9="29.33015"></scales>
<clustering>
<clus scale="   29.330">  1  9  2 -1</clus>
<clus scale="   90.522">  5  6 -1 -1</clus>
<clus scale="   91.931">  7  8 -1 -1</clus>
<clus scale="   94.035">  2  5  1 -1</clus>
<clus scale="   94.035">  2  5  1 -1</clus>
</clustering>
</event>
<event>
 9    1  0.2423659E-006  0.1095397E+03  0.7546771E-02  0.1261540E+00
          1   -1    0    0  502    0  0.00000000000E+00  0.00000000000E+00  0.35157917304E+03  0.35157917304E+03  0.00000000000E+00 0. -1.
         -1   -1    0    0    0  501 -0.00000000000E+00 -0.00000000000E+00 -0.12554173379E+03  0.12554173379E+03  0.00000000000E+00 0.  1.
         23    2    1    2    0    0  0.31332593858E+02  0.58297072256E+02 -0.67950882569E+02  0.13112054126E+03  0.90526205198E+02 0.  0.
         23    2    1    2    0    0 -0.48530440981E+02  0.28390902443E+00  0.25164546586E+03  0.27170087187E+03  0.90225489621E+02 0.  0.
        -11    1    4    4    0    0 -0.35639743384E+02  0.33117614547E+02  0.62034563296E+02  0.78836886956E+02  0.00000000000E+00 0.  1.
         11    1    4    4    0    0 -0.12890697598E+02 -0.32833705522E+02  0.18961090257E+03  0.19286398491E+03  0.00000000000E+00 0. -1.
        -13    1    3    3    0    0  0.11047305145E+02  0.72264578988E+02 -0.17787228369E+02  0.75236944518E+02  0.00000000000E+00 0. -1.
         13    1    3    3    0    0  0.20285288713E+02 -0.13967506732E+02 -0.50163654199E+02  0.55883596745E+02  0.00000000000E+00 0.  1.
         21    1    1    2  502  501  0.17197847124E+02 -0.58580981281E+02  0.42342855963E+02  0.74299493704E+02  0.00000000000E+00 0. -1.
<scales pt_clust_5="13000.00000" pt_clust_6="13000.00000" pt_clust_7="13000.00000" pt_clust_8="13000.00000" pt_clust_9="61.05323"></scales>
<clustering>
<clus scale="   61.053">  1  9  2 -1</clus>
<clus scale="   90.225">  5  6 -1 -1</clus>
<clus scale="   90.526">  7  8 -1 -1</clus>
<clus scale="  109.291">  1  5  2 -1</clus>
<clus scale="   61.053">  1  5  2 -1</clus>
</clustering>
</event>
<event>
 9    1  0.2423659E-006  0.1003527E+03  0.7546771E-02  0.1283274E+00
         -2   -1    0    0    0  501 -0.00000000000E+00  0.00000000000E+00  0.57081488928E+02  0.57081488928E+02  0.00000000000E+00 0.  1.
          2   -1    0    0  502    0  0.00000000000E+00 -0.00000000000E+00 -0.42405493227E+03  0.42405493227E+03  0.00000000000E+00 0. -1.
         23    2    1    2    0    0 -0.16965328754E+01 -0.91936336722E+01 -0.78511958912E+02  0.11686694789E+03  0.86060180653E+02 0.  0.
         23    2    1    2    0    0  0.83451517045E+02  0.21697998862E+01 -0.10569848960E+03  0.16393094990E+03  0.93446893500E+02 0.  0.
        -11    1    4    4    0    0 -0.11025976450E+02  0.17731192355E+02  0.57114172709E+00  0.20887640888E+02  0.00000000000E+00 0. -1.
         11    1    4    4    0    0  0.94477493495E+02 -0.15561392469E+02 -0.10626963132E+03  0.14304330902E+03  0.00000000000E+00 0.  1.
        -13    1    3    3    0    0 -0.18662154472E+02  0.34436320419E+02 -0.42573846258E+02  0.57850398086E+02  0.00000000000E+00 0. -1.
         13    1    3    3    0    0  0.16965621597E+02 -0.43629954091E+02 -0.35938112655E+02  0.59016549809E+02  0.00000000000E+00 0.  1.
         21    1    1    2  502  501 -0.81754984170E+02  0.70238337859E+01 -0.18276299483E+03  0.20033852340E+03  0.00000000000E+00 0. -1.
<scales pt_clust_5="13000.00000" pt_clust_6="13000.00000" pt_clust_7="13000.00000" pt_clust_8="13000.00000" pt_clust_9="82.05615"></scales>
<clustering>
<clus scale="   82.056">  2  9  1 -1</clus>
<clus scale="   86.060">  7  8 -1 -1</clus>
<clus scale="   93.447">  5  6 -1 -1</clus>
<clus scale="   93.513">  1  7  2 -1</clus>
<clus scale="   82.056">  2  5  1 -1</clus>
</clustering>
</event>
<event>
 9    1  0.2423659E-006  0.1005023E+03  0.7546771E-02  0.1284866E+00
          4   -1    0    0  502    0  0.00000000000E+00  0.00000000000E+00  0.70723891435E+02  0.70723891435E+02  0.00000000000E+00 0. -1.
         -4   -1    0    0    0  501 -0.00000000000E+00 -0.00000000000E+00 -0.26793190026E+03  0.26793190026E+03  0.00000000000E+00 0.  1.
         23    2    1    2    0    0 -0.10786393500E+02 -0.41423924053E+02 -0.12093217580E+03  0.15604845950E+03  0.88849551496E+02 0.  0.
         23    2    1    2    0    0 -0.46670045330E+01  0.70790015365E+01 -0.22546721003E+01  0.99556062014E+02  0.99168708489E+02 0.  0.
        -13    1    3    3    0    0  0.14496067018E+02 -0.19314874480E+02 -0.12004588226E+03  0.12245086436E+03  0.00000000000E+00 0.  1.
         13    1    3    3    0    0 -0.25282460518E+02 -0.22109049572E+02 -0.88629353504E+00  0.33597595138E+02  0.00000000000E+00 0. -1.
        -13    1    4    4    0    0  0.40431773362E+02  0.15111393355E+02  0.21203783798E+02  0.48090362378E+02  0.00000000000E+00 0.  1.
         13    1    4    4    0    0 -0.45098777895E+02 -0.80323918182E+01 -0.23458455898E+02  0.51465699636E+02  0.00000000000E+00 0. -1.
         21    1    1    2  502  501  0.15453398033E+02  0.34344922516E+02 -0.74021160931E+02  0.83051270182E+02  0.00000000000E+00 0.  1.
<scales pt_clust_5="13000.00000" pt_clust_6="13000.00000" pt_clust_7="13000.00000" pt_clust_8="13000.00000" pt_clust_9="37.66140"></scales>
<clustering>
<clus scale="   37.661">  2  9  1 -1</clus>
<clus scale="   88.850">  5  6 -1 -1</clus>
<clus scale="   90.336">  2  5  1 -1</clus>
<clus scale="   99.169">  7  8 -1 -1</clus>
<clus scale="  100.502">  1  5  2 -1</clus>
</clustering>
</event>
<event>
 9    1  0.2423659E-006  0.1278876E+03  0.7546771E-02  0.1243215E+00
          1   -1    0    0  502    0  0.00000000000E+00  0.00000000000E+00  0.19925106557E+03  0.19925106557E+03  0.00000000000E+00 0. -1.
         -1   -1    0    0    0  501 -0.00000000000E+00 -0.00000000000E+00 -0.40564396396E+03  0.40564396396E+03  0.00000000000E+00 0.  1.
         23    2    1    2    0    0 -0.86762135573E+02  0.21552385304E+01 -0.32546485060E+03  0.34887009387E+03  0.90833144801E+02 0.  0.
         23    2    1    2    0    0 -0.36808178146E+02 -0.14917100014E+02  0.30647395761E+02  0.10354087183E+03  0.90576417573E+02 0.  0.
        -13    1    3    3    0    0  0.64333882599E+00 -0.31057535681E+02 -0.10218847441E+03  0.10680575223E+03  0.00000000000E+00 0. -1.
         13    1    3    3    0    0 -0.87405474399E+02  0.33212774211E+02 -0.22327637619E+03  0.24206434163E+03  0.00000000000E+00 0.  1.
        -13    1    4    4    0    0 -0.49384218433E+02 -0.30705351881E+02 -0.91979070348E+01  0.58874622362E+02  0.00000000000E+00 0.  1.
         13    1    4    4    0    0  0.12576040287E+02  0.15788251868E+02  0.39845302796E+02  0.44666249465E+02  0.00000000000E+00 0. -1.
         21    1    1    2  502  501  0.12357031372E+03  0.12761861483E+02  0.88424556446E+02  0.15248406384E+03  0.00000000000E+00 0. -1.
<scales pt_clust_5="13000.00000" pt_clust_6="13000.00000" pt_clust_7="13000.00000" pt_clust_8="13000.00000" pt_clust_9="90.02540"></scales>
<clustering>
<clus scale="   90.576">  7  8 -1 -1</clus>
<clus scale="   90.833">  5  6 -1 -1</clus>
<clus scale="   98.901">  1  7  2 -1</clus>
<clus scale="   90.025">  1  9  2 -1</clus>
<clus scale="   98.901">  1  5  2 -1</clus>
</clustering>
</event>
<event>
 9    1  0.2423659E-006  0.1070824E+03  0.7546771E-02  0.1274960E+00
          2   -1    0    0  502    0  0.00000000000E+00  0.00000000000E+00  0.33577056195E+03  0.33577056195E+03  0.00000000000E+00 0. -1.
         -2   -1    0    0    0  501 -0.00000000000E+00 -0.00000000000E+00 -0.66068400258E+02  0.66068400258E+02  0.00000000000E+00 0.  1.
         23    2    1    2    0    0 -0.14963401930E+02  0.26230883961E+01  0.19880060297E+02  0.10963984862E+03  0.10674687639E+03 0.  0.
         23    2    1    2    0    0 -0.33478352606E+02 -0.23663886086E+02  0.16601623774E+03  0.19313983067E+03  0.89782088404E+02 0.  0.
        -11    1    3    3    0    0  0.12238159478E+02 -0.20737021152E+02  0.54634291495E+02  0.59705128764E+02  0.00000000000E+00 0. -1.
         11    1    3    3    0    0 -0.27201561408E+02  0.23360109548E+02 -0.34754231197E+02  0.49934719857E+02  0.00000000000E+00 0.  1.
        -11    1    4    4    0    0 -0.45987333730E+01  0.25472782115E+02  0.11270685240E+02  0.28231884866E+02  0.00000000000E+00 0.  1.
         11    1    4    4    0    0 -0.28879619233E+02 -0.49136668202E+02  0.15474555250E+03  0.16490794580E+03  0.00000000000E+00 0. -1.
         21    1    1    2  502  501  0.48441754536E+02  0.21040797690E+02  0.83805863651E+02  0.99059282918E+02  0.00000000000E+00 0. -1.
<scales pt_clust_5="13000.00000" pt_clust_6="13000.00000" pt_clust_7="13000.00000" pt_clust_8="13000.00000" pt_clust_9="52.81400"></scales>
<clustering>
<clus scale="   52.814">  1  9  2 -1</clus>
<clus scale="   89.782">  7  8 -1 -1</clus>
<clus scale="   90.181">  1  7  2 -1</clus>
<clus scale="  106.747">  5  6 -1 -1</clus>
<clus scale="   52.814">  1  5  2 -1</clus>
</clustering>
</event>
<event>
 9    1  0.2423659E-006  0.1130255E+03  0.7546771E-02  0.1255870E+00
          1   -1    0    0  502    0  0.00000000000E+00  0.00000000000E+00  0.28213780482E+03  0.28213780482E+03  0.00000000000E+00 0. -1.
         -1   -1    0    0    0  501 -0.00000000000E+00 -0.00000000000E+00 -0.29413004615E+03  0.29413004615E+03  0.00000000000E+00 0.  1.
         23    2    1    2    0    0  0.44935446918E+02  0.45218459829E+02 -0.25015776028E+03  0.27425196136E+03  0.92581476438E+02 0.  0.
         23    2    1    2    0    0  0.18573658164E+02 -0.65767291151E+02  0.12862280686E+03  0.17373780625E+03  0.94713681764E+02 0.  0.
        -13    1    3    3    0    0  0.46519834778E+02 -0.16845417371E+02 -0.94463154753E+02  0.10663559781E+03  0.00000000000E+00 0. -1.
         13    1    3    3    0    0 -0.15843878605E+01  0.62063877199E+02 -0.15569460553E+03  0.16761636355E+03  0.00000000000E+00 0.  1.
        -13    1    4    4    0    0  0.27980936258E+02 -0.11708019909E+02 -0.36352940793E+01  0.30548746081E+02  0.00000000000E+00 0.  1.
         13    1    4    4    0    0 -0.94072780935E+01 -0.54059271242E+02  0.13225810094E+03  0.14318906017E+03  0.00000000000E+00 0. -1.
         21    1    1    2  502  501 -0.63509105082E+02  0.20548831322E+02  0.10954271209E+03  0.12827808336E+03  0.00000000000E+00 0. -1.
<scales pt_clust_5="13000.00000" pt_clust_6="13000.00000" pt_clust_7="13000.00000" pt_clust_8="13000.00000" pt_clust_9="66.75074"></scales>
<clustering>
<clus scale="   66.751">  1  9  2 -1</clus>
<clus scale="   92.581">  5  6 -1 -1</clus>
<clus scale="   94.714">  7  8 -1 -1</clus>
<clus scale="  111.245">  2  5  1 -1</clus>
<clus scale="   66.751">  1  5  2 -1</clus>
</clustering>
</event>
<event>
 9    1  0.2423659E-006  0.9909470E+02  0.7546771E-02  0.1283139E+00
         -3   -1    0    0    0  501 -0.00000000000E+00  0.00000000000E+00  0.53728007376E+02  0.53728007376E+02  0.00000000000E+00 0.  1.
          3   -1    0    0  502    0  0.00000000000E+00 -0.00000000000E+00 -0.68653296828E+03  0.68653296828E+03  0.00000000000E+00 0. -1.
         23    2    1    2    0    0 -0.36834510469E+02  0.18177409111E+02 -0.27756814020E+02  0.10192127611E+03  0.89052268002E+02 0.  0.
         23    2    1    2    0    0 -0.15857295694E+02 -0.74432693936E+02 -0.27619383987E+03  0.30057315479E+03  0.90936815704E+02 0.  0.
        -13    1    3    3    0    0 -0.15741381103E+02  0.36858550346E+02  0.21270758524E+02  0.45373879940E+02  0.00000000000E+00 0.  1.
         13    1    3    3    0    0 -0.21093129367E+02 -0.18681141235E+02 -0.49027572544E+02  0.56547396172E+02  0.00000000000E+00 0. -1.
        -13    1    4    4    0    0  0.76793469377E+01 -0.88498750861E+02 -0.18285634301E+03  0.20329152331E+03  0.00000000000E+00 0. -1.
         13    1    4    4    0    0 -0.23536642632E+02  0.14066056925E+02 -0.93337496859E+02  0.97281631481E+02  0.00000000000E+00 0.  1.
         21    1    1    2  502  501  0.52691806163E+02  0.56255284825E+02 -0.32885430702E+03  0.33776654475E+03  0.00000000000E+00 0. -1.
<scales pt_clust_5="13000.00000" pt_clust_6="13000.00000" pt_clust_7="13000.00000" pt_clust_8="13000.00000" pt_clust_9="77.07842"></scales>
<clustering>
<clus scale="   77.078">  2  9  1 -1</clus>
<clus scale="   89.052">  5  6 -1 -1</clus>
<clus scale="   90.937">  7  8 -1 -1</clus>
<clus scale="   97.368">  1  5  2 -1</clus>
<clus scale="   77.078">  2  5  1 -1</clus>
</clustering>
</event>
<event>
 9    1  0.2423659E-006  0.1132718E+03  0.7546771E-02  0.1254795E+00
         -2   -1    0    0    0  501 -0.00000000000E+00  0.00000000000E+00  0.45619156557E+02  0.45619156557E+02  0.00000000000E+00 0.  1.
          2   -1    0    0  502    0  0.00000000000E+00 -0.00000000000E+00 -0.42270464789E+03  0.42270464789E+03  0.00000000000E+00 0. -1.
         23    2    1    2    0    0  0.70281205113E+02 -0.25513494949E+02 -0.83738062602E+02  0.14525594459E+03  0.92178305981E+02 0.  0.
         23    2    1    2    0    0 -0.49706125503E+02  0.38518633162E+01 -0.20975714382E+03  0.23429908203E+03  0.91719489163E+02 0.  0.
        -11    1    3    3    0    0  0.80773955807E+02  0.13922114838E+01 -0.33806466596E+02  0.87574239210E+02  0.00000000000E+00 0.  1.
         11    1    3    3    0    0 -0.10492750694E+02 -0.26905706433E+02 -0.49931596005E+02  0.57681705379E+02  0.00000000000E+00 0. -1.
        -13    1    4    4    0    0  0.44250247440E+00  0.40663074921E+02 -0.64066184334E+02  0.75882523980E+02  0.00000000000E+00 0.  1.
         13    1    4    4    0    0 -0.50148627977E+02 -0.36811211605E+02 -0.14569095948E+03  0.15841655805E+03  0.00000000000E+00 0. -1.
         21    1    1    2  502  501 -0.20575079611E+02  0.21661631633E+02 -0.83590284917E+02  0.88768777836E+02  0.00000000000E+00 0. -1.
<scales pt_clust_5="13000.00000" pt_clust_6="13000.00000" pt_clust_7="13000.00000" pt_clust_8="13000.00000" pt_clust_9="29.87575"></scales>
<clustering>
<clus scale="   29.876">  2  9  1 -1</clus>
<clus scale="   91.719">  7  8 -1 -1</clus>
<clus scale="   92.178">  5  6 -1 -1</clus>
<clus scale="  112.899">  2  7  1 -1</clus>
<clus scale="   29.876">  2  5  1 -1</clus>
</clustering>
</event>
<event>
 9    1  0.2423659E-006  0.9319535E+02  0.7546771E-02  0.1296027E+00
          2   -1    0    0  502    0  0.00000000000E+00  0.00000000000E+00  0.99088196152E+02  0.99088196152E+02  0.00000000000E+00 0. -1.
         -2   -1    0    0    0  501 -0.00000000000E+00 -0.00000000000E+00 -0.29547616516E+03  0.29547616516E+03  0.00000000000E+00 0.  1.
         23    2    1    2    0    0  0.13378803895E+02  0.86929342297E+00 -0.21556287329E+03  0.23461188129E+03  0.91627694709E+02 0.  0.
         23    2    1    2    0    0  0.36289000613E+02  0.11177442063E+02  0.35268952460E+02  0.10637045853E+03  0.92892134564E+02 0.  0.
        -11    1    4    4    0    0  0.52117416881E+02 -0.22964506778E+02  0.38273413907E+02  0.68618131175E+02  0.00000000000E+00 0.  1.
         11    1    4    4    0    0 -0.15828416267E+02  0.34141948841E+02 -0.30044614478E+01  0.37752327355E+02  0.00000000000E+00 0. -1.
        -13    1    3    3    0    0  0.36686920562E+02 -0.23618441590E+02 -0.18130645258E+03  0.18648268195E+03  0.00000000000E+00 0.  1.
         13    1    3    3    0    0 -0.23308116667E+02  0.24487735013E+02 -0.34256420711E+02  0.48129199335E+02  0.00000000000E+00 0. -1.
         21    1    1    2  502  501 -0.49667804508E+02 -0.12046735486E+02 -0.16094048184E+02  0.53582021495E+02  0.00000000000E+00 0. -1.
<scales pt_clust_5="13000.00000" pt_clust_6="13000.00000" pt_clust_7="13000.00000" pt_clust_8="13000.00000" pt_clust_9="51.10787"></scales>
<clustering>
<clus scale="   51.108">  1  9  2 -1</clus>
<clus scale="   91.628">  7  8 -1 -1</clus>
<clus scale="   91.935">  2  7  1 -1</clus>
<clus scale="   92.892">  5  6 -1 -1</clus>
<clus scale="   51.108">  1  5  2 -1</clus>
</clustering>
</event>
<event>
 9    1  0.2423659E-006  0.1033280E+03  0.7546771E-02  0.1273977E+00
         -1   -1    0    0    0  501 -0.00000000000E+00  0.00000000000E+00  0.25879222151E+03  0.25879222151E+03  0.00000000000E+00 0.  1.
          1   -1    0    0  502    0  0.00000000000E+00 -0.00000000000E+00 -0.16222246219E+03  0.16222246219E+03  0.00000000000E+00 0. -1.
         23    2    1    2    0    0  0.80774162520E+02 -0.20188787102E+02  0.19605513998E+03  0.23080358027E+03  0.88885444797E+02 0.  0.
         23    2    1    2    0    0 -0.41162869453E+02  0.24320878032E+02 -0.10899201466E+03  0.14926595959E+03  0.90084296644E+02 0.  0.
        -13    1    3    3    0    0  0.48088347725E+02  0.30212351871E+02  0.63016893763E+02  0.84831623184E+02  0.00000000000E+00 0. -1.
         13    1    3    3    0    0  0.32685814795E+02 -0.50401138973E+02  0.13303824622E+03  0.14597195708E+03  0.00000000000E+00 0.  1.
        -13    1    4    4    0    0 -0.16706802421E+02  0.48310449853E+02 -0.10230029577E+03  0.11436068961E+03  0.00000000000E+00 0. -1.
         13    1    4    4    0    0 -0.24456067033E+02 -0.23989571820E+02 -0.66917188899E+01  0.34905269982E+02  0.00000000000E+00 0.  1.
         21    1    1    2  502  501 -0.39611293067E+02 -0.41320909308E+01  0.95066340042E+01  0.40945143839E+02  0.00000000000E+00 0.  1.
<scales pt_clust_5="13000.00000" pt_clust_6="13000.00000" pt_clust_7="13000.00000" pt_clust_8="13000.00000" pt_clust_9="39.82623"></scales>
<clustering>
<clus scale="   39.826">  1  9  2 -1</clus>
<clus scale="   88.885">  5  6 -1 -1</clus>
<clus scale="   90.084">  7  8 -1 -1</clus>
<clus scale="  102.285">  1  5  2 -1</clus>
<clus scale="  103.328">  2  5  1 -1</clus>
</clustering>
</event>
<event>
 9    1  0.2423659E-006  0.9791927E+02  0.7546771E-02  0.1285778E+00
          2   -1    0    0  502    0  0.00000000000E+00  0.00000000000E+00  0.13492972732E+03  0.13492972732E+03  0.00000000000E+00 0. -1.
         -2   -1    0    0    0  501 -0.00000000000E+00 -0.00000000000E+00 -0.13965898447E+03  0.13965898447E+03  0.00000000000E+00 0.  1.
         23    2    1    2    0    0 -0.48943267884E+01  0.40168072642E+02 -0.79818816891E+02  0.12598664629E+03  0.88680116253E+02 0.  0.
         23    2    1    2    0    0 -0.22453906201E+02 -0.24649097817E+02  0.53958753161E+02  0.11071703662E+03  0.90746676124E+02 0.  0.
        -13    1    3    3    0    0  0.14542518720E+02 -0.17089915178E+02 -0.57171277274E+02  0.61417464916E+02  0.00000000000E+00 0.  1.
         13    1    3    3    0    0 -0.19436845509E+02  0.57257987820E+02 -0.22647539617E+02  0.64569181373E+02  0.00000000000E+00 0. -1.
        -13    1    4    4    0    0  0.16029549452E+02  0.24001269836E+02  0.35995239743E+02  0.46137454347E+02  0.00000000000E+00 0.  1.
         13    1    4    4    0    0 -0.38483455654E+02 -0.48650367653E+02  0.17963513418E+02  0.64579582270E+02  0.00000000000E+00 0. -1.
         21    1    1    2  502  501  0.27348232990E+02 -0.15518974825E+02  0.21130806580E+02  0.37885028890E+02  0.00000000000E+00 0.  1.
<scales pt_clust_5="13000.00000" pt_clust_6="13000.00000" pt_clust_7="13000.00000" pt_clust_8="13000.00000" pt_clust_9="31.44462"></scales>
<clustering>
<clus scale="   31.445">  1  9  2 -1</clus>
<clus scale="   88.680">  5  6 -1 -1</clus>
<clus scale="   90.747">  7  8 -1 -1</clus>
<clus scale="   96.007">  2  5  1 -1</clus>
<clus scale="   31.445">  1  5  2 -1</clus>
</clustering>
</event>
<event>
 9    1  0.2423659E-006  0.1099267E+03  0.7546771E-02  0.1261320E+00
         -2   -1    0    0    0  501 -0.00000000000E+00  0.00000000000E+00  0.28925132528E+03  0.28925132528E+03  0.00000000000E+00 0.  1.
          2   -1    0    0  502    0  0.00000000000E+00 -0.00000000000E+00 -0.71571212095E+03  0.71571212095E+03  0.00000000000E+00 0. -1.
         23    2    1    2    0    0 -0.27208149560E+02 -0.53756746549E+02  0.25415134321E+03  0.27666136664E+03  0.91206004935E+02 0.  0.
         23    2    1    2    0    0 -0.46774021948E+02  0.64426887369E+02 -0.15503363883E+03  0.19743488968E+03  0.92771081435E+02 0.  0.
        -11    1    4    4    0    0 -0.69682373389E+02  0.38572538732E+02 -0.13699604661E+03  0.15846573980E+03  0.00000000000E+00 0.  1.
         11    1    4    4    0    0  0.22908351441E+02  0.25854348637E+02 -0.18037592221E+02  0.38969149880E+02  0.00000000000E+00 0. -1.
        -11    1    3    3    0    0 -0.24423554478E+02  0.12291622053E+02  0.15564913263E+03  0.15803242223E+03  0.00000000000E+00 0.  1.
         11    1    3    3    0    0 -0.27845950821E+01 -0.66048368602E+02  0.98502210580E+02  0.11862894442E+03  0.00000000000E+00 0. -1.
         21    1    1    2  502  501  0.73982171509E+02 -0.10670140820E+02 -0.52557850005E+03  0.53086718991E+03  0.00000000000E+00 0. -1.
<scales pt_clust_5="13000.00000" pt_clust_6="13000.00000" pt_clust_7="13000.00000" pt_clust_8="13000.00000" pt_clust_9="74.74767"></scales>
<clustering>
<clus scale="   74.748">  2  9  1 -1</clus>
<clus scale="   91.206">  7  8 -1 -1</clus>
<clus scale="   92.771">  5  6 -1 -1</clus>
<clus scale="  108.609">  1  7  2 -1</clus>
<clus scale="   74.748">  2  5  1 -1</clus>
</clustering>
</event>
<event>
 9    1  0.2423659E-006  0.1118984E+03  0.7546771E-02  0.1257171E+00
          1   -1    0    0  502    0  0.00000000000E+00  0.00000000000E+00  0.15213060429E+03  0.15213060429E+03  0.00000000000E+00 0. -1.
         -1   -1    0    0    0  501 -0.00000000000E+00 -0.00000000000E+00 -0.46901100588E+03  0.46901100588E+03  0.00000000000E+00 0.  1.
         23    2    1    2    0    0 -0.87648497869E+02 -0.41240252289E+02 -0.10199912932E+02  0.13259882107E+03  0.89974393787E+02 0.  0.
         23    2    1    2    0    0 -0.14435789985E+02  0.74194349076E+02  0.41063307512E+02  0.12462944489E+03  0.90183755979E+02 0.  0.
        -13    1    3    3    0    0 -0.63655267046E+02 -0.65192031684E+01  0.33177094518E+02  0.72077823450E+02  0.00000000000E+00 0. -1.
         13    1    3    3    0    0 -0.23993230823E+02 -0.34721049121E+02 -0.43377007450E+02  0.60520997618E+02  0.00000000000E+00 0.  1.
        -13    1    4    4    0    0  0.36139435891E+01  0.90489226239E+02  0.42968414828E+02  0.10023794355E+03  0.00000000000E+00 0. -1.
         13    1    4    4    0    0 -0.18049733574E+02 -0.16294877164E+02 -0.19051073160E+01  0.24391501343E+02  0.00000000000E+00 0.  1.
         21    1    1    2  502  501  0.10208428785E+03 -0.32954096786E+02 -0.34774379617E+03  0.36391334421E+03  0.00000000000E+00 0.  1.
<scales pt_clust_5="13000.00000" pt_clust_6="13000.00000" pt_clust_7="13000.00000" pt_clust_8="13000.00000" pt_clust_9="107.27150"></scales>
<clustering>
<clus scale="   89.974">  5  6 -1 -1</clus>
<clus scale="   90.184">  7  8 -1 -1</clus>
<clus scale="  107.271">  2  9  1 -1</clus>
<clus scale="  111.730">  2  5  1 -1</clus>
<clus scale="  111.898">  1  5  2 -1</clus>
</clustering>
</event>
<event>
 9    1  0.2423659E-006  0.2775147E+03  0.7546771E-02  0.1122264E+00
         -1   -1    0    0    0  501 -0.00000000000E+00  0.00000000000E+00  0.21091244325E+03  0.21091244325E+03  0.00000000000E+00 0.  1.
          1   -1    0    0  502    0  0.00000000000E+00 -0.00000000000E+00 -0.90881801544E+03  0.90881801544E+03  0.00000000000E+00 0. -1.
         23    2    1    2    0    0  0.99700088336E+02  0.23854206577E+03  0.18249125873E+02  0.27194586313E+03  0.82335272667E+02 0.  0.
         23    2    1    2    0    0 -0.90700854111E+02  0.68994265482E+02 -0.23899405956E+03  0.28003301590E+03  0.91178264335E+02 0.  0.
        -13    1    3    3    0    0  0.70915419202E+02  0.14879951246E+03  0.50399579057E+02  0.17236707678E+03  0.00000000000E+00 0.  1.
         13    1    3    3    0    0  0.28784669134E+02  0.89742553311E+02 -0.32150453184E+02  0.99578786354E+02  0.00000000000E+00 0. -1.
        -13    1    4    4    0    0 -0.15620848677E+02  0.59676642742E+02 -0.61589430148E+02  0.87169779788E+02  0.00000000000E+00 0.  1.
         13    1    4    4    0    0 -0.75080005435E+02  0.93176227403E+01 -0.17740462941E+03  0.19286323612E+03  0.00000000000E+00 0. -1.
         21    1    1    2  502  501 -0.89992342250E+01 -0.30753633125E+03 -0.47716063851E+03  0.56775157965E+03  0.00000000000E+00 0. -1.
<scales pt_clust_5="13000.00000" pt_clust_6="13000.00000" pt_clust_7="13000.00000" pt_clust_8="13000.00000" pt_clust_9="265.01949"></scales>
<clustering>
<clus scale="   82.335">  5  6 -1 -1</clus>
<clus scale="   91.178">  7  8 -1 -1</clus>
<clus scale="  145.946">  2  7  1 -1</clus>
<clus scale="  265.019">  2  9  1 -1</clus>
<clus scale="  145.946">  2  5  1 -1</clus>
</clustering>
</event>
<event>
 9    1  0.2423659E-006  0.1221577E+03  0.7546771E-02  0.1240139E+00
         -2   -1    0    0    0  501 -0.00000000000E+00  0.00000000000E+00  0.14280335851E+03  0.14280335851E+03  0.00000000000E+00 0.  1.
          2   -1    0    0  502    0  0.00000000000E+00 -0.00000000000E+00 -0.14135004292E+03  0.14135004292E+03  0.00000000000E+00 0. -1.
         23    2    1    2    0    0  0.81546715568E+02  0.44813546834E+02  0.18174332223E+02  0.13261162326E+03  0.92722249062E+02 0.  0.
         23    2    1    2    0    0 -0.61844050508E+02 -0.29047748601E+02 -0.33377618445E+02  0.12130607431E+03  0.94512644500E+02 0.  0.
        -11    1    3    3    0    0  0.40399492643E+01 -0.21776691686E+02  0.20814050075E+02  0.30393587668E+02  0.00000000000E+00 0. -1.
         11    1    3    3    0    0  0.77506766304E+02  0.66590238520E+02 -0.26397178514E+01  0.10221803559E+03  0.00000000000E+00 0.  1.
        -13    1    4    4    0    0 -0.81679829503E+01 -0.23873811721E+02  0.29271196649E+02  0.38645540297E+02  0.00000000000E+00 0.  1.
         13    1    4    4    0    0 -0.53676067558E+02 -0.51739368804E+01 -0.62648815095E+02  0.82660534017E+02  0.00000000000E+00 0. -1.
         21    1    1    2  502  501 -0.19702665060E+02 -0.15765798233E+02  0.16656601805E+02  0.30235703863E+02  0.00000000000E+00 0. -1.
<scales pt_clust_5="13000.00000" pt_clust_6="13000.00000" pt_clust_7="13000.00000" pt_clust_8="13000.00000" pt_clust_9="25.23401"></scales>
<clustering>
<clus scale="   25.234">  1  9  2 -1</clus>
<clus scale="   92.722">  5  6 -1 -1</clus>
<clus scale="   94.513">  7  8 -1 -1</clus>
<clus scale="  120.778">  1  5  2 -1</clus>
<clus scale="  122.158">  2  5  1 -1</clus>
</clustering>
</event>
<event>
 9    1  0.2423659E-006  0.1631999E+03  0.7546771E-02  0.1186415E+00
          2   -1    0    0  502    0  0.00000000000E+00  0.00000000000E+00  0.40355949797E+03  0.40355949797E+03  0.00000000000E+00 0. -1.
         -2   -1    0    0    0  501 -0.00000000000E+00 -0.00000000000E+00 -0.42459176666E+03  0.42459176666E+03  0.00000000000E+00 0.  1.
         23    2    1    2    0    0 -0.39172322196E+02 -0.12451953844E+03 -0.28367764228E+03  0.32567596217E+03  0.92478328966E+02 0.  0.
         23    2    1    2    0    0 -0.12830902284E+03 -0.19952742271E+02 -0.65541213009E+00  0.15860098735E+03  0.91063309601E+02 0.  0.
        -11    1    4    4    0    0 -0.56743569919E+02 -0.43175024711E+02 -0.30641522533E+02  0.77606819217E+02  0.00000000000E+00 0. -1.
         11    1    4    4    0    0 -0.71565452926E+02  0.23222282440E+02  0.29986110403E+02  0.80994168131E+02  0.00000000000E+00 0.  1.
        -13    1    3    3    0    0 -0.17516504310E+02 -0.11112309665E+03 -0.13921414275E+03  0.17898532921E+03  0.00000000000E+00 0.  1.
         13    1    3    3    0    0 -0.21655817886E+02 -0.13396441787E+02 -0.14446349954E+03  0.14669063296E+03  0.00000000000E+00 0. -1.
         21    1    1    2  502  501  0.16748134504E+03  0.14447228071E+03  0.26330078572E+03  0.34387431510E+03  0.00000000000E+00 0. -1.
<scales pt_clust_5="13000.00000" pt_clust_6="13000.00000" pt_clust_7="13000.00000" pt_clust_8="13000.00000" pt_clust_9="134.46920"></scales>
<clustering>
<clus scale="   91.063">  5  6 -1 -1</clus>
<clus scale="   92.478">  7  8 -1 -1</clus>
<clus scale="  158.600">  1  5  2 -1</clus>
<clus scale="  134.469">  1  9  2 -1</clus>
<clus scale="  158.600">  1  5  2 -1</clus>
</clustering>
</event>
<event>
 9    1  0.2423659E-006  0.1851281E+03  0.7546771E-02  0.1181552E+00
          3   -1    0    0  502    0  0.00000000000E+00  0.00000000000E+00  0.16320645937E+03  0.16320645937E+03  0.00000000000E+00 0. -1.
         -3   -1    0    0    0  501 -0.00000000000E+00 -0.00000000000E+00 -0.65987658340E+03  0.65987658340E+03  0.00000000000E+00 0.  1.
         23    2    1    2    0    0  0.84738915388E+01 -0.79892193859E+02 -0.23000495305E+03  0.25994491940E+03  0.90633951768E+02 0.  0.
         23    2    1    2    0    0  0.35142438492E+01 -0.14778439514E+03  0.42570957886E+02  0.17894113228E+03  0.91406044711E+02 0.  0.
        -11    1    4    4    0    0 -0.33599398765E+02 -0.12611146433E+03  0.27338216869E+02  0.13334316306E+03  0.00000000000E+00 0.  1.
         11    1    4    4    0    0  0.37113642615E+02 -0.21672930803E+02  0.15232741017E+02  0.45597969216E+02  0.00000000000E+00 0. -1.
        -11    1    3    3    0    0  0.42539501708E+02 -0.28264977610E+02 -0.15225252689E+03  0.16059062896E+03  0.00000000000E+00 0.  1.
         11    1    3    3    0    0 -0.34065610169E+02 -0.51627216250E+02 -0.77752426159E+02  0.99354290434E+02  0.00000000000E+00 0. -1.
         21    1    1    2  502  501 -0.11988135388E+02  0.22767658900E+03 -0.30923612886E+03  0.38419699109E+03  0.00000000000E+00 0.  1.
<scales pt_clust_5="13000.00000" pt_clust_6="13000.00000" pt_clust_7="13000.00000" pt_clust_8="13000.00000" pt_clust_9="160.98870"></scales>
<clustering>
<clus scale="   90.634">  7  8 -1 -1</clus>
<clus scale="   91.406">  5  6 -1 -1</clus>
<clus scale="  121.116">  2  7  1 -1</clus>
<clus scale="  160.989">  2  9  1 -1</clus>
<clus scale="  185.128">  1  5  2 -1</clus>
</clustering>
</event>
<event>
 9    1  0.2423659E-006  0.1454366E+03  0.7546771E-02  0.1206808E+00
         -2   -1    0    0    0  501 -0.00000000000E+00  0.00000000000E+00  0.24952581108E+03  0.24952581108E+03  0.00000000000E+00 0.  1.
          2   -1    0    0  502    0  0.00000000000E+00 -0.00000000000E+00 -0.86706677761E+03  0.86706677761E+03  0.00000000000E+00 0. -1.
         23    2    1    2    0    0 -0.10346825146E+03 -0.30066385596E+02  0.18972269273E+03  0.23606304472E+03  0.90118779061E+02 0.  0.
         23    2    1    2    0    0  0.18882317773E+03  0.10724127174E+03 -0.55978431118E+03  0.60760564577E+03  0.93119616139E+02 0.  0.
        -11    1    4    4    0    0  0.58174393833E+01  0.21588618227E+02 -0.15997921960E+02  0.27492627102E+02  0.00000000000E+00 0.  1.
         11    1    4    4    0    0  0.18300573834E+03  0.85652653515E+02 -0.54378638922E+03  0.58011301867E+03  0.00000000000E+00 0. -1.
        -13    1    3    3    0    0 -0.29616640012E+02 -0.11019178415E+02  0.14337570252E+03  0.14681675562E+03  0.00000000000E+00 0.  1.
         13    1    3    3    0    0 -0.73851611452E+02 -0.19047207182E+02  0.46346990214E+02  0.89246289096E+02  0.00000000000E+00 0. -1.
         21    1    1    2  502  501 -0.85354926263E+02 -0.77174886145E+02 -0.24747934808E+03  0.27292389821E+03  0.00000000000E+00 0. -1.
<scales pt_clust_5="13000.00000" pt_clust_6="13000.00000" pt_clust_7="13000.00000" pt_clust_8="13000.00000" pt_clust_9="115.07140"></scales>
<clustering>
<clus scale="   90.119">  7  8 -1 -1</clus>
<clus scale="   93.120">  5  6 -1 -1</clus>
<clus scale="  115.071">  2  9  1 -1</clus>
<clus scale="  143.534">  1  7  2 -1</clus>
<clus scale="  115.071">  2  5  1 -1</clus>
</clustering>
</event>
<event>
 9    1  0.2423659E-006  0.1316710E+03  0.7546771E-02  0.1225190E+00
         -1   -1    0    0    0  501 -0.00000000000E+00  0.00000000000E+00  0.30379878627E+03  0.30379878627E+03  0.00000000000E+00 0.  1.
          1   -1    0    0  502    0  0.00000000000E+00 -0.00000000000E+00 -0.33734048773E+03  0.33734048773E+03  0.00000000000E+00 0. -1.
         23    2    1    2    0    0 -0.56353507187E+02  0.69555818092E+02  0.20905618246E+03  0.24538433372E+03  0.92169703322E+02 0.  0.
         23    2    1    2    0    0  0.94747140269E+02 -0.65918655816E+02  0.28802835310E+01  0.14726584453E+03  0.91414676923E+02 0.  0.
        -13    1    3    3    0    0  0.23826044422E+02  0.13041342368E+02  0.25476923192E+02  0.37240174797E+02  0.00000000000E+00 0.  1.
         13    1    3    3    0    0 -0.80179551610E+02  0.56514475723E+02  0.18357925927E+03  0.20814415893E+03  0.00000000000E+00 0. -1.
        -13    1    4    4    0    0  0.67499926579E+02 -0.33809862264E+02 -0.41447902419E+02  0.86123605878E+02  0.00000000000E+00 0. -1.
         13    1    4    4    0    0  0.27247213690E+02 -0.32108793552E+02  0.44328185950E+02  0.61142238648E+02  0.00000000000E+00 0.  1.
         21    1    1    2  502  501 -0.38393633082E+02 -0.36371622760E+01 -0.24547816745E+03  0.24848909574E+03  0.00000000000E+00 0. -1.
<scales pt_clust_5="13000.00000" pt_clust_6="13000.00000" pt_clust_7="13000.00000" pt_clust_8="13000.00000" pt_clust_9="38.56553"></scales>
<clustering>
<clus scale="   38.566">  2  9  1 -1</clus>
<clus scale="   91.415">  7  8 -1 -1</clus>
<clus scale="   92.170">  5  6 -1 -1</clus>
<clus scale="  131.144">  2  7  1 -1</clus>
<clus scale="   38.566">  2  5  1 -1</clus>
</clustering>
</event>
<event>
 9    1  0.2423659E-006  0.2019873E+03  0.7546771E-02  0.1160961E+00
         -1   -1    0    0    0  501 -0.00000000000E+00  0.00000000000E+00  0.42660839375E+03  0.42660839375E+03  0.00000000000E+00 0.  1.
          1   -1    0    0  502    0  0.00000000000E+00 -0.00000000000E+00 -0.18120694220E+03  0.18120694220E+03  0.00000000000E+00 0. -1.
         23    2    1    2    0    0 -0.14364410621E+03 -0.43550181661E+02  0.41711303054E+01  0.17572612794E+03  0.91279932863E+02 0.  0.
         23    2    1    2    0    0 -0.55602657721E+02  0.78148064844E+02  0.60935366567E+02  0.16116014508E+03  0.11428341033E+03 0.  0.
        -11    1    4    4    0    0 -0.65593557976E+02 -0.19242686886E+01  0.11770713708E+02  0.66669088483E+02  0.00000000000E+00 0.  1.
         11    1    4    4    0    0  0.99909002551E+01  0.80072333532E+02  0.49164652859E+02  0.94491056592E+02  0.00000000000E+00 0. -1.
        -13    1    3    3    0    0 -0.11221094504E+03 -0.71904144244E+02  0.53230168904E+01  0.13337854645E+03  0.00000000000E+00 0. -1.
         13    1    3    3    0    0 -0.31433161171E+02  0.28353962583E+02 -0.11518865850E+01  0.42347581490E+02  0.00000000000E+00 0.  1.
         21    1    1    2  502  501  0.19924676393E+03 -0.34597883182E+02  0.18029495468E+03  0.27092906293E+03  0.00000000000E+00 0.  1.
<scales pt_clust_5="13000.00000" pt_clust_6="13000.00000" pt_clust_7="13000.00000" pt_clust_8="13000.00000" pt_clust_9="180.18557"></scales>
<clustering>
<clus scale="   91.280">  7  8 -1 -1</clus>
<clus scale="  114.283">  5  6 -1 -1</clus>
<clus scale="  149.196">  2  5  1 -1</clus>
<clus scale="  180.186">  1  9  2 -1</clus>
<clus scale="  149.196">  2  5  1 -1</clus>
</clustering>
</event>
<event>
 9    1  0.2423659E-006  0.1116658E+03  0.7546771E-02  0.1262457E+00
         -1   -1    0    0    0  501 -0.00000000000E+00  0.00000000000E+00  0.13671774512E+03  0.13671774512E+03  0.00000000000E+00 0.  1.
          1   -1    0    0  502    0  0.00000000000E+00 -0.00000000000E+00 -0.16787695743E+03  0.16787695743E+03  0.00000000000E+00 0. -1.
         23    2    1    2    0    0 -0.45039098837E+02  0.39260699519E+02  0.23865483681E+02  0.12218306752E+03  0.10387115926E+03 0.  0.
         23    2    1    2    0    0 -0.18728107948E+02 -0.41703449616E+02 -0.58055620385E+02  0.11852571959E+03  0.92671308439E+02 0.  0.
        -11    1    3    3    0    0 -0.16841820276E+02 -0.34238820765E+02  0.20669439148E+02  0.43395500600E+02  0.00000000000E+00 0. -1.
         11    1    3    3    0    0 -0.28197278561E+02  0.73499520284E+02  0.31960445334E+01  0.78787566919E+02  0.00000000000E+00 0.  1.
        -13    1    4    4    0    0 -0.29635663844E+02  0.22879740385E+02 -0.26165129937E+02  0.45676789687E+02  0.00000000000E+00 0.  1.
         13    1    4    4    0    0  0.10907555895E+02 -0.64583190001E+02 -0.31890490449E+02  0.72848929899E+02  0.00000000000E+00 0. -1.
         21    1    1    2  502  501  0.63767206786E+02  0.24427500965E+01  0.30309243912E+01  0.63885915443E+02  0.00000000000E+00 0.  1.
<scales pt_clust_5="13000.00000" pt_clust_6="13000.00000" pt_clust_7="13000.00000" pt_clust_8="13000.00000" pt_clust_9="63.81398"></scales>
<clustering>
<clus scale="   63.814">  1  9  2 -1</clus>
<clus scale="   92.671">  7  8 -1 -1</clus>
<clus scale="  101.331">  2  7  1 -1</clus>
<clus scale="  103.871">  5  6 -1 -1</clus>
<clus scale="  101.331">  2  5  1 -1</clus>
</clustering>
</event>
<event>
 9    1  0.2423659E-006  0.9652277E+02  0.7546771E-02  0.1288902E+00
          1   -1    0    0  502    0  0.00000000000E+00  0.00000000000E+00  0.35094368484E+03  0.35094368484E+03  0.00000000000E+00 0. -1.
         -1   -1    0    0    0  501 -0.00000000000E+00 -0.00000000000E+00 -0.50117391276E+02  0.50117391276E+02  0.00000000000E+00 0.  1.
         23    2    1    2    0    0  0.49011680295E+01  0.67571995928E+01  0.40004318685E+02  0.10144737567E+03  0.92852266109E+02 0.  0.
         23    2    1    2    0    0  0.37152270335E+02  0.41823498704E+01  0.21561935012E+03  0.23691248271E+03  0.90763633011E+02 0.  0.
        -11    1    4    4    0    0  0.57044465118E+02 -0.22839657056E+02  0.16604695994E+03  0.17705172646E+03  0.00000000000E+00 0. -1.
         11    1    4    4    0    0 -0.19892194783E+02  0.27022006927E+02  0.49572390180E+02  0.59860756258E+02  0.00000000000E+00 0.  1.
        -11    1    3    3    0    0 -0.41230106553E+02 -0.55042217264E+01  0.42581430416E+01  0.41813274511E+02  0.00000000000E+00 0. -1.
         11    1    3    3    0    0  0.46131274583E+02  0.12261421319E+02  0.35746175643E+02  0.59634101154E+02  0.00000000000E+00 0.  1.
         21    1    1    2  502  501 -0.42053438365E+02 -0.10939549463E+02  0.45202624757E+02  0.62701217737E+02  0.00000000000E+00 0. -1.
<scales pt_clust_5="13000.00000" pt_clust_6="13000.00000" pt_clust_7="13000.00000" pt_clust_8="13000.00000" pt_clust_9="43.45303"></scales>
<clustering>
<clus scale="   43.453">  2  9  1 -1</clus>
<clus scale="   90.764">  5  6 -1 -1</clus>
<clus scale="   92.852">  7  8 -1 -1</clus>
<clus scale="   94.515">  1  5  2 -1</clus>
<clus scale="   94.515">  1  5  2 -1</clus>
</clustering>
</event>
<event>
 9    1  0.2423659E-006  0.1135046E+03  0.7546771E-02  0.1256541E+00
          2   -1    0    0  502    0  0.00000000000E+00  0.00000000000E+00  0.67090074509E+03  0.67090074509E+03  0.00000000000E+00 0. -1.
         -2   -1    0    0    0  501 -0.00000000000E+00 -0.00000000000E+00 -0.33302583451E+02  0.33302583451E+02  0.00000000000E+00 0.  1.
         23    2    1    2    0    0 -0.15014562220E+01 -0.56465693299E+02  0.14281008523E+03  0.18181413880E+03  0.97319225915E+02 0.  0.
         23    2    1    2    0    0 -0.42990796216E+02  0.46947426375E+02  0.42298277777E+03  0.43738237328E+03  0.91305206665E+02 0.  0.
        -11    1    4    4    0    0 -0.31400376567E+02  0.65261876253E+02  0.39697551547E+03  0.40352776364E+03  0.00000000000E+00 0. -1.
         11    1    4    4    0    0 -0.11590419649E+02 -0.18314449878E+02  0.26007262299E+02  0.33854609646E+02  0.00000000000E+00 0.  1.
        -11    1    3    3    0    0 -0.44435928846E+02 -0.84891092925E+01  0.79783733372E+02  0.91717287682E+02  0.00000000000E+00 0. -1.
         11    1    3    3    0    0  0.42934472624E+02 -0.47976584006E+02  0.63026351858E+02  0.90096851115E+02  0.00000000000E+00 0.  1.
         21    1    1    2  502  501  0.44492252438E+02  0.95182669241E+01  0.71805298633E+02  0.85006816456E+02  0.00000000000E+00 0. -1.
<scales pt_clust_5="13000.00000" pt_clust_6="13000.00000" pt_clust_7="13000.00000" pt_clust_8="13000.00000" pt_clust_9="45.49899"></scales>
<clustering>
<clus scale="   45.499">  2  9  1 -1</clus>
<clus scale="   91.305">  5  6 -1 -1</clus>
<clus scale="   97.319">  7  8 -1 -1</clus>
<clus scale="  108.392">  1  5  2 -1</clus>
<clus scale="  108.392">  1  5  2 -1</clus>
</clustering>
</event>
<event>
 9    1  0.2423659E-006  0.1014368E+03  0.7546771E-02  0.1277568E+00
          1   -1    0    0  502    0  0.00000000000E+00  0.00000000000E+00  0.32814941830E+03  0.32814941830E+03  0.00000000000E+00 0. -1.
         -1   -1    0    0    0  501 -0.00000000000E+00 -0.00000000000E+00 -0.30212608902E+03  0.30212608902E+03  0.00000000000E+00 0.  1.
         23    2    1    2    0    0  0.92504611226E+01  0.50514080083E+02 -0.23577388267E+03  0.25787130695E+03  0.90945279604E+02 0.  0.
         23    2    1    2    0    0 -0.60242370360E+02  0.18121015599E+02  0.16047066398E+02  0.11220411349E+03  0.91513607470E+02 0.  0.
        -13    1    3    3    0    0  0.29051912452E+02  0.70534321564E+02 -0.17272577001E+03  0.18882080331E+03  0.00000000000E+00 0.  1.
         13    1    3    3    0    0 -0.19801451330E+02 -0.20020241481E+02 -0.63048112658E+02  0.69050503644E+02  0.00000000000E+00 0. -1.
        -13    1    4    4    0    0 -0.14781558989E+02 -0.34616027100E+02  0.19696234708E+02  0.42481825290E+02  0.00000000000E+00 0. -1.
         13    1    4    4    0    0 -0.45460811371E+02  0.52737042698E+02 -0.36491683102E+01  0.69722288204E+02  0.00000000000E+00 0.  1.
         21    1    1    2  502  501  0.50991909237E+02 -0.68635095681E+02  0.24575014555E+03  0.26020008687E+03  0.00000000000E+00 0. -1.
<scales pt_clust_5="13000.00000" pt_clust_6="13000.00000" pt_clust_7="13000.00000" pt_clust_8="13000.00000" pt_clust_9="85.50410"></scales>
<clustering>
<clus scale="   85.504">  1  9  2 -1</clus>
<clus scale="   90.945">  5  6 -1 -1</clus>
<clus scale="   91.514">  7  8 -1 -1</clus>
<clus scale="  100.924">  2  5  1 -1</clus>
<clus scale="   85.504">  1  5  2 -1</clus>
</clustering>
</event>
<event>
 9    1  0.2423659E-006  0.1111100E+03  0.7546771E-02  0.1260657E+00
         -1   -1    0    0    0  501 -0.00000000000E+00  0.00000000000E+00  0.12138005574E+03  0.12138005574E+03  0.00000000000E+00 0.  1.
          1   -1    0    0  502    0  0.00000000000E+00 -0.00000000000E+00 -0.20780525524E+03  0.20780525524E+03  0.00000000000E+00 0. -1.
         23    2    1    2    0    0  0.12960256015E+01 -0.34131728488E+02  0.22035252020E+01  0.95557707470E+02  0.89217517124E+02 0.  0.
         23    2    1    2    0    0 -0.23833653406E+02  0.65802090311E+02 -0.13101951627E+03  0.17611294717E+03  0.94613415511E+02 0.  0.
        -11    1    3    3    0    0  0.17785934666E+02 -0.10971445192E+02  0.41846096500E+02  0.46774008528E+02  0.00000000000E+00 0.  1.
         11    1    3    3    0    0 -0.16489909064E+02 -0.23160283297E+02 -0.39642571298E+02  0.48783698942E+02  0.00000000000E+00 0. -1.
        -13    1    4    4    0    0  0.31296561266E+01  0.74582116750E+02 -0.48907847911E+02  0.89242727848E+02  0.00000000000E+00 0. -1.
         13    1    4    4    0    0 -0.26963309532E+02 -0.87800264390E+01 -0.82111668354E+02  0.86870219322E+02  0.00000000000E+00 0.  1.
         21    1    1    2  502  501  0.22537627804E+02 -0.31670361823E+02  0.42390791564E+02  0.57514656345E+02  0.00000000000E+00 0.  1.
<scales pt_clust_5="13000.00000" pt_clust_6="13000.00000" pt_clust_7="13000.00000" pt_clust_8="13000.00000" pt_clust_9="38.87102"></scales>
<clustering>
<clus scale="   38.871">  1  9  2 -1</clus>
<clus scale="   89.218">  5  6 -1 -1</clus>
<clus scale="   94.613">  7  8 -1 -1</clus>
<clus scale="  106.553">  1  5  2 -1</clus>
<clus scale="  111.110">  2  5  1 -1</clus>
</clustering>
</event>
<event>
 9    1  0.2423659E-006  0.9063937E+02  0.7546771E-02  0.1301342E+00
         -1   -1    0    0    0  501 -0.00000000000E+00  0.00000000000E+00  0.68152648772E+02  0.68152648772E+02  0.00000000000E+00 0.  1.
          1   -1    0    0  502    0  0.00000000000E+00 -0.00000000000E+00 -0.37845171310E+03  0.37845171310E+03  0.00000000000E+00 0. -1.
         23    2    1    2    0    0  0.57868075090E+01 -0.30378393149E+02 -0.11257226176E+02  0.96231669414E+02  0.90429393151E+02 0.  0.
         23    2    1    2    0    0  0.15946949679E+01  0.24184375776E+01 -0.30727649936E+03  0.32030517943E+03  0.90377923309E+02 0.  0.
        -11    1    4    4    0    0 -0.10529380004E+02  0.44810383932E+02 -0.14384950304E+03  0.15103482339E+03  0.00000000000E+00 0.  1.
         11    1    4    4    0    0  0.12124074972E+02 -0.42391946355E+02 -0.16342699632E+03  0.16927035604E+03  0.00000000000E+00 0. -1.
        -13    1    3    3    0    0  0.46716313375E+02 -0.26950488644E+02 -0.11560053730E+02  0.55157752091E+02  0.00000000000E+00 0. -1.
         13    1    3    3    0    0 -0.40929505866E+02 -0.34279045047E+01  0.30282755459E+00  0.41073917323E+02  0.00000000000E+00 0.  1.
         21    1    1    2  502  501 -0.73815024768E+01  0.27959955571E+02  0.82346612057E+01  0.30067513025E+02  0.00000000000E+00 0.  1.
<scales pt_clust_5="13000.00000" pt_clust_6="13000.00000" pt_clust_7="13000.00000" pt_clust_8="13000.00000" pt_clust_9="28.91791"></scales>
<clustering>
<clus scale="   28.918">  1  9  2 -1</clus>
<clus scale="   90.378">  5  6 -1 -1</clus>
<clus scale="   90.429">  7  8 -1 -1</clus>
<clus scale="   90.588">  2  5  1 -1</clus>
<clus scale="   90.588">  2  5  1 -1</clus>
</clustering>
</event>
<event>
 9    1  0.2423659E-006  0.1070198E+03  0.7546771E-02  0.1266447E+00
          2   -1    0    0  502    0  0.00000000000E+00  0.00000000000E+00  0.55427069919E+03  0.55427069919E+03  0.00000000000E+00 0. -1.
         -2   -1    0    0    0  501 -0.00000000000E+00 -0.00000000000E+00 -0.37600072287E+02  0.37600072287E+02  0.00000000000E+00 0.  1.
         23    2    1    2    0    0 -0.29378612217E+02  0.62627903136E+02  0.12717390947E+03  0.17055505008E+03  0.90169089766E+02 0.  0.
         23    2    1    2    0    0  0.41286188529E+02 -0.25631328389E+02  0.16830097626E+03  0.19673145474E+03  0.89535089869E+02 0.  0.
        -13    1    3    3    0    0 -0.56126098383E+02  0.65741318690E+02  0.10188763107E+03  0.13361567747E+03  0.00000000000E+00 0. -1.
         13    1    3    3    0    0  0.26747486166E+02 -0.31134155534E+01  0.25286278406E+02  0.36939372602E+02  0.00000000000E+00 0.  1.
        -13    1    4    4    0    0  0.12532625649E+02 -0.25828426546E+02  0.29054870561E+01  0.28855089300E+02  0.00000000000E+00 0.  1.
         13    1    4    4    0    0  0.28753562880E+02  0.19709815689E+00  0.16539548920E+03  0.16787636544E+03  0.00000000000E+00 0. -1.
         21    1    1    2  502  501 -0.11907576312E+02 -0.36996574748E+02  0.22119574118E+03  0.22458426666E+03  0.00000000000E+00 0.  1.
<scales pt_clust_5="13000.00000" pt_clust_6="13000.00000" pt_clust_7="13000.00000" pt_clust_8="13000.00000" pt_clust_9="38.86563"></scales>
<clustering>
<clus scale="   38.866">  1  9  2 -1</clus>
<clus scale="   89.535">  7  8 -1 -1</clus>
<clus scale="   90.169">  5  6 -1 -1</clus>
<clus scale="  106.486">  1  7  2 -1</clus>
<clus scale="   38.866">  1  5  2 -1</clus>
</clustering>
</event>
<event>
 9    1  0.2423659E-006  0.2134863E+03  0.7546771E-02  0.1166298E+00
          2   -1    0    0  502    0  0.00000000000E+00  0.00000000000E+00  0.81575715282E+03  0.81575715282E+03  0.00000000000E+00 0.  1.
         -2   -1    0    0    0  501 -0.00000000000E+00 -0.00000000000E+00 -0.13151787480E+03  0.13151787480E+03  0.00000000000E+00 0. -1.
         23    2    1    2    0    0 -0.19463632152E+03  0.63749387773E+02  0.10811300784E+02  0.22480138229E+03  0.92040725545E+02 0.  0.
         23    2    1    2    0    0  0.56545753713E+02 -0.18909628380E+02  0.22623823015E+03  0.25230529374E+03  0.94441665371E+02 0.  0.
        -11    1    3    3    0    0 -0.13497189199E+03  0.84185150569E+02 -0.71242313699E+01  0.15923349483E+03  0.00000000000E+00 0. -1.
         11    1    3    3    0    0 -0.59664429528E+02 -0.20435762796E+02  0.17935532154E+02  0.65567887457E+02  0.00000000000E+00 0.  1.
        -13    1    4    4    0    0  0.77202947232E+02 -0.31468221610E+02  0.19971492507E+03  0.21641764098E+03  0.00000000000E+00 0.  1.
         13    1    4    4    0    0 -0.20657193519E+02  0.12558593230E+02  0.26523305086E+02  0.35887652761E+02  0.00000000000E+00 0. -1.
         21    1    1    2  502  501  0.13809056780E+03 -0.44839759393E+02  0.44718974709E+03  0.47016835159E+03  0.00000000000E+00 0.  1.
<scales pt_clust_5="13000.00000" pt_clust_6="13000.00000" pt_clust_7="13000.00000" pt_clust_8="13000.00000" pt_clust_9="192.62632"></scales>
<clustering>
<clus scale="   92.041">  5  6 -1 -1</clus>
<clus scale="   94.442">  7  8 -1 -1</clus>
<clus scale="  111.688">  1  7  2 -1</clus>
<clus scale="  192.626">  1  9  2 -1</clus>
<clus scale="  111.688">  1  5  2 -1</clus>
</clustering>
</event>
<event>
 9    1  0.2423659E-006  0.9460647E+02  0.7546771E-02  0.1292697E+00
         -2   -1    0    0    0  501 -0.00000000000E+00  0.00000000000E+00  0.68947738230E+02  0.68947738230E+02  0.00000000000E+00 0.  1.
          2   -1    0    0  502    0  0.00000000000E+00 -0.00000000000E+00 -0.39717525930E+03  0.39717525930E+03  0.00000000000E+00 0. -1.
         23    2    1    2    0    0  0.41468977659E+02  0.21931903699E+02 -0.15042006901E+02  0.10249618194E+03  0.89880592076E+02 0.  0.
         23    2    1    2    0    0 -0.14651372497E+02 -0.17634041332E+02 -0.32173685542E+03  0.33515259910E+03  0.91033172056E+02 0.  0.
        -11    1    4    4    0    0 -0.20545656551E+02 -0.53436081109E+02 -0.21059496487E+03  0.21823789313E+03  0.00000000000E+00 0. -1.
         11    1    4    4    0    0  0.58942840543E+01  0.35802039777E+02 -0.11114189055E+03  0.11691470597E+03  0.00000000000E+00 0.  1.
        -11    1    3    3    0    0  0.30820430267E+01 -0.32772995662E+02 -0.13695866893E+02  0.35653120534E+02  0.00000000000E+00 0. -1.
         11    1    3    3    0    0  0.38386934632E+02  0.54704899361E+02 -0.13461400085E+01  0.66843061401E+02  0.00000000000E+00 0.  1.
         21    1    1    2  502  501 -0.26817605162E+02 -0.42978623667E+01  0.85513412588E+01  0.28474216493E+02  0.00000000000E+00 0. -1.
<scales pt_clust_5="13000.00000" pt_clust_6="13000.00000" pt_clust_7="13000.00000" pt_clust_8="13000.00000" pt_clust_9="27.15982"></scales>
<clustering>
<clus scale="   27.160">  1  9  2 -1</clus>
<clus scale="   89.881">  7  8 -1 -1</clus>
<clus scale="   91.033">  5  6 -1 -1</clus>
<clus scale="   93.498">  1  7  2 -1</clus>
<clus scale="   94.606">  2  5  1 -1</clus>
</clustering>
</event>
<event>
 9    1  0.2423659E-006  0.5905552E+03  0.7546771E-02  0.1048198E+00
         -2   -1    0    0    0  501 -0.00000000000E+00  0.00000000000E+00  0.31127528505E+03  0.31127528505E+03  0.00000000000E+00 0.  1.
          2   -1    0    0  502    0  0.00000000000E+00 -0.00000000000E+00 -0.37854820738E+04  0.37854820738E+04  0.00000000000E+00 0. -1.
         23    2    1    2    0    0 -0.54015619228E+02 -0.30064767687E+02 -0.16861039413E+03  0.20102859140E+03  0.90340755893E+02 0.  0.
         23    2    1    2    0    0 -0.11103322841E+03 -0.53382071139E+03 -0.14706389174E+02  0.55280116076E+03  0.89888351515E+02 0.  0.
        -13    1    3    3    0    0 -0.75433554894E+02 -0.37725478868E+02 -0.11348123802E+03  0.14139103346E+03  0.00000000000E+00 0.  1.
         13    1    3    3    0    0  0.21417935666E+02  0.76607111815E+01 -0.55129156109E+02  0.59637557942E+02  0.00000000000E+00 0. -1.
        -13    1    4    4    0    0 -0.65186098138E+02 -0.45967791927E+03  0.69954630107E+00  0.46427740223E+03  0.00000000000E+00 0.  1.
         13    1    4    4    0    0 -0.45847130267E+02 -0.74142792122E+02 -0.15405935475E+02  0.88523758536E+02  0.00000000000E+00 0. -1.
         21    1    1    2  502  501  0.16504884763E+03  0.56388547908E+03 -0.32908900054E+04  0.33429276067E+04  0.00000000000E+00 0. -1.
<scales pt_clust_5="13000.00000" pt_clust_6="13000.00000" pt_clust_7="13000.00000" pt_clust_8="13000.00000" pt_clust_9="583.67419"></scales>
<clustering>
<clus scale="   89.888">  7  8 -1 -1</clus>
<clus scale="   90.341">  5  6 -1 -1</clus>
<clus scale="  109.467">  1  5  2 -1</clus>
<clus scale="  583.674">  2  9  1 -1</clus>
<clus scale="  583.674">  2  5  1 -1</clus>
</clustering>
</event>
<event>
 9    1  0.2423659E-006  0.1424397E+03  0.7546771E-02  0.1220359E+00
          2   -1    0    0  502    0  0.00000000000E+00  0.00000000000E+00  0.36682273697E+03  0.36682273697E+03  0.00000000000E+00 0. -1.
         -2   -1    0    0    0  501 -0.00000000000E+00 -0.00000000000E+00 -0.10407345265E+03  0.10407345265E+03  0.00000000000E+00 0.  1.
         23    2    1    2    0    0  0.10004486010E+03 -0.27611424019E+01  0.36942832847E+02  0.13947396148E+03  0.89842167664E+02 0.  0.
         23    2    1    2    0    0  0.25056857792E+02 -0.15250245529E+02  0.12647085746E+03  0.17066648127E+03  0.11077794876E+03 0.  0.
        -11    1    4    4    0    0 -0.26600353727E+02 -0.13050578172E+02 -0.43981782175E+01  0.29953971033E+02  0.00000000000E+00 0.  1.
         11    1    4    4    0    0  0.51657211519E+02 -0.21996673561E+01  0.13086903567E+03  0.14071251024E+03  0.00000000000E+00 0. -1.
        -11    1    3    3    0    0  0.73306703455E+02  0.35491733578E+02  0.43514883553E+02  0.92342195201E+02  0.00000000000E+00 0. -1.
         11    1    3    3    0    0  0.26738156648E+02 -0.38252875980E+02 -0.65720507065E+01  0.47131766275E+02  0.00000000000E+00 0.  1.
         21    1    1    2  502  501 -0.12510171789E+03  0.18011387930E+02  0.99335594021E+02  0.16075574688E+03  0.00000000000E+00 0. -1.
<scales pt_clust_5="13000.00000" pt_clust_6="13000.00000" pt_clust_7="13000.00000" pt_clust_8="13000.00000" pt_clust_9="110.53259"></scales>
<clustering>
<clus scale="   89.842">  7  8 -1 -1</clus>
<clus scale="  110.778">  5  6 -1 -1</clus>
<clus scale="  114.596">  1  5  2 -1</clus>
<clus scale="  110.533">  1  9  2 -1</clus>
<clus scale="  114.596">  1  5  2 -1</clus>
</clustering>
</event>
<event>
 9    1  0.2423659E-006  0.1076213E+03  0.7546771E-02  0.1265175E+00
          3   -1    0    0  502    0  0.00000000000E+00  0.00000000000E+00  0.40496955728E+03  0.40496955728E+03  0.00000000000E+00 0. -1.
         -3   -1    0    0    0  501 -0.00000000000E+00 -0.00000000000E+00 -0.50468067465E+02  0.50468067465E+02  0.00000000000E+00 0.  1.
         23    2    1    2    0    0 -0.26065291614E+02 -0.72088361793E+02  0.10553152874E+03  0.15978228132E+03  0.92289449738E+02 0.  0.
         23    2    1    2    0    0  0.33257682443E+02  0.34987734190E+02  0.23208529304E+03  0.25426356805E+03  0.91957402107E+02 0.  0.
        -13    1    4    4    0    0  0.60697975438E+02  0.34083606238E+02  0.20138677688E+03  0.21307878904E+03  0.00000000000E+00 0. -1.
         13    1    4    4    0    0 -0.27440292995E+02  0.90412795262E+00  0.30698516163E+02  0.41184779004E+02  0.00000000000E+00 0.  1.
        -13    1    3    3    0    0 -0.56771685714E+02 -0.68286564453E+02  0.73850234612E+02  0.11549864214E+03  0.00000000000E+00 0.  1.
         13    1    3    3    0    0  0.30706394100E+02 -0.38017973403E+01  0.31681294123E+02  0.44283639179E+02  0.00000000000E+00 0. -1.
         21    1    1    2  502  501 -0.71923908290E+01  0.37100627603E+02  0.16884668031E+02  0.41391775378E+02  0.00000000000E+00 0. -1.
<scales pt_clust_5="13000.00000" pt_clust_6="13000.00000" pt_clust_7="13000.00000" pt_clust_8="13000.00000" pt_clust_9="37.79136"></scales>
<clustering>
<clus scale="   37.791">  2  9  1 -1</clus>
<clus scale="   91.957">  5  6 -1 -1</clus>
<clus scale="   92.289">  7  8 -1 -1</clus>
<clus scale="  107.337">  1  5  2 -1</clus>
<clus scale="  107.337">  1  5  2 -1</clus>
</clustering>
</event>
<event>
 9    1  0.2423659E-006  0.1015941E+03  0.7546771E-02  0.1278819E+00
          1   -1    0    0  502    0  0.00000000000E+00  0.00000000000E+00  0.13860564332E+03  0.13860564332E+03  0.00000000000E+00 0. -1.
         -1   -1    0    0    0  501 -0.00000000000E+00 -0.00000000000E+00 -0.28704110229E+03  0.28704110229E+03  0.00000000000E+00 0.  1.
         23    2    1    2    0    0 -0.34178581994E+02 -0.42347811246E+02 -0.14307361277E+03  0.17644439015E+03  0.87755635490E+02 0.  0.
         23    2    1    2    0    0  0.26127509030E+02 -0.47682605166E+02  0.73324958654E+02  0.12936117342E+03  0.91659620681E+02 0.  0.
        -11    1    4    4    0    0  0.32248824218E+02 -0.18933136919E+02  0.88648123724E+02  0.96212993804E+02  0.00000000000E+00 0. -1.
         11    1    4    4    0    0 -0.61213151882E+01 -0.28749468247E+02 -0.15323165069E+02  0.33148179616E+02  0.00000000000E+00 0.  1.
        -11    1    3    3    0    0  0.15273503084E+02 -0.16785509568E+02  0.24329429260E+00  0.22695647601E+02  0.00000000000E+00 0. -1.
         11    1    3    3    0    0 -0.49452085078E+02 -0.25562301678E+02 -0.14331690706E+03  0.15374874255E+03  0.00000000000E+00 0.  1.
         21    1    1    2  502  501  0.80510729640E+01  0.90030416413E+02 -0.78686804852E+02  0.11984118204E+03  0.00000000000E+00 0.  1.
<scales pt_clust_5="13000.00000" pt_clust_6="13000.00000" pt_clust_7="13000.00000" pt_clust_8="13000.00000" pt_clust_9="90.38969"></scales>
<clustering>
<clus scale="   87.756">  7  8 -1 -1</clus>
<clus scale="   90.390">  2  9  1 -1</clus>
<clus scale="   91.660">  5  6 -1 -1</clus>
<clus scale="   98.086">  2  7  1 -1</clus>
<clus scale="  101.594">  1  5  2 -1</clus>
</clustering>
</event>
<event>
 9    1  0.2423659E-006  0.1576150E+03  0.7546771E-02  0.1221361E+00
          2   -1    0    0  502    0  0.00000000000E+00  0.00000000000E+00  0.17935380834E+03  0.17935380834E+03  0.00000000000E+00 0. -1.
         -2   -1    0    0    0  501 -0.00000000000E+00 -0.00000000000E+00 -0.31240909987E+03  0.31240909987E+03  0.00000000000E+00 0.  1.
         23    2    1    2    0    0 -0.36509450187E+02 -0.14946421145E+03  0.20274603822E+02  0.17764872886E+03  0.86461094408E+02 0.  0.
         23    2    1    2    0    0 -0.13989114906E+02  0.32170899750E+02  0.32217737428E+02  0.88868202524E+02  0.75026080054E+02 0.  0.
        -11    1    3    3    0    0  0.25991891611E+02 -0.74386118511E+02  0.95319334006E+01  0.79370843582E+02  0.00000000000E+00 0. -1.
         11    1    3    3    0    0 -0.62501341798E+02 -0.75078092942E+02  0.10742670421E+02  0.98277885275E+02  0.00000000000E+00 0.  1.
        -11    1    4    4    0    0  0.11938915264E+02  0.37300640123E+02 -0.87350163473E+01  0.40126997917E+02  0.00000000000E+00 0.  1.
         11    1    4    4    0    0 -0.25928030170E+02 -0.51297403725E+01  0.40952753775E+02  0.48741204607E+02  0.00000000000E+00 0. -1.
         21    1    1    2  502  501  0.50498565093E+02  0.11729331170E+03 -0.18554763278E+03  0.22524597682E+03  0.00000000000E+00 0.  1.
<scales pt_clust_5="13000.00000" pt_clust_6="13000.00000" pt_clust_7="13000.00000" pt_clust_8="13000.00000" pt_clust_9="131.78374"></scales>
<clustering>
<clus scale="   75.026">  7  8 -1 -1</clus>
<clus scale="   82.823">  1  7  2 -1</clus>
<clus scale="   86.461">  5  6 -1 -1</clus>
<clus scale="  131.784">  2  9  1 -1</clus>
<clus scale="   82.823">  1  5  2 -1</clus>
</clustering>
</event>
<event>
 9    1  0.2423659E-006  0.1705091E+03  0.7546771E-02  0.1202383E+00
         -1   -1    0    0    0  501 -0.00000000000E+00  0.00000000000E+00  0.63172564534E+03  0.63172564534E+03  0.00000000000E+00 0.  1.
          1   -1    0    0  502    0  0.00000000000E+00 -0.00000000000E+00 -0.86603550281E+02  0.86603550281E+02  0.00000000000E+00 0. -1.
         23    2    1    2    0    0 -0.36742113974E+02 -0.21708747320E+01  0.29690850919E+03  0.31265852468E+03  0.90807458870E+02 0.  0.
         23    2    1    2    0    0 -0.69551417320E+02 -0.10990113815E+03  0.95431510803E+02  0.18841318930E+03  0.97348327315E+02 0.  0.
        -11    1    3    3    0    0 -0.27840985875E+02  0.39617470808E+02  0.21375138778E+03  0.21916733393E+03  0.00000000000E+00 0.  1.
         11    1    3    3    0    0 -0.89011280989E+01 -0.41788345540E+02  0.83157121418E+02  0.93491190745E+02  0.00000000000E+00 0. -1.
        -13    1    4    4    0    0 -0.71319033428E+02 -0.23008436418E+02  0.52333011753E+02  0.91403155277E+02  0.00000000000E+00 0.  1.
         13    1    4    4    0    0  0.17676161079E+01 -0.86892701736E+02  0.43098499050E+02  0.97010034027E+02  0.00000000000E+00 0. -1.
         21    1    1    2  502  501  0.10629353129E+03  0.11207201289E+03  0.15278207507E+03  0.21725748164E+03  0.00000000000E+00 0. -1.
<scales pt_clust_5="13000.00000" pt_clust_6="13000.00000" pt_clust_7="13000.00000" pt_clust_8="13000.00000" pt_clust_9="139.98810"></scales>
<clustering>
<clus scale="   90.807">  5  6 -1 -1</clus>
<clus scale="   97.348">  7  8 -1 -1</clus>
<clus scale="   97.983">  1  5  2 -1</clus>
<clus scale="  139.988">  1  9  2 -1</clus>
<clus scale="  170.509">  2  5  1 -1</clus>
</clustering>
</event>
<event>
 9    1  0.2423659E-006  0.1037909E+03  0.7546771E-02  0.1276368E+00
          2   -1    0    0  502    0  0.00000000000E+00  0.00000000000E+00  0.59678737358E+03  0.59678737358E+03  0.00000000000E+00 0. -1.
         -2   -1    0    0    0  501 -0.00000000000E+00 -0.00000000000E+00 -0.43127232232E+02  0.43127232232E+02  0.00000000000E+00 0.  1.
         23    2    1    2    0    0 -0.70141847607E+01 -0.16296369560E+01  0.12951463644E+03  0.15909681630E+03  0.92118952458E+02 0.  0.
         23    2    1    2    0    0  0.58882225303E+02  0.32516454074E+02  0.40267276220E+03  0.41674464552E+03  0.83703703066E+02 0.  0.
        -11    1    3    3    0    0 -0.21065482664E+02  0.32978933012E+02  0.21165137647E+02  0.44489635131E+02  0.00000000000E+00 0.  1.
         11    1    3    3    0    0  0.14051297904E+02 -0.34608569968E+02  0.10834949879E+03  0.11460718117E+03  0.00000000000E+00 0. -1.
        -11    1    4    4    0    0  0.57526860631E+02 -0.14293453302E+02  0.19258673192E+03  0.20150258513E+03  0.00000000000E+00 0.  1.
         11    1    4    4    0    0  0.13553646720E+01  0.46809907376E+02  0.21008603028E+03  0.21524206039E+03  0.00000000000E+00 0. -1.
         21    1    1    2  502  501 -0.51868040542E+02 -0.30886817118E+02  0.21472742709E+02  0.64073143990E+02  0.00000000000E+00 0.  1.
<scales pt_clust_5="13000.00000" pt_clust_6="13000.00000" pt_clust_7="13000.00000" pt_clust_8="13000.00000" pt_clust_9="60.36795"></scales>
<clustering>
<clus scale="   60.368">  2  9  1 -1</clus>
<clus scale="   83.704">  7  8 -1 -1</clus>
<clus scale="   92.119">  5  6 -1 -1</clus>
<clus scale="   96.400">  1  7  2 -1</clus>
<clus scale="   96.400">  1  5  2 -1</clus>
</clustering>
</event>
<event>
 9    1  0.5859421E-006  0.9973152E+02  0.7546771E-02  0.1285251E+00
         -2   -1    0    0    0  501 -0.00000000000E+00  0.00000000000E+00  0.37664557548E+03  0.37664557548E+03  0.00000000000E+00 0.  1.
          2   -1    0    0  502    0  0.00000000000E+00 -0.00000000000E+00 -0.36840476749E+03  0.36840476749E+03  0.00000000000E+00 0. -1.
         23    2    1    2    0    0  0.71629967882E+02  0.70673103169E+01  0.44114417743E+02  0.11867002219E+03  0.83400798198E+02 0.  0.
         23    2    1    2    0    0  0.60777018921E+01 -0.41315390947E+02 -0.31698626237E+03  0.33272110258E+03  0.92082254444E+02 0.  0.
        -11    1    4    4    0    0 -0.85106644551E+01  0.28521301039E+02 -0.92665031501E+02  0.97327817635E+02  0.00000000000E+00 0.  1.
         11    1    4    4    0    0  0.14588366347E+02 -0.69836691986E+02 -0.22432123087E+03  0.23539328495E+03  0.00000000000E+00 0. -1.
        -11    1    3    3    0    0  0.19211934786E+02  0.17931285500E+02  0.57733010046E+02  0.63432877019E+02  0.00000000000E+00 0.  1.
         11    1    3    3    0    0  0.52418033096E+02 -0.10863975183E+02 -0.13618592303E+02  0.55237145172E+02  0.00000000000E+00 0. -1.
         21    1    1    2  502  501 -0.77707669775E+02  0.34248080630E+02  0.28111265262E+03  0.29365921819E+03  0.00000000000E+00 0.  1.
<scales pt_clust_5="13000.00000" pt_clust_6="13000.00000" pt_clust_7="13000.00000" pt_clust_8="13000.00000" pt_clust_9="84.92004"></scales>
<clustering>
<clus scale="   83.401">  7  8 -1 -1</clus>
<clus scale="   84.920">  1  9  2 -1</clus>
<clus scale="   91.777">  1  7  2 -1</clus>
<clus scale="   92.082">  5  6 -1 -1</clus>
<clus scale="   99.732">  2  5  1 -1</clus>
</clustering>
</event>
<event>
 9    1  0.2423659E-006  0.1413596E+03  0.7546771E-02  0.1230074E+00
          1   -1    0    0  502    0  0.00000000000E+00  0.00000000000E+00  0.13896844210E+03  0.13896844210E+03  0.00000000000E+00 0. -1.
         -1   -1    0    0    0  501 -0.00000000000E+00 -0.00000000000E+00 -0.22540759970E+03  0.22540759970E+03  0.00000000000E+00 0.  1.
         23    2    1    2    0    0  0.22530744062E+02  0.12977115733E+02 -0.55225136804E+02  0.11055925918E+03  0.92181853393E+02 0.  0.
         23    2    1    2    0    0 -0.64101887314E+02 -0.10112945984E+03  0.29189038918E+01  0.15054988439E+03  0.91216928721E+02 0.  0.
        -11    1    4    4    0    0 -0.37278566368E+02 -0.11459319172E+03  0.28049442513E+01  0.12053696035E+03  0.00000000000E+00 0. -1.
         11    1    4    4    0    0 -0.26823320946E+02  0.13463731877E+02  0.11395964049E+00  0.30012924040E+02  0.00000000000E+00 0.  1.
        -11    1    3    3    0    0 -0.31063013832E+02 -0.14741072364E+02 -0.12325563838E+02  0.36525738414E+02  0.00000000000E+00 0.  1.
         11    1    3    3    0    0  0.53593757894E+02  0.27718188097E+02 -0.42899572966E+02  0.74033520767E+02  0.00000000000E+00 0. -1.
         21    1    1    2  502  501  0.41571143253E+02  0.88152344107E+02 -0.34132924685E+02  0.10326689823E+03  0.00000000000E+00 0.  1.
<scales pt_clust_5="13000.00000" pt_clust_6="13000.00000" pt_clust_7="13000.00000" pt_clust_8="13000.00000" pt_clust_9="107.99074"></scales>
<clustering>
<clus scale="   91.217">  5  6 -1 -1</clus>
<clus scale="   92.182">  7  8 -1 -1</clus>
<clus scale="   95.779">  2  7  1 -1</clus>
<clus scale="  107.991">  2  9  1 -1</clus>
<clus scale="  141.360">  1  5  2 -1</clus>
</clustering>
</event>
<event>
 9    1  0.2423659E-006  0.9777875E+02  0.7546771E-02  0.1290933E+00
          1   -1    0    0  502    0  0.00000000000E+00  0.00000000000E+00  0.84844582478E+02  0.84844582478E+02  0.00000000000E+00 0. -1.
         -1   -1    0    0    0  501 -0.00000000000E+00 -0.00000000000E+00 -0.33137028154E+03  0.33137028154E+03  0.00000000000E+00 0.  1.
         23    2    1    2    0    0 -0.47987541496E+02 -0.15772511047E+01 -0.21909218446E+03  0.23809523450E+03  0.79891573650E+02 0.  0.
         23    2    1    2    0    0  0.30271303688E+02  0.16864857513E+02  0.41100743577E+02  0.10570056755E+03  0.91008590871E+02 0.  0.
        -11    1    4    4    0    0  0.43959955647E+01 -0.28749704820E+02  0.44485258820E+02  0.53148928084E+02  0.00000000000E+00 0. -1.
         11    1    4    4    0    0  0.25875308123E+02  0.45614562333E+02 -0.33845152423E+01  0.52551639468E+02  0.00000000000E+00 0.  1.
        -13    1    3    3    0    0 -0.68253326884E+02  0.39100800741E+01 -0.19207649197E+03  0.20388031814E+03  0.00000000000E+00 0.  1.
         13    1    3    3    0    0  0.20265785388E+02 -0.54873311788E+01 -0.27015692486E+02  0.34214916358E+02  0.00000000000E+00 0. -1.
         21    1    1    2  502  501  0.17716237808E+02 -0.15287606409E+02 -0.68534258182E+02  0.72419061968E+02  0.00000000000E+00 0. -1.
<scales pt_clust_5="13000.00000" pt_clust_6="13000.00000" pt_clust_7="13000.00000" pt_clust_8="13000.00000" pt_clust_9="23.40034"></scales>
<clustering>
<clus scale="   23.400">  2  9  1 -1</clus>
<clus scale="   79.892">  7  8 -1 -1</clus>
<clus scale="   87.526">  2  7  1 -1</clus>
<clus scale="   91.009">  5  6 -1 -1</clus>
<clus scale="   97.779">  1  5  2 -1</clus>
</clustering>
</event>
<event>
 9    1  0.2423659E-006  0.1146157E+03  0.7546771E-02  0.1253368E+00
          1   -1    0    0  502    0  0.00000000000E+00  0.00000000000E+00  0.18243614340E+03  0.18243614340E+03  0.00000000000E+00 0. -1.
         -1   -1    0    0    0  501 -0.00000000000E+00 -0.00000000000E+00 -0.19344826078E+03  0.19344826078E+03  0.00000000000E+00 0.  1.
         23    2    1    2    0    0 -0.31295639053E+01  0.77413051577E+02 -0.10832705453E+03  0.16280917176E+03  0.93645613580E+02 0.  0.
         23    2    1    2    0    0  0.39061207192E+02 -0.12922068933E+02  0.97456397791E+02  0.13924983135E+03  0.90553897147E+02 0.  0.
        -11    1    4    4    0    0 -0.44143843780E+01 -0.40427148339E+02  0.17726377690E+02  0.44362885144E+02  0.00000000000E+00 0. -1.
         11    1    4    4    0    0  0.43475591570E+02  0.27505079406E+02  0.79730020101E+02  0.94886946208E+02  0.00000000000E+00 0.  1.
        -13    1    3    3    0    0 -0.33461710434E+02 -0.44763958905E+01 -0.24070412694E+02  0.41462138785E+02  0.00000000000E+00 0. -1.
         13    1    3    3    0    0  0.30332146528E+02  0.81889447468E+02 -0.84256641834E+02  0.12134703298E+03  0.00000000000E+00 0.  1.
         21    1    1    2  502  501 -0.35931643287E+02 -0.64490982644E+02 -0.14146064590E+00  0.73825401068E+02  0.00000000000E+00 0. -1.
<scales pt_clust_5="13000.00000" pt_clust_6="13000.00000" pt_clust_7="13000.00000" pt_clust_8="13000.00000" pt_clust_9="73.82527"></scales>
<clustering>
<clus scale="   73.825">  1  9  2 -1</clus>
<clus scale="   90.554">  5  6 -1 -1</clus>
<clus scale="   93.646">  7  8 -1 -1</clus>
<clus scale="  112.104">  1  5  2 -1</clus>
<clus scale="   73.825">  1  5  2 -1</clus>
</clustering>
</event>
<event>
 9    1  0.2423659E-006  0.9796593E+02  0.7546771E-02  0.1284870E+00
          2   -1    0    0  502    0  0.00000000000E+00  0.00000000000E+00  0.57775132800E+02  0.57775132800E+02  0.00000000000E+00 0. -1.
         -2   -1    0    0    0  501 -0.00000000000E+00 -0.00000000000E+00 -0.44702086792E+03  0.44702086792E+03  0.00000000000E+00 0.  1.
         23    2    1    2    0    0  0.63365886208E+01 -0.30974368983E+02 -0.33272770210E+03  0.34666027791E+03  0.92011198488E+02 0.  0.
         23    2    1    2    0    0  0.28622556776E+02  0.48653876859E+02 -0.33253301036E+02  0.11257307802E+03  0.91544881756E+02 0.  0.
        -11    1    4    4    0    0  0.30895778584E+02  0.23424579591E+02  0.26976310431E+02  0.47233265691E+02  0.00000000000E+00 0. -1.
         11    1    4    4    0    0 -0.22732218083E+01  0.25229297268E+02 -0.60229611467E+02  0.65339812331E+02  0.00000000000E+00 0.  1.
        -13    1    3    3    0    0 -0.36104658723E+02  0.79020650440E+01 -0.91968107547E+02  0.99116708073E+02  0.00000000000E+00 0. -1.
         13    1    3    3    0    0  0.42441247343E+02 -0.38876434027E+02 -0.24075959455E+03  0.24754356984E+03  0.00000000000E+00 0.  1.
         21    1    1    2  502  501 -0.34959145397E+02 -0.17679507876E+02 -0.23264731985E+02  0.45562644787E+02  0.00000000000E+00 0. -1.
<scales pt_clust_5="13000.00000" pt_clust_6="13000.00000" pt_clust_7="13000.00000" pt_clust_8="13000.00000" pt_clust_9="39.17533"></scales>
<clustering>
<clus scale="   39.175">  1  9  2 -1</clus>
<clus scale="   91.545">  5  6 -1 -1</clus>
<clus scale="   92.011">  7  8 -1 -1</clus>
<clus scale="   97.528">  1  5  2 -1</clus>
<clus scale="   39.175">  1  5  2 -1</clus>
</clustering>
</event>
<event>
 9    1  0.2423659E-006  0.1342173E+03  0.7546771E-02  0.1222487E+00
         -1   -1    0    0    0  501 -0.00000000000E+00  0.00000000000E+00  0.12813373384E+03  0.12813373384E+03  0.00000000000E+00 0.  1.
          1   -1    0    0  502    0  0.00000000000E+00 -0.00000000000E+00 -0.51148204446E+03  0.51148204446E+03  0.00000000000E+00 0. -1.
         23    2    1    2    0    0 -0.11435581212E+02  0.64526656135E+02  0.64556940606E+01  0.11643824465E+03  0.96029823296E+02 0.  0.
         23    2    1    2    0    0  0.88281948523E+02 -0.52188439418E+02 -0.41829789038E+03  0.44029510317E+03  0.91483972017E+02 0.  0.
        -13    1    3    3    0    0  0.32818336464E+02  0.63851169137E+02  0.60401082555E+00  0.71794009761E+02  0.00000000000E+00 0. -1.
         13    1    3    3    0    0 -0.44253917676E+02  0.67548699787E+00  0.58516832350E+01  0.44644234891E+02  0.00000000000E+00 0.  1.
        -13    1    4    4    0    0  0.86254139316E+02 -0.11917844385E+02 -0.35275349681E+03  0.36334121852E+03  0.00000000000E+00 0. -1.
         13    1    4    4    0    0  0.20278092075E+01 -0.40270595032E+02 -0.65544393572E+02  0.76953884653E+02  0.00000000000E+00 0.  1.
         21    1    1    2  502  501 -0.76846367312E+02 -0.12338216718E+02  0.28493885700E+02  0.82882430485E+02  0.00000000000E+00 0.  1.
<scales pt_clust_5="13000.00000" pt_clust_6="13000.00000" pt_clust_7="13000.00000" pt_clust_8="13000.00000" pt_clust_9="77.83056"></scales>
<clustering>
<clus scale="   77.831">  1  9  2 -1</clus>
<clus scale="   91.484">  7  8 -1 -1</clus>
<clus scale="   96.030">  5  6 -1 -1</clus>
<clus scale="  131.003">  2  7  1 -1</clus>
<clus scale="  131.003">  2  5  1 -1</clus>
</clustering>
</event>
<event>
 9    1  0.2423659E-006  0.1355819E+03  0.7546771E-02  0.1222443E+00
          1   -1    0    0  502    0  0.00000000000E+00  0.00000000000E+00  0.84335221908E+03  0.84335221908E+03  0.00000000000E+00 0. -1.
         -1   -1    0    0    0  501 -0.00000000000E+00 -0.00000000000E+00 -0.37375403148E+02  0.37375403148E+02  0.00000000000E+00 0.  1.
         23    2    1    2    0    0 -0.74611690384E+02 -0.72148745213E+02  0.17941829191E+03  0.23175007498E+03  0.10365726220E+03 0.  0.
         23    2    1    2    0    0  0.39023250042E+02  0.28047150629E+02  0.49312237690E+03  0.50400619458E+03  0.92428939638E+02 0.  0.
        -11    1    3    3    0    0 -0.23470982414E+02 -0.76992725642E+02  0.15547407163E+03  0.17507413791E+03  0.00000000000E+00 0. -1.
         11    1    3    3    0    0 -0.51140707970E+02  0.48439804281E+01  0.23944220278E+02  0.56675937070E+02  0.00000000000E+00 0.  1.
        -13    1    4    4    0    0 -0.18734040597E+02  0.40856640854E+02  0.22196045055E+03  0.22646560663E+03  0.00000000000E+00 0.  1.
         13    1    4    4    0    0  0.57757290639E+02 -0.12809490224E+02  0.27116192635E+03  0.27754058796E+03  0.00000000000E+00 0. -1.
         21    1    1    2  502  501  0.35588440343E+02  0.44101594584E+02  0.13343614712E+03  0.14497135265E+03  0.00000000000E+00 0.  1.
<scales pt_clust_5="13000.00000" pt_clust_6="13000.00000" pt_clust_7="13000.00000" pt_clust_8="13000.00000" pt_clust_9="56.66999"></scales>
<clustering>
<clus scale="   56.670">  1  9  2 -1</clus>
<clus scale="   92.429">  7  8 -1 -1</clus>
<clus scale="  103.657">  5  6 -1 -1</clus>
<clus scale="  127.204">  1  7  2 -1</clus>
<clus scale="   56.670">  1  5  2 -1</clus>
</clustering>
</event>
<event>
 9    1  0.2423659E-006  0.1098743E+03  0.7546771E-02  0.1264104E+00
          2   -1    0    0  502    0  0.00000000000E+00  0.00000000000E+00  0.91632937668E+02  0.91632937668E+02  0.00000000000E+00 0. -1.
         -2   -1    0    0    0  501 -0.00000000000E+00 -0.00000000000E+00 -0.20539027517E+03  0.20539027517E+03  0.00000000000E+00 0.  1.
         23    2    1    2    0    0 -0.69882829976E+02 -0.19738618264E+02 -0.75499978257E+02  0.13735786723E+03  0.88846575598E+02 0.  0.
         23    2    1    2    0    0  0.45151326919E+02  0.45121527911E+02  0.63563572078E+01  0.10268883255E+03  0.80187271116E+02 0.  0.
        -11    1    3    3    0    0 -0.17625563568E+02 -0.22695025456E+02 -0.79824086777E+02  0.84838726425E+02  0.00000000000E+00 0.  1.
         11    1    3    3    0    0 -0.52257266409E+02  0.29564071923E+01  0.43241085198E+01  0.52519140801E+02  0.00000000000E+00 0. -1.
        -13    1    4    4    0    0  0.49534622732E+02 -0.62174448080E+01  0.10433940861E+02  0.51001986148E+02  0.00000000000E+00 0.  1.
         13    1    4    4    0    0 -0.43832958133E+01  0.51338972719E+02 -0.40775836533E+01  0.51686846397E+02  0.00000000000E+00 0. -1.
         21    1    1    2  502  501  0.24731503057E+02 -0.25382909647E+02 -0.44613716457E+02  0.56976513071E+02  0.00000000000E+00 0.  1.
<scales pt_clust_5="13000.00000" pt_clust_6="13000.00000" pt_clust_7="13000.00000" pt_clust_8="13000.00000" pt_clust_9="35.43923"></scales>
<clustering>
<clus scale="   35.439">  2  9  1 -1</clus>
<clus scale="   80.187">  7  8 -1 -1</clus>
<clus scale="   88.847">  5  6 -1 -1</clus>
<clus scale="  102.998">  1  7  2 -1</clus>
<clus scale="  102.998">  1  5  2 -1</clus>
</clustering>
</event>
<event>
 9    1  0.2423659E-006  0.1022103E+03  0.7546771E-02  0.1276115E+00
          1   -1    0    0  502    0  0.00000000000E+00  0.00000000000E+00  0.17639366041E+03  0.17639366041E+03  0.00000000000E+00 0. -1.
         -1   -1    0    0    0  501 -0.00000000000E+00 -0.00000000000E+00 -0.11562337327E+03  0.11562337327E+03  0.00000000000E+00 0.  1.
         23    2    1    2    0    0  0.47913154088E+02 -0.65986257833E+02  0.36560117452E+02  0.12780549085E+03  0.91365993373E+02 0.  0.
         23    2    1    2    0    0 -0.39247075689E+01  0.13307647919E+02  0.20421275082E+02  0.95477453094E+02  0.92230248567E+02 0.  0.
        -11    1    3    3    0    0  0.32902564709E+00 -0.49122813889E+02 -0.19058912623E+02  0.52691567187E+02  0.00000000000E+00 0.  1.
         11    1    3    3    0    0  0.47584128441E+02 -0.16863443944E+02  0.55619030075E+02  0.75113923660E+02  0.00000000000E+00 0. -1.
        -13    1    4    4    0    0  0.43779671695E+02  0.10262872243E+02  0.14836328061E+02  0.47350848258E+02  0.00000000000E+00 0.  1.
         13    1    4    4    0    0 -0.47704379264E+02  0.30447756765E+01  0.55849470209E+01  0.48126604836E+02  0.00000000000E+00 0. -1.
         21    1    1    2  502  501 -0.43988446519E+02  0.52678609914E+02  0.37888946058E+01  0.68734089737E+02  0.00000000000E+00 0. -1.
<scales pt_clust_5="13000.00000" pt_clust_6="13000.00000" pt_clust_7="13000.00000" pt_clust_8="13000.00000" pt_clust_9="68.62958"></scales>
<clustering>
<clus scale="   68.630">  2  9  1 -1</clus>
<clus scale="   91.366">  5  6 -1 -1</clus>
<clus scale="   92.230">  7  8 -1 -1</clus>
<clus scale="  101.431">  2  5  1 -1</clus>
<clus scale="  102.210">  1  5  2 -1</clus>
</clustering>
</event>
<event>
 9    1  0.2423659E-006  0.9675670E+02  0.7546771E-02  0.1288645E+00
         -1   -1    0    0    0  501 -0.00000000000E+00  0.00000000000E+00  0.32442963973E+02  0.32442963973E+02  0.00000000000E+00 0.  1.
          1   -1    0    0  502    0  0.00000000000E+00 -0.00000000000E+00 -0.49718079688E+03  0.49718079688E+03  0.00000000000E+00 0. -1.
         23    2    1    2    0    0  0.28376877330E+02  0.36316435526E+02 -0.11759647445E+03  0.15513876553E+03  0.90083156645E+02 0.  0.
         23    2    1    2    0    0 -0.25446727720E+02  0.21293871300E+01 -0.29030615762E+03  0.30580525223E+03  0.92666697906E+02 0.  0.
        -11    1    3    3    0    0  0.43431052731E+02  0.41786024395E+00 -0.15909071277E+02  0.46255048345E+02  0.00000000000E+00 0.  1.
         11    1    3    3    0    0 -0.15054175401E+02  0.35898575282E+02 -0.10168740317E+03  0.10888371718E+03  0.00000000000E+00 0. -1.
        -13    1    4    4    0    0 -0.27061635773E+01  0.38742767438E+02 -0.59803980282E+02  0.71308073930E+02  0.00000000000E+00 0. -1.
         13    1    4    4    0    0 -0.22740564143E+02 -0.36613380308E+02 -0.23050217734E+03  0.23449717830E+03  0.00000000000E+00 0.  1.
         21    1    1    2  502  501 -0.29301496093E+01 -0.38445822656E+02 -0.56835200842E+02  0.68679743093E+02  0.00000000000E+00 0.  1.
<scales pt_clust_5="13000.00000" pt_clust_6="13000.00000" pt_clust_7="13000.00000" pt_clust_8="13000.00000" pt_clust_9="38.55732"></scales>
<clustering>
<clus scale="   38.557">  1  9  2 -1</clus>
<clus scale="   90.083">  5  6 -1 -1</clus>
<clus scale="   92.667">  7  8 -1 -1</clus>
<clus scale="   94.285">  1  5  2 -1</clus>
<clus scale="   96.757">  2  5  1 -1</clus>
</clustering>
</event>
<event>
 9    1  0.2423659E-006  0.1508054E+03  0.7546771E-02  0.1199784E+00
          2   -1    0    0  502    0  0.00000000000E+00  0.00000000000E+00  0.10309590206E+04  0.10309590206E+04  0.00000000000E+00 0. -1.
         -2   -1    0    0    0  501 -0.00000000000E+00 -0.00000000000E+00 -0.34573207767E+02  0.34573207767E+02  0.00000000000E+00 0.  1.
         23    2    1    2    0    0  0.11687833415E+03  0.63202420895E+02  0.25228483484E+03  0.29898722197E+03  0.89947929420E+02 0.  0.
         23    2    1    2    0    0 -0.79891291896E+02 -0.64537048295E+02  0.44483443614E+03  0.46499851646E+03  0.88307958924E+02 0.  0.
        -11    1    3    3    0    0  0.40743986340E+02 -0.82680441498E+01  0.24127357563E+02  0.48068309310E+02  0.00000000000E+00 0.  1.
         11    1    3    3    0    0  0.76134347809E+02  0.71470465044E+02  0.22815747728E+03  0.25091891266E+03  0.00000000000E+00 0. -1.
        -11    1    4    4    0    0 -0.56627076265E+02  0.98373354268E+01  0.18298468716E+03  0.19179883907E+03  0.00000000000E+00 0. -1.
         11    1    4    4    0    0 -0.23264215631E+02 -0.74374383722E+02  0.26184974898E+03  0.27319967739E+03  0.00000000000E+00 0.  1.
         21    1    1    2  502  501 -0.36987042253E+02  0.13346274005E+01  0.29926654185E+03  0.30154648994E+03  0.00000000000E+00 0. -1.
<scales pt_clust_5="13000.00000" pt_clust_6="13000.00000" pt_clust_7="13000.00000" pt_clust_8="13000.00000" pt_clust_9="37.01111"></scales>
<clustering>
<clus scale="   37.011">  1  9  2 -1</clus>
<clus scale="   88.308">  7  8 -1 -1</clus>
<clus scale="   89.948">  5  6 -1 -1</clus>
<clus scale="  149.833">  1  7  2 -1</clus>
<clus scale="   37.011">  1  5  2 -1</clus>
</clustering>
</event>
<event>
 9    1  0.2423659E-006  0.9738698E+02  0.7546771E-02  0.1286139E+00
         -1   -1    0    0    0  501 -0.00000000000E+00  0.00000000000E+00  0.42723018701E+02  0.42723018701E+02  0.00000000000E+00 0.  1.
          1   -1    0    0  502    0  0.00000000000E+00 -0.00000000000E+00 -0.39012116098E+03  0.39012116098E+03  0.00000000000E+00 0. -1.
         23    2    1    2    0    0  0.35388991504E+02 -0.16101963423E+02 -0.52932154304E+02  0.11169340803E+03  0.90343513839E+02 0.  0.
         23    2    1    2    0    0 -0.35009945822E+02 -0.63022728342E+01 -0.27383485174E+03  0.29069199196E+03  0.90834427467E+02 0.  0.
        -11    1    3    3    0    0  0.47513978802E+02  0.95173174087E+01  0.34576834001E+01  0.48580995119E+02  0.00000000000E+00 0.  1.
         11    1    3    3    0    0 -0.12124987299E+02 -0.25619280831E+02 -0.56389837704E+02  0.63112412912E+02  0.00000000000E+00 0. -1.
        -13    1    4    4    0    0 -0.37431890748E+02  0.27408357311E+02 -0.69378402048E+02  0.83460931975E+02  0.00000000000E+00 0.  1.
         13    1    4    4    0    0  0.24219449257E+01 -0.33710630145E+02 -0.20445644969E+03  0.20723105999E+03  0.00000000000E+00 0. -1.
         21    1    1    2  502  501 -0.37904568192E+00  0.22404236257E+02 -0.20631136238E+02  0.30458779692E+02  0.00000000000E+00 0. -1.
<scales pt_clust_5="13000.00000" pt_clust_6="13000.00000" pt_clust_7="13000.00000" pt_clust_8="13000.00000" pt_clust_9="22.40744"></scales>
<clustering>
<clus scale="   22.407">  1  9  2 -1</clus>
<clus scale="   90.344">  5  6 -1 -1</clus>
<clus scale="   90.834">  7  8 -1 -1</clus>
<clus scale="   96.929">  1  5  2 -1</clus>
<clus scale="   97.387">  2  5  1 -1</clus>
</clustering>
</event>
<event>
 9    1  0.2423659E-006  0.1195360E+03  0.7546771E-02  0.1243999E+00
         -2   -1    0    0    0  501 -0.00000000000E+00  0.00000000000E+00  0.95272567542E+02  0.95272567542E+02  0.00000000000E+00 0.  1.
          2   -1    0    0  502    0  0.00000000000E+00 -0.00000000000E+00 -0.58316754265E+03  0.58316754265E+03  0.00000000000E+00 0. -1.
         23    2    1    2    0    0  0.14842344217E+02 -0.71564115432E+02  0.34774426560E+02  0.12290257180E+03  0.92488180934E+02 0.  0.
         23    2    1    2    0    0 -0.88260746132E+01  0.10558437711E+03 -0.48275635401E+03  0.50274904459E+03  0.92070322136E+02 0.  0.
        -11    1    3    3    0    0  0.27646035022E+02  0.12299979583E+02 -0.22440124037E+01  0.30341857917E+02  0.00000000000E+00 0. -1.
         11    1    3    3    0    0 -0.12803690805E+02 -0.83864095015E+02  0.37018438964E+02  0.92560713881E+02  0.00000000000E+00 0.  1.
        -11    1    4    4    0    0  0.19196855371E+02  0.10676173890E+03 -0.32799888621E+03  0.34547048717E+03  0.00000000000E+00 0. -1.
         11    1    4    4    0    0 -0.28022929984E+02 -0.11773617880E+01 -0.15475746780E+03  0.15727855743E+03  0.00000000000E+00 0.  1.
         21    1    1    2  502  501 -0.60162696042E+01 -0.34020261677E+02 -0.39913047658E+02  0.52788493802E+02  0.00000000000E+00 0.  1.
<scales pt_clust_5="13000.00000" pt_clust_6="13000.00000" pt_clust_7="13000.00000" pt_clust_8="13000.00000" pt_clust_9="34.54814"></scales>
<clustering>
<clus scale="   34.548">  2  9  1 -1</clus>
<clus scale="   92.070">  7  8 -1 -1</clus>
<clus scale="   92.488">  5  6 -1 -1</clus>
<clus scale="  119.213">  2  7  1 -1</clus>
<clus scale="   34.548">  2  5  1 -1</clus>
</clustering>
</event>
<event>
 9    1  0.2423659E-006  0.1406102E+03  0.7546771E-02  0.1214249E+00
         -1   -1    0    0    0  501 -0.00000000000E+00  0.00000000000E+00  0.15454979926E+03  0.15454979926E+03  0.00000000000E+00 0.  1.
          1   -1    0    0  502    0  0.00000000000E+00 -0.00000000000E+00 -0.43885444492E+03  0.43885444492E+03  0.00000000000E+00 0. -1.
         23    2    1    2    0    0 -0.10544732079E+03  0.51631531635E+02  0.53490599619E+02  0.16238047313E+03  0.98596253924E+02 0.  0.
         23    2    1    2    0    0 -0.17242685206E+02 -0.99470145331E+02 -0.17206524713E+03  0.21934523454E+03  0.91182578604E+02 0.  0.
        -11    1    3    3    0    0 -0.10539665577E+03  0.16111543274E+02  0.65204636903E+02  0.12497872438E+03  0.00000000000E+00 0.  1.
         11    1    3    3    0    0 -0.50665011132E-01  0.35519988360E+02 -0.11714037284E+02  0.37401748750E+02  0.00000000000E+00 0. -1.
        -13    1    4    4    0    0 -0.48592606952E+02 -0.49289545215E+02 -0.55861389037E+02  0.88944901501E+02  0.00000000000E+00 0.  1.
         13    1    4    4    0    0  0.31349921746E+02 -0.50180600116E+02 -0.11620385809E+03  0.13040033304E+03  0.00000000000E+00 0. -1.
         21    1    1    2  502  501  0.12269000599E+03  0.47838613696E+02 -0.16572999815E+03  0.21167853650E+03  0.00000000000E+00 0. -1.
<scales pt_clust_5="13000.00000" pt_clust_6="13000.00000" pt_clust_7="13000.00000" pt_clust_8="13000.00000" pt_clust_9="131.68664"></scales>
<clustering>
<clus scale="   91.183">  7  8 -1 -1</clus>
<clus scale="   98.596">  5  6 -1 -1</clus>
<clus scale="  131.687">  2  9  1 -1</clus>
<clus scale="  135.515">  2  7  1 -1</clus>
<clus scale="  131.687">  2  5  1 -1</clus>
</clustering>
</event>
<event>
 9    1  0.2423659E-006  0.1818515E+03  0.7546771E-02  0.1175665E+00
         -2   -1    0    0    0  501 -0.00000000000E+00  0.00000000000E+00  0.40528289454E+03  0.40528289454E+03  0.00000000000E+00 0.  1.
          2   -1    0    0  502    0  0.00000000000E+00 -0.00000000000E+00 -0.29748219211E+03  0.29748219211E+03  0.00000000000E+00 0. -1.
         23    2    1    2    0    0  0.10986338716E+03  0.39569241206E+02  0.12299985410E+03  0.19220374679E+03  0.90430235450E+02 0.  0.
         23    2    1    2    0    0  0.11426982008E+03  0.68318984485E+01 -0.17764811413E+03  0.22988639307E+03  0.90468970623E+02 0.  0.
        -13    1    3    3    0    0  0.10407308392E+03  0.63949995939E+02  0.10765269954E+03  0.16281864911E+03  0.00000000000E+00 0.  1.
         13    1    3    3    0    0  0.57903032379E+01 -0.24380754733E+02  0.15347154560E+02  0.29385097686E+02  0.00000000000E+00 0. -1.
        -13    1    4    4    0    0  0.18203676875E+02 -0.33612260199E+02 -0.27432591765E+02  0.47050026338E+02  0.00000000000E+00 0. -1.
         13    1    4    4    0    0  0.96066143202E+02  0.40444158648E+02 -0.15021552237E+03  0.18283636673E+03  0.00000000000E+00 0.  1.
         21    1    1    2  502  501 -0.22413320724E+03 -0.46401139655E+02  0.16244896247E+03  0.28067494679E+03  0.00000000000E+00 0. -1.
<scales pt_clust_5="13000.00000" pt_clust_6="13000.00000" pt_clust_7="13000.00000" pt_clust_8="13000.00000" pt_clust_9="157.77311"></scales>
<clustering>
<clus scale="   90.430">  5  6 -1 -1</clus>
<clus scale="   90.469">  7  8 -1 -1</clus>
<clus scale="  145.907">  2  7  1 -1</clus>
<clus scale="  157.773">  2  9  1 -1</clus>
<clus scale="  145.907">  2  5  1 -1</clus>
</clustering>
</event>
<event>
 9    1  0.2423659E-006  0.1401073E+03  0.7546771E-02  0.1214059E+00
         -1   -1    0    0    0  501 -0.00000000000E+00  0.00000000000E+00  0.10777797024E+03  0.10777797024E+03  0.00000000000E+00 0.  1.
          1   -1    0    0  502    0  0.00000000000E+00 -0.00000000000E+00 -0.24074959206E+03  0.24074959206E+03  0.00000000000E+00 0. -1.
         23    2    1    2    0    0 -0.74471572981E+02  0.10210564768E+03 -0.69991958666E+02  0.16648896590E+03  0.82753386738E+02 0.  0.
         23    2    1    2    0    0  0.42899141982E+02 -0.87018238991E+02 -0.67528554587E+02  0.14675204495E+03  0.86968653617E+02 0.  0.
        -11    1    4    4    0    0 -0.20724906252E+02 -0.50757293381E+02 -0.15679046929E+02  0.57023302983E+02  0.00000000000E+00 0.  1.
         11    1    4    4    0    0  0.63624048234E+02 -0.36260945610E+02 -0.51849507657E+02  0.89728741965E+02  0.00000000000E+00 0. -1.
        -13    1    3    3    0    0 -0.89854503746E+02  0.65146442317E+02 -0.49671038345E+02  0.12159400824E+03  0.00000000000E+00 0.  1.
         13    1    3    3    0    0  0.15382930765E+02  0.36959205364E+02 -0.20320920321E+02  0.44894957654E+02  0.00000000000E+00 0. -1.
         21    1    1    2  502  501  0.31572430999E+02 -0.15087408690E+02  0.45488914290E+01  0.35286551452E+02  0.00000000000E+00 0. -1.
<scales pt_clust_5="13000.00000" pt_clust_6="13000.00000" pt_clust_7="13000.00000" pt_clust_8="13000.00000" pt_clust_9="34.99212"></scales>
<clustering>
<clus scale="   34.992">  1  9  2 -1</clus>
<clus scale="   82.753">  7  8 -1 -1</clus>
<clus scale="   86.969">  5  6 -1 -1</clus>
<clus scale="  137.530">  1  7  2 -1</clus>
<clus scale="  140.107">  2  5  1 -1</clus>
</clustering>
</event>
<event>
 9    1  0.2423659E-006  0.2401249E+03  0.7546771E-02  0.1155838E+00
          2   -1    0    0  502    0  0.00000000000E+00  0.00000000000E+00  0.13295011737E+03  0.13295011737E+03  0.00000000000E+00 0. -1.
         -2   -1    0    0    0  501 -0.00000000000E+00 -0.00000000000E+00 -0.62648223360E+03  0.62648223360E+03  0.00000000000E+00 0.  1.
         23    2    1    2    0    0 -0.20143230059E+03  0.15661029234E+02 -0.15639169175E+03  0.27181517845E+03  0.92762548636E+02 0.  0.
         23    2    1    2    0    0 -0.30279373103E+02  0.28182252105E+02 -0.38827432638E+02  0.10734993210E+03  0.91133740334E+02 0.  0.
        -11    1    3    3    0    0 -0.14429434820E+03  0.24480307966E+02 -0.15612768864E+03  0.21399999897E+03  0.00000000000E+00 0.  1.
         11    1    3    3    0    0 -0.57137952383E+02 -0.88192787316E+01 -0.26400311260E+00  0.57815179473E+02  0.00000000000E+00 0. -1.
        -13    1    4    4    0    0 -0.22547791664E+02  0.61300294548E+02 -0.31703195347E+02  0.72603179103E+02  0.00000000000E+00 0.  1.
         13    1    4    4    0    0 -0.77315814384E+01 -0.33118042443E+02 -0.71242372905E+01  0.34746752996E+02  0.00000000000E+00 0. -1.
         21    1    1    2  502  501  0.23171167369E+03 -0.43843281339E+02 -0.29831299184E+03  0.38026724042E+03  0.00000000000E+00 0. -1.
<scales pt_clust_5="13000.00000" pt_clust_6="13000.00000" pt_clust_7="13000.00000" pt_clust_8="13000.00000" pt_clust_9="221.48381"></scales>
<clustering>
<clus scale="   91.134">  7  8 -1 -1</clus>
<clus scale="   92.763">  5  6 -1 -1</clus>
<clus scale="  100.082">  1  7  2 -1</clus>
<clus scale="  221.484">  2  9  1 -1</clus>
<clus scale="  100.082">  1  5  2 -1</clus>
</clustering>
</event>
<event>
 9    1  0.2423659E-006  0.9393948E+02  0.7546771E-02  0.1293688E+00
          2   -1    0    0  502    0  0.00000000000E+00  0.00000000000E+00  0.32560727210E+03  0.32560727210E+03  0.00000000000E+00 0. -1.
         -2   -1    0    0    0  501 -0.00000000000E+00 -0.00000000000E+00 -0.55600750097E+02  0.55600750097E+02  0.00000000000E+00 0.  1.
         23    2    1    2    0    0 -0.18591896925E+02  0.21103524918E+02  0.11532954344E+03  0.14897193620E+03  0.90003982075E+02 0.  0.
         23    2    1    2    0    0  0.33367349518E+02  0.32285873645E+02  0.14379476174E+03  0.17578110817E+03  0.89812620679E+02 0.  0.
        -11    1    4    4    0    0 -0.27709411939E+01  0.41800255416E+02  0.19909746345E+02  0.46382512518E+02  0.00000000000E+00 0.  1.
         11    1    4    4    0    0  0.36138290712E+02 -0.95143817708E+01  0.12388501540E+03  0.12939859565E+03  0.00000000000E+00 0. -1.
        -13    1    3    3    0    0 -0.40048306365E+02 -0.28636927894E+01  0.13780561257E+02  0.42449634247E+02  0.00000000000E+00 0.  1.
         13    1    3    3    0    0  0.21456409440E+02  0.23967217708E+02  0.10154898218E+03  0.10652230195E+03  0.00000000000E+00 0. -1.
         21    1    1    2  502  501 -0.14775452594E+02 -0.53389398564E+02  0.10882216813E+02  0.56454977824E+02  0.00000000000E+00 0.  1.
<scales pt_clust_5="13000.00000" pt_clust_6="13000.00000" pt_clust_7="13000.00000" pt_clust_8="13000.00000" pt_clust_9="55.39623"></scales>
<clustering>
<clus scale="   55.396">  2  9  1 -1</clus>
<clus scale="   89.813">  5  6 -1 -1</clus>
<clus scale="   90.004">  7  8 -1 -1</clus>
<clus scale="   93.756">  1  5  2 -1</clus>
<clus scale="   93.756">  1  5  2 -1</clus>
</clustering>
</event>
<event>
 9    1  0.2423659E-006  0.9532568E+02  0.7546771E-02  0.1291155E+00
          1   -1    0    0  502    0  0.00000000000E+00  0.00000000000E+00  0.26501156085E+03  0.26501156085E+03  0.00000000000E+00 0. -1.
         -1   -1    0    0    0  501 -0.00000000000E+00 -0.00000000000E+00 -0.71671541746E+02  0.71671541746E+02  0.00000000000E+00 0.  1.
         23    2    1    2    0    0  0.12452912879E+02  0.53558603811E+02  0.10362049567E+03  0.14874052424E+03  0.91449097028E+02 0.  0.
         23    2    1    2    0    0  0.23510535703E+02 -0.39398720303E+00  0.80463790082E+02  0.12309263855E+03  0.90135873194E+02 0.  0.
        -13    1    3    3    0    0  0.42927240934E+02  0.61649822470E+02  0.70793106074E+02  0.10322360434E+03  0.00000000000E+00 0.  1.
         13    1    3    3    0    0 -0.30474328055E+02 -0.80912186589E+01  0.32827389597E+02  0.45516919904E+02  0.00000000000E+00 0. -1.
        -13    1    4    4    0    0  0.49809322642E+02  0.77443469466E+01  0.15821321400E+02  0.52832355073E+02  0.00000000000E+00 0.  1.
         13    1    4    4    0    0 -0.26298786940E+02 -0.81383341496E+01  0.64642468682E+02  0.70260283479E+02  0.00000000000E+00 0. -1.
         21    1    1    2  502  501 -0.35963448581E+02 -0.53164616608E+02  0.92557333546E+01  0.64849939806E+02  0.00000000000E+00 0. -1.
<scales pt_clust_5="13000.00000" pt_clust_6="13000.00000" pt_clust_7="13000.00000" pt_clust_8="13000.00000" pt_clust_9="64.18603"></scales>
<clustering>
<clus scale="   64.186">  2  9  1 -1</clus>
<clus scale="   90.136">  7  8 -1 -1</clus>
<clus scale="   91.449">  5  6 -1 -1</clus>
<clus scale="   94.067">  1  7  2 -1</clus>
<clus scale="   94.067">  1  5  2 -1</clus>
</clustering>
</event>
<event>
 9    1  0.4035116E-006  0.1514716E+03  0.7546771E-02  0.1198713E+00
         -1   -1    0    0    0  501 -0.00000000000E+00  0.00000000000E+00  0.50274977762E+03  0.50274977762E+03  0.00000000000E+00 0.  1.
          1   -1    0    0  502    0  0.00000000000E+00 -0.00000000000E+00 -0.57358242610E+03  0.57358242610E+03  0.00000000000E+00 0. -1.
         23    2    1    2    0    0  0.10717872253E+03 -0.37336320519E+02 -0.18413085056E+03  0.23488080957E+03  0.91561701521E+02 0.  0.
         23    2    1    2    0    0 -0.41777881605E+02  0.14884042563E+03 -0.33211973062E+03  0.37765448793E+03  0.91763462723E+02 0.  0.
        -11    1    4    4    0    0  0.18827217237E+02  0.93527048831E+02 -0.20839176221E+03  0.22919184001E+03  0.00000000000E+00 0. -1.
         11    1    4    4    0    0 -0.60605098841E+02  0.55313376804E+02 -0.12372796841E+03  0.14846264791E+03  0.00000000000E+00 0.  1.
        -13    1    3    3    0    0  0.68516191152E+02 -0.64549454410E+02 -0.93602495614E+02  0.13274986893E+03  0.00000000000E+00 0.  1.
         13    1    3    3    0    0  0.38662531382E+02  0.27213133892E+02 -0.90528354943E+02  0.10213094065E+03  0.00000000000E+00 0. -1.
         21    1    1    2  502  501 -0.65400840929E+02 -0.11150410512E+03  0.44541793269E+03  0.46379690622E+03  0.00000000000E+00 0.  1.
<scales pt_clust_5="13000.00000" pt_clust_6="13000.00000" pt_clust_7="13000.00000" pt_clust_8="13000.00000" pt_clust_9="129.26885"></scales>
<clustering>
<clus scale="   91.562">  7  8 -1 -1</clus>
<clus scale="   91.763">  5  6 -1 -1</clus>
<clus scale="  129.269">  1  9  2 -1</clus>
<clus scale="  151.349">  1  7  2 -1</clus>
<clus scale="  151.472">  2  5  1 -1</clus>
</clustering>
</event>
<event>
 9    1  0.2423659E-006  0.1320738E+03  0.7546771E-02  0.1224617E+00
         -1   -1    0    0    0  501 -0.00000000000E+00  0.00000000000E+00  0.20393027018E+03  0.20393027018E+03  0.00000000000E+00 0.  1.
          1   -1    0    0  502    0  0.00000000000E+00 -0.00000000000E+00 -0.20962738672E+03  0.20962738672E+03  0.00000000000E+00 0. -1.
         23    2    1    2    0    0  0.85514012312E+02 -0.49478429391E+02  0.14757400439E+03  0.19966695425E+03  0.91258120586E+02 0.  0.
         23    2    1    2    0    0 -0.56445847400E+02  0.54096957693E+02 -0.12736809845E+03  0.17468285153E+03  0.90437003467E+02 0.  0.
        -11    1    4    4    0    0 -0.11110815545E+02 -0.20157215094E+02 -0.34495925153E+01  0.23273659596E+02  0.00000000000E+00 0.  1.
         11    1    4    4    0    0 -0.45335031855E+02  0.74254172787E+02 -0.12391850594E+03  0.15140919194E+03  0.00000000000E+00 0. -1.
        -13    1    3    3    0    0  0.34743482802E+02 -0.31792845034E+02  0.13700763428E+03  0.14487576210E+03  0.00000000000E+00 0.  1.
         13    1    3    3    0    0  0.50770529510E+02 -0.17685584357E+02  0.10566370112E+02  0.54791192158E+02  0.00000000000E+00 0. -1.
         21    1    1    2  502  501 -0.29068164912E+02 -0.46185283020E+01 -0.25903022476E+02  0.39207851107E+02  0.00000000000E+00 0. -1.
<scales pt_clust_5="13000.00000" pt_clust_6="13000.00000" pt_clust_7="13000.00000" pt_clust_8="13000.00000" pt_clust_9="29.43279"></scales>
<clustering>
<clus scale="   29.433">  2  9  1 -1</clus>
<clus scale="   90.437">  5  6 -1 -1</clus>
<clus scale="   91.258">  7  8 -1 -1</clus>
<clus scale="  131.508">  2  5  1 -1</clus>
<clus scale="   29.433">  2  5  1 -1</clus>
</clustering>
</event>
<event>
 9    1  0.2423659E-006  0.9630376E+02  0.7546771E-02  0.1288279E+00
          2   -1    0    0  502    0  0.00000000000E+00  0.00000000000E+00  0.22315842473E+03  0.22315842473E+03  0.00000000000E+00 0. -1.
         -2   -1    0    0    0  501 -0.00000000000E+00 -0.00000000000E+00 -0.16966845347E+03  0.16966845347E+03  0.00000000000E+00 0.  1.
         23    2    1    2    0    0  0.12372656136E+02  0.54534293038E+01 -0.76151196665E+02  0.12049267267E+03  0.92394030660E+02 0.  0.
         23    2    1    2    0    0 -0.53727049677E+02 -0.33972838321E+01 -0.27035101608E+02  0.11027906975E+03  0.92371202775E+02 0.  0.
        -13    1    3    3    0    0 -0.21649844004E+02  0.39626243788E+02 -0.37206992329E+02  0.58509103739E+02  0.00000000000E+00 0.  1.
         13    1    3    3    0    0  0.34022500140E+02 -0.34172814484E+02 -0.38944204336E+02  0.61983568927E+02  0.00000000000E+00 0. -1.
        -13    1    4    4    0    0  0.25027537159E+02 -0.93022172351E+01 -0.14282811839E+02  0.30280481762E+02  0.00000000000E+00 0. -1.
         13    1    4    4    0    0 -0.78754586835E+02  0.59049334029E+01 -0.12752289769E+02  0.79998587990E+02  0.00000000000E+00 0.  1.
         21    1    1    2  502  501  0.41354393541E+02 -0.20561454717E+01  0.15667626954E+03  0.16205513579E+03  0.00000000000E+00 0. -1.
<scales pt_clust_5="13000.00000" pt_clust_6="13000.00000" pt_clust_7="13000.00000" pt_clust_8="13000.00000" pt_clust_9="41.40548"></scales>
<clustering>
<clus scale="   41.405">  1  9  2 -1</clus>
<clus scale="   92.371">  7  8 -1 -1</clus>
<clus scale="   92.394">  5  6 -1 -1</clus>
<clus scale="   96.282">  1  7  2 -1</clus>
<clus scale="   41.405">  1  5  2 -1</clus>
</clustering>
</event>
<event>
 9    1  0.2423659E-006  0.1577268E+03  0.7546771E-02  0.1211516E+00
          1   -1    0    0  502    0  0.00000000000E+00  0.00000000000E+00  0.67727795448E+03  0.67727795448E+03  0.00000000000E+00 0. -1.
         -1   -1    0    0    0  501 -0.00000000000E+00 -0.00000000000E+00 -0.17550867928E+03  0.17550867928E+03  0.00000000000E+00 0.  1.
         23    2    1    2    0    0  0.43457718642E+02 -0.21436534000E+02 -0.12548831997E+03  0.16155739694E+03  0.89472765453E+02 0.  0.
         23    2    1    2    0    0 -0.25576260626E+02 -0.11623996215E+03  0.34132187855E+03  0.37337109523E+03  0.93485164954E+02 0.  0.
        -11    1    3    3    0    0  0.42452930544E+02  0.11426030139E+02 -0.12054271020E+03  0.12830958834E+03  0.00000000000E+00 0.  1.
         11    1    3    3    0    0  0.10047880982E+01 -0.32862564139E+02 -0.49456097674E+01  0.33247808603E+02  0.00000000000E+00 0. -1.
        -13    1    4    4    0    0  0.12928074123E+02 -0.35213472721E+02  0.21609592013E+03  0.21932754150E+03  0.00000000000E+00 0. -1.
         13    1    4    4    0    0 -0.38504334749E+02 -0.81026489433E+02  0.12522595841E+03  0.15404355373E+03  0.00000000000E+00 0.  1.
         21    1    1    2  502  501 -0.17881458017E+02  0.13767649615E+03  0.28593571662E+03  0.31785814159E+03  0.00000000000E+00 0.  1.
<scales pt_clust_5="13000.00000" pt_clust_6="13000.00000" pt_clust_7="13000.00000" pt_clust_8="13000.00000" pt_clust_9="127.03645"></scales>
<clustering>
<clus scale="   89.473">  5  6 -1 -1</clus>
<clus scale="   93.485">  7  8 -1 -1</clus>
<clus scale="  101.752">  2  5  1 -1</clus>
<clus scale="  127.036">  2  9  1 -1</clus>
<clus scale="  157.727">  1  5  2 -1</clus>
</clustering>
</event>
<event>
 9    1  0.2423659E-006  0.1070063E+03  0.7546771E-02  0.1268017E+00
          1   -1    0    0  502    0  0.00000000000E+00  0.00000000000E+00  0.16396824469E+03  0.16396824469E+03  0.00000000000E+00 0. -1.
         -1   -1    0    0    0  501 -0.00000000000E+00 -0.00000000000E+00 -0.26563940580E+03  0.26563940580E+03  0.00000000000E+00 0.  1.
         23    2    1    2    0    0  0.11211814279E+03 -0.83583911684E+02 -0.12566667622E+03  0.20866753198E+03  0.90516723058E+02 0.  0.
         23    2    1    2    0    0 -0.40255372880E+02  0.18899204473E+02  0.64154178629E+02  0.11624490706E+03  0.86136199158E+02 0.  0.
        -11    1    4    4    0    0  0.16054879495E+02  0.31004706291E+02  0.41796502184E+02  0.54460982020E+02  0.00000000000E+00 0. -1.
         11    1    4    4    0    0 -0.56310252375E+02 -0.12105501817E+02  0.22357676445E+02  0.61783925036E+02  0.00000000000E+00 0.  1.
        -13    1    3    3    0    0  0.65544331446E+02 -0.97836931432E+02 -0.92381883556E+02  0.14967477057E+03  0.00000000000E+00 0.  1.
         13    1    3    3    0    0  0.46573811349E+02  0.14253019747E+02 -0.33284792667E+02  0.58992761406E+02  0.00000000000E+00 0. -1.
         21    1    1    2  502  501 -0.71862769915E+02  0.64684707211E+02 -0.40158663508E+02  0.10469521146E+03  0.00000000000E+00 0.  1.
<scales pt_clust_5="13000.00000" pt_clust_6="13000.00000" pt_clust_7="13000.00000" pt_clust_8="13000.00000" pt_clust_9="96.68696"></scales>
<clustering>
<clus scale="   86.136">  5  6 -1 -1</clus>
<clus scale="   90.517">  7  8 -1 -1</clus>
<clus scale="   96.687">  2  9  1 -1</clus>
<clus scale="  103.327">  1  5  2 -1</clus>
<clus scale="  103.327">  1  5  2 -1</clus>
</clustering>
</event>
<event>
 9    1  0.2423659E-006  0.1012312E+03  0.7546771E-02  0.1278086E+00
          2   -1    0    0  502    0  0.00000000000E+00  0.00000000000E+00  0.58525324084E+03  0.58525324084E+03  0.00000000000E+00 0. -1.
         -2   -1    0    0    0  501 -0.00000000000E+00 -0.00000000000E+00 -0.29834879029E+02  0.29834879029E+02  0.00000000000E+00 0.  1.
         23    2    1    2    0    0  0.13683707737E+02  0.23845766414E+02  0.10425299095E+03  0.14018968316E+03  0.89602436970E+02 0.  0.
         23    2    1    2    0    0 -0.79959811130E+01 -0.52043985482E+02  0.41849782523E+03  0.43137076355E+03  0.90375847339E+02 0.  0.
        -13    1    4    4    0    0  0.71678540107E+01  0.25019013500E+02  0.10865918692E+03  0.11173248440E+03  0.00000000000E+00 0.  1.
         13    1    4    4    0    0 -0.15163835124E+02 -0.77062998982E+02  0.30983863831E+03  0.31963827915E+03  0.00000000000E+00 0. -1.
        -13    1    3    3    0    0  0.32067183286E+02 -0.23343041173E+02  0.64872272665E+02  0.76036922451E+02  0.00000000000E+00 0. -1.
         13    1    3    3    0    0 -0.18383475549E+02  0.47188807587E+02  0.39380718281E+02  0.64152760713E+02  0.00000000000E+00 0.  1.
         21    1    1    2  502  501 -0.56877266236E+01  0.28198219069E+02  0.32667545635E+02  0.43527673158E+02  0.00000000000E+00 0.  1.
<scales pt_clust_5="13000.00000" pt_clust_6="13000.00000" pt_clust_7="13000.00000" pt_clust_8="13000.00000" pt_clust_9="28.76612"></scales>
<clustering>
<clus scale="   28.766">  2  9  1 -1</clus>
<clus scale="   89.602">  7  8 -1 -1</clus>
<clus scale="   90.376">  5  6 -1 -1</clus>
<clus scale="  100.541">  2  7  1 -1</clus>
<clus scale="  101.231">  1  5  2 -1</clus>
</clustering>
</event>
<event>
 9    1  0.2423659E-006  0.1503495E+03  0.7546771E-02  0.1200927E+00
          1   -1    0    0  502    0  0.00000000000E+00  0.00000000000E+00  0.97550476909E+03  0.97550476909E+03  0.00000000000E+00 0. -1.
         -1   -1    0    0    0  501 -0.00000000000E+00 -0.00000000000E+00 -0.66977509585E+02  0.66977509585E+02  0.00000000000E+00 0.  1.
         23    2    1    2    0    0 -0.78847558267E+02 -0.15135528565E+02  0.14449637046E+03  0.18752829847E+03  0.88553034846E+02 0.  0.
         23    2    1    2    0    0  0.12035768855E+03 -0.79362820003E+02  0.72427980448E+03  0.74435028442E+03  0.93229181796E+02 0.  0.
        -11    1    3    3    0    0 -0.69079441050E+02  0.27073021182E+02  0.74044366671E+02  0.10482120915E+03  0.00000000000E+00 0.  1.
         11    1    3    3    0    0 -0.97681172167E+01 -0.42208549747E+02  0.70452003790E+02  0.82707089319E+02  0.00000000000E+00 0. -1.
        -13    1    4    4    0    0  0.20527632969E+02 -0.27323763134E+02  0.48942347782E+02  0.59693593907E+02  0.00000000000E+00 0.  1.
         13    1    4    4    0    0  0.99830055577E+02 -0.52039056868E+02  0.67533745670E+03  0.68465669051E+03  0.00000000000E+00 0. -1.
         21    1    1    2  502  501 -0.41510130279E+02  0.94498348568E+02  0.39751084557E+02  0.11060369578E+03  0.00000000000E+00 0.  1.
<scales pt_clust_5="13000.00000" pt_clust_6="13000.00000" pt_clust_7="13000.00000" pt_clust_8="13000.00000" pt_clust_9="103.21351"></scales>
<clustering>
<clus scale="   88.553">  5  6 -1 -1</clus>
<clus scale="   93.229">  7  8 -1 -1</clus>
<clus scale="  103.214">  2  9  1 -1</clus>
<clus scale="  147.496">  2  5  1 -1</clus>
<clus scale="  150.350">  1  5  2 -1</clus>
</clustering>
</event>
<event>
 9    1  0.2423659E-006  0.1514237E+03  0.7546771E-02  0.1202218E+00
          1   -1    0    0  502    0  0.00000000000E+00  0.00000000000E+00  0.46147348905E+03  0.46147348905E+03  0.00000000000E+00 0. -1.
         -1   -1    0    0    0  501 -0.00000000000E+00 -0.00000000000E+00 -0.99074947485E+02  0.99074947485E+02  0.00000000000E+00 0.  1.
         23    2    1    2    0    0  0.16757178355E+03 -0.14940140527E+02  0.23255348964E+03  0.29821532879E+03  0.80918145949E+02 0.  0.
         23    2    1    2    0    0 -0.70055996535E+02  0.24699244028E+00  0.10578763267E+03  0.16082460199E+03  0.98821180542E+02 0.  0.
        -11    1    3    3    0    0  0.11710681940E+03 -0.15223795170E+02  0.94567389183E+02  0.15129032416E+03  0.00000000000E+00 0.  1.
         11    1    3    3    0    0  0.50464964155E+02  0.28365464344E+00  0.13798610045E+03  0.14692500463E+03  0.00000000000E+00 0. -1.
        -11    1    4    4    0    0 -0.86393640415E+02  0.23222735217E+02  0.62365950868E+02  0.10905351146E+03  0.00000000000E+00 0. -1.
         11    1    4    4    0    0  0.16337643880E+02 -0.22975742777E+02  0.43421681800E+02  0.51771090524E+02  0.00000000000E+00 0.  1.
         21    1    1    2  502  501 -0.97515787018E+02  0.14693148087E+02  0.24057419262E+02  0.10150850575E+03  0.00000000000E+00 0. -1.
<scales pt_clust_5="13000.00000" pt_clust_6="13000.00000" pt_clust_7="13000.00000" pt_clust_8="13000.00000" pt_clust_9="98.61652"></scales>
<clustering>
<clus scale="   80.918">  5  6 -1 -1</clus>
<clus scale="   98.617">  2  9  1 -1</clus>
<clus scale="   98.821">  7  8 -1 -1</clus>
<clus scale="  140.397">  2  5  1 -1</clus>
<clus scale="  151.424">  1  5  2 -1</clus>
</clustering>
</event>
<event>
 9    1  0.2423659E-006  0.1654883E+03  0.7546771E-02  0.1183252E+00
          2   -1    0    0  502    0  0.00000000000E+00  0.00000000000E+00  0.44920326947E+03  0.44920326947E+03  0.00000000000E+00 0. -1.
         -2   -1    0    0    0  501 -0.00000000000E+00 -0.00000000000E+00 -0.24280027044E+03  0.24280027044E+03  0.00000000000E+00 0.  1.
         23    2    1    2    0    0 -0.61804150904E+02 -0.15586968347E+03 -0.14467018889E+03  0.24176954125E+03  0.96994516480E+02 0.  0.
         23    2    1    2    0    0 -0.15690072920E+02  0.77788739079E+02  0.54487748291E+02  0.13390361503E+03  0.93080594582E+02 0.  0.
        -11    1    3    3    0    0  0.60516608489E+01 -0.61000402239E+02 -0.75682502973E+01  0.61765282197E+02  0.00000000000E+00 0. -1.
         11    1    3    3    0    0 -0.67855811753E+02 -0.94869281235E+02 -0.13710193860E+03  0.18000425905E+03  0.00000000000E+00 0.  1.
        -11    1    4    4    0    0  0.20338754290E+02  0.75965334699E+02  0.57916120412E+02  0.97666135408E+02  0.00000000000E+00 0.  1.
         11    1    4    4    0    0 -0.36028827211E+02  0.18234043806E+01 -0.34283721214E+01  0.36237479619E+02  0.00000000000E+00 0. -1.
         21    1    1    2  502  501  0.77494223824E+02  0.78080944395E+02  0.29658543963E+03  0.31633038363E+03  0.00000000000E+00 0. -1.
<scales pt_clust_5="13000.00000" pt_clust_6="13000.00000" pt_clust_7="13000.00000" pt_clust_8="13000.00000" pt_clust_9="110.00904"></scales>
<clustering>
<clus scale="   93.081">  7  8 -1 -1</clus>
<clus scale="   96.995">  5  6 -1 -1</clus>
<clus scale="  110.009">  1  9  2 -1</clus>
<clus scale="  163.225">  1  7  2 -1</clus>
<clus scale="  110.009">  1  5  2 -1</clus>
</clustering>
</event>
<event>
 9    1  0.2423659E-006  0.1940924E+03  0.7546771E-02  0.1154900E+00
         -1   -1    0    0    0  501 -0.00000000000E+00  0.00000000000E+00  0.21225289284E+03  0.21225289284E+03  0.00000000000E+00 0.  1.
          1   -1    0    0  502    0  0.00000000000E+00 -0.00000000000E+00 -0.66587308746E+03  0.66587308746E+03  0.00000000000E+00 0. -1.
         23    2    1    2    0    0 -0.24523446906E+02  0.20625556320E+03  0.60429574814E+02  0.23566746427E+03  0.93512904996E+02 0.  0.
         23    2    1    2    0    0  0.58943883634E+02 -0.11524003235E+03 -0.47950390751E+02  0.16631019446E+03  0.92764186699E+02 0.  0.
        -11    1    3    3    0    0 -0.43608670810E+02  0.19458182268E+03  0.36162335156E+02  0.20266108746E+03  0.00000000000E+00 0. -1.
         11    1    3    3    0    0  0.19085223904E+02  0.11673740528E+02  0.24267239658E+02  0.33006376808E+02  0.00000000000E+00 0.  1.
        -13    1    4    4    0    0  0.42254520559E+02 -0.36329024620E+02 -0.63163922130E+02  0.84231369432E+02  0.00000000000E+00 0. -1.
         13    1    4    4    0    0  0.16689363075E+02 -0.78911007729E+02  0.15213531380E+02  0.82078825026E+02  0.00000000000E+00 0.  1.
         21    1    1    2  502  501 -0.34420436728E+02 -0.91015530855E+02 -0.46609937869E+03  0.47614832157E+03  0.00000000000E+00 0.  1.
<scales pt_clust_5="13000.00000" pt_clust_6="13000.00000" pt_clust_7="13000.00000" pt_clust_8="13000.00000" pt_clust_9="97.30670"></scales>
<clustering>
<clus scale="   92.764">  7  8 -1 -1</clus>
<clus scale="   93.513">  5  6 -1 -1</clus>
<clus scale="   97.307">  2  9  1 -1</clus>
<clus scale="  193.733">  2  7  1 -1</clus>
<clus scale="   97.307">  2  5  1 -1</clus>
</clustering>
</event>
<event>
 9    1  0.2423659E-006  0.1103505E+03  0.7546771E-02  0.1260198E+00
          1   -1    0    0  502    0  0.00000000000E+00  0.00000000000E+00  0.35819070405E+03  0.35819070405E+03  0.00000000000E+00 0. -1.
         -1   -1    0    0    0  501 -0.00000000000E+00 -0.00000000000E+00 -0.11460113738E+03  0.11460113738E+03  0.00000000000E+00 0.  1.
         23    2    1    2    0    0 -0.29661871968E+02  0.33757548661E+01  0.33435288425E+02  0.10095194048E+03  0.90455256365E+02 0.  0.
         23    2    1    2    0    0  0.37524530884E+02  0.76157723768E+02  0.25271724017E+03  0.28129156382E+03  0.89726535043E+02 0.  0.
        -13    1    3    3    0    0 -0.16234595970E+02 -0.38599030178E+02  0.38128794146E+02  0.56632607039E+02  0.00000000000E+00 0. -1.
         13    1    3    3    0    0 -0.13427275998E+02  0.41974785045E+02 -0.46935057214E+01  0.44319333436E+02  0.00000000000E+00 0.  1.
        -13    1    4    4    0    0  0.44497315613E+02 -0.24068791179E+01  0.96480758444E+02  0.10627483669E+03  0.00000000000E+00 0. -1.
         13    1    4    4    0    0 -0.69727847293E+01  0.78564602886E+02  0.15623648173E+03  0.17501672713E+03  0.00000000000E+00 0.  1.
         21    1    1    2  502  501 -0.78626589157E+01 -0.79533478634E+02 -0.42562961933E+02  0.90548337132E+02  0.00000000000E+00 0. -1.
<scales pt_clust_5="13000.00000" pt_clust_6="13000.00000" pt_clust_7="13000.00000" pt_clust_8="13000.00000" pt_clust_9="79.92118"></scales>
<clustering>
<clus scale="   79.921">  2  9  1 -1</clus>
<clus scale="   89.727">  7  8 -1 -1</clus>
<clus scale="   90.455">  5  6 -1 -1</clus>
<clus scale="  109.754">  1  7  2 -1</clus>
<clus scale="  109.754">  1  5  2 -1</clus>
</clustering>
</event>
<event>
 9    1  0.2423659E-006  0.1018211E+03  0.7546771E-02  0.1277374E+00
         -1   -1    0    0    0  501 -0.00000000000E+00  0.00000000000E+00  0.54188198076E+02  0.54188198076E+02  0.00000000000E+00 0.  1.
          1   -1    0    0  502    0  0.00000000000E+00 -0.00000000000E+00 -0.30574533143E+03  0.30574533143E+03  0.00000000000E+00 0. -1.
         23    2    1    2    0    0  0.27899948542E+02 -0.20729539800E+02 -0.85212703781E+02  0.12984873615E+03  0.91604412798E+02 0.  0.
         23    2    1    2    0    0 -0.56377231601E+02 -0.18302819802E+02 -0.11674995964E+03  0.16084541010E+03  0.93420058972E+02 0.  0.
        -13    1    4    4    0    0 -0.53959039220E+02  0.29913897627E+02 -0.56678679442E+02  0.83778827206E+02  0.00000000000E+00 0.  1.
         13    1    4    4    0    0 -0.24181923805E+01 -0.48216717430E+02 -0.60071280194E+02  0.77066582889E+02  0.00000000000E+00 0. -1.
        -13    1    3    3    0    0 -0.19031085889E+02  0.16606582041E+02  0.47169812185E+00  0.25262290005E+02  0.00000000000E+00 0.  1.
         13    1    3    3    0    0  0.46931034431E+02 -0.37336121841E+02 -0.85684401902E+02  0.10458644614E+03  0.00000000000E+00 0. -1.
         21    1    1    2  502  501  0.28477283059E+02  0.39032359602E+02 -0.49594469938E+02  0.69239383266E+02  0.00000000000E+00 0.  1.
<scales pt_clust_5="13000.00000" pt_clust_6="13000.00000" pt_clust_7="13000.00000" pt_clust_8="13000.00000" pt_clust_9="48.31646"></scales>
<clustering>
<clus scale="   48.316">  2  9  1 -1</clus>
<clus scale="   91.604">  7  8 -1 -1</clus>
<clus scale="   93.420">  5  6 -1 -1</clus>
<clus scale="  100.158">  1  7  2 -1</clus>
<clus scale="   48.316">  2  5  1 -1</clus>
</clustering>
</event>
<event>
 9    1  0.2423659E-006  0.9309723E+02  0.7546771E-02  0.1298077E+00
          2   -1    0    0  502    0  0.00000000000E+00  0.00000000000E+00  0.25388906705E+03  0.25388906705E+03  0.00000000000E+00 0. -1.
         -2   -1    0    0    0  501 -0.00000000000E+00 -0.00000000000E+00 -0.16572837147E+03  0.16572837147E+03  0.00000000000E+00 0.  1.
         23    2    1    2    0    0  0.12782744423E+02 -0.44625660898E+02  0.80603224487E+02  0.13083967119E+03  0.92017887354E+02 0.  0.
         23    2    1    2    0    0 -0.14985303571E+02 -0.28772792162E+02  0.12145762268E+03  0.15325865905E+03  0.87657455907E+02 0.  0.
        -11    1    4    4    0    0 -0.35816498333E+02 -0.22077151297E+02  0.15143643098E+02  0.44716351467E+02  0.00000000000E+00 0.  1.
         11    1    4    4    0    0  0.20831194762E+02 -0.66956408650E+01  0.10631397958E+03  0.10854230759E+03  0.00000000000E+00 0. -1.
        -13    1    3    3    0    0  0.40521941630E+02 -0.58655617231E+02  0.48977357063E+02  0.86494454684E+02  0.00000000000E+00 0. -1.
         13    1    3    3    0    0 -0.27739197207E+02  0.14029956333E+02  0.31625867425E+02  0.44345216504E+02  0.00000000000E+00 0.  1.
         21    1    1    2  502  501  0.22025591480E+01  0.73398453060E+02 -0.11390015159E+03  0.13551910828E+03  0.00000000000E+00 0.  1.
<scales pt_clust_5="13000.00000" pt_clust_6="13000.00000" pt_clust_7="13000.00000" pt_clust_8="13000.00000" pt_clust_9="73.43149"></scales>
<clustering>
<clus scale="   73.431">  2  9  1 -1</clus>
<clus scale="   87.657">  5  6 -1 -1</clus>
<clus scale="   88.790">  1  5  2 -1</clus>
<clus scale="   92.018">  7  8 -1 -1</clus>
<clus scale="   88.790">  1  5  2 -1</clus>
</clustering>
</event>
<event>
 9    1  0.2423659E-006  0.1011645E+03  0.7546771E-02  0.1281121E+00
          2   -1    0    0  502    0  0.00000000000E+00  0.00000000000E+00  0.18818149585E+02  0.18818149585E+02  0.00000000000E+00 0. -1.
         -2   -1    0    0    0  501 -0.00000000000E+00 -0.00000000000E+00 -0.93047674492E+03  0.93047674492E+03  0.00000000000E+00 0.  1.
         23    2    1    2    0    0 -0.27282596675E+01 -0.41782362471E+01 -0.41340655431E+03  0.42357412033E+03  0.92114902238E+02 0.  0.
         23    2    1    2    0    0  0.29344453384E+02 -0.20499573408E+02 -0.20454180973E+03  0.22977632663E+03  0.98379260521E+02 0.  0.
        -11    1    4    4    0    0  0.48535625048E+02 -0.49180090275E+02 -0.12015229688E+03  0.13860361692E+03  0.00000000000E+00 0.  1.
         11    1    4    4    0    0 -0.19191171665E+02  0.28680516867E+02 -0.84389512851E+02  0.91172709716E+02  0.00000000000E+00 0. -1.
        -13    1    3    3    0    0  0.31526961300E+02 -0.34161400868E+02 -0.19358110203E+03  0.19908438829E+03  0.00000000000E+00 0.  1.
         13    1    3    3    0    0 -0.34255220968E+02  0.29983164621E+02 -0.21982545228E+03  0.22448973204E+03  0.00000000000E+00 0. -1.
         21    1    1    2  502  501 -0.26616193716E+02  0.24677809655E+02 -0.29371023130E+03  0.29594444754E+03  0.00000000000E+00 0. -1.
<scales pt_clust_5="13000.00000" pt_clust_6="13000.00000" pt_clust_7="13000.00000" pt_clust_8="13000.00000" pt_clust_9="36.29623"></scales>
<clustering>
<clus scale="   36.296">  2  9  1 -1</clus>
<clus scale="   92.115">  7  8 -1 -1</clus>
<clus scale="   95.084">  2  7  1 -1</clus>
<clus scale="   98.379">  5  6 -1 -1</clus>
<clus scale="  101.165">  1  5  2 -1</clus>
</clustering>
</event>
<event>
 9    1  0.2423659E-006  0.2905393E+03  0.7546771E-02  0.1108473E+00
          1   -1    0    0  502    0  0.00000000000E+00  0.00000000000E+00  0.18823814648E+03  0.18823814648E+03  0.00000000000E+00 0. -1.
         -1   -1    0    0    0  501 -0.00000000000E+00 -0.00000000000E+00 -0.98836174123E+03  0.98836174123E+03  0.00000000000E+00 0.  1.
         23    2    1    2    0    0 -0.33800954884E+01 -0.15477391250E+03 -0.30498542744E+03  0.35419010713E+03  0.92022453786E+02 0.  0.
         23    2    1    2    0    0 -0.52903768178E+02 -0.22712333031E+03 -0.99237777358E+02  0.26946267992E+03  0.91532418048E+02 0.  0.
        -13    1    4    4    0    0  0.22570608529E+02 -0.73054802978E+02 -0.48534888719E+02  0.90565291534E+02  0.00000000000E+00 0. -1.
         13    1    4    4    0    0 -0.75474376708E+02 -0.15406852734E+03 -0.50702888639E+02  0.17889738839E+03  0.00000000000E+00 0.  1.
        -13    1    3    3    0    0  0.16020785497E+02 -0.12798134007E+02 -0.40799732559E+01  0.20907031922E+02  0.00000000000E+00 0. -1.
         13    1    3    3    0    0 -0.19400880985E+02 -0.14197577849E+03 -0.30090545418E+03  0.33328307520E+03  0.00000000000E+00 0.  1.
         21    1    1    2  502  501  0.56283863667E+02  0.38189724281E+03 -0.39590038995E+03  0.55294710067E+03  0.00000000000E+00 0. -1.
<scales pt_clust_5="13000.00000" pt_clust_6="13000.00000" pt_clust_7="13000.00000" pt_clust_8="13000.00000" pt_clust_9="275.74423"></scales>
<clustering>
<clus scale="   91.532">  5  6 -1 -1</clus>
<clus scale="   92.022">  7  8 -1 -1</clus>
<clus scale="  180.096">  2  7  1 -1</clus>
<clus scale="  275.744">  2  9  1 -1</clus>
<clus scale="  290.539">  1  5  2 -1</clus>
</clustering>
</event>
<event>
 9    1  0.2423659E-006  0.1034175E+03  0.7546771E-02  0.1275103E+00
          2   -1    0    0  502    0  0.00000000000E+00  0.00000000000E+00  0.30742780460E+03  0.30742780460E+03  0.00000000000E+00 0. -1.
         -2   -1    0    0    0  501 -0.00000000000E+00 -0.00000000000E+00 -0.19263474031E+03  0.19263474031E+03  0.00000000000E+00 0.  1.
         23    2    1    2    0    0  0.42506161375E+02 -0.10144131935E+03 -0.59253433573E+02  0.15700114303E+03  0.95085616665E+02 0.  0.
         23    2    1    2    0    0  0.20848696001E+02  0.31455229833E+02  0.21772466776E+03  0.23904374374E+03  0.91179936707E+02 0.  0.
        -11    1    3    3    0    0  0.33760219523E+02  0.82932931467E+01 -0.85333933438E+01  0.35795948589E+02  0.00000000000E+00 0.  1.
         11    1    3    3    0    0  0.87459418517E+01 -0.10973461250E+03 -0.50720040229E+02  0.12120519444E+03  0.00000000000E+00 0. -1.
        -13    1    4    4    0    0  0.87659343492E+01 -0.23290230498E+02  0.14550457852E+03  0.14761727138E+03  0.00000000000E+00 0. -1.
         13    1    4    4    0    0  0.12082761651E+02  0.54745460330E+02  0.72220089248E+02  0.91426472353E+02  0.00000000000E+00 0.  1.
         21    1    1    2  502  501 -0.63354857375E+02  0.69986089518E+02 -0.43678169903E+02  0.10401765814E+03  0.00000000000E+00 0.  1.
<scales pt_clust_5="13000.00000" pt_clust_6="13000.00000" pt_clust_7="13000.00000" pt_clust_8="13000.00000" pt_clust_9="94.40281"></scales>
<clustering>
<clus scale="   91.180">  7  8 -1 -1</clus>
<clus scale="   94.403">  2  9  1 -1</clus>
<clus scale="   95.086">  5  6 -1 -1</clus>
<clus scale="   99.838">  1  7  2 -1</clus>
<clus scale="   99.838">  1  5  2 -1</clus>
</clustering>
</event>
<event>
 9    1  0.2423659E-006  0.1617555E+03  0.7546771E-02  0.1208419E+00
          1   -1    0    0  502    0  0.00000000000E+00  0.00000000000E+00  0.49175668231E+02  0.49175668231E+02  0.00000000000E+00 0. -1.
         -1   -1    0    0    0  501 -0.00000000000E+00 -0.00000000000E+00 -0.94597570379E+03  0.94597570379E+03  0.00000000000E+00 0.  1.
         23    2    1    2    0    0  0.28989321526E+02 -0.98744504183E+02 -0.18648345863E+03  0.23171334078E+03  0.91236692643E+02 0.  0.
         23    2    1    2    0    0  0.11635195853E+02 -0.41188860555E+02 -0.12665111596E+03  0.16185921819E+03  0.91246925010E+02 0.  0.
        -11    1    3    3    0    0 -0.95453095853E+01 -0.97543473191E+02 -0.12088700702E+03  0.15562618855E+03  0.00000000000E+00 0.  1.
         11    1    3    3    0    0  0.38534631111E+02 -0.12010309914E+01 -0.65596451611E+02  0.76087152229E+02  0.00000000000E+00 0. -1.
        -11    1    4    4    0    0 -0.24574866278E+02 -0.24826864818E+02 -0.67940713302E+01  0.35587310583E+02  0.00000000000E+00 0. -1.
         11    1    4    4    0    0  0.36210062132E+02 -0.16361995736E+02 -0.11985704463E+03  0.12627190761E+03  0.00000000000E+00 0.  1.
         21    1    1    2  502  501 -0.40624517379E+02  0.13993336474E+03 -0.58366546097E+03  0.60157881305E+03  0.00000000000E+00 0. -1.
<scales pt_clust_5="13000.00000" pt_clust_6="13000.00000" pt_clust_7="13000.00000" pt_clust_8="13000.00000" pt_clust_9="133.56906"></scales>
<clustering>
<clus scale="   91.237">  5  6 -1 -1</clus>
<clus scale="   91.247">  7  8 -1 -1</clus>
<clus scale="  100.786">  1  7  2 -1</clus>
<clus scale="  133.569">  2  9  1 -1</clus>
<clus scale="  100.786">  1  5  2 -1</clus>
</clustering>
</event>
<event>
 9    1  0.2423659E-006  0.1808840E+03  0.7546771E-02  0.1194954E+00
          1   -1    0    0  502    0  0.00000000000E+00  0.00000000000E+00  0.40871536364E+03  0.40871536364E+03  0.00000000000E+00 0. -1.
         -1   -1    0    0    0  501 -0.00000000000E+00 -0.00000000000E+00 -0.11597334853E+03  0.11597334853E+03  0.00000000000E+00 0.  1.
         23    2    1    2    0    0 -0.10251796450E+03  0.95865234849E+02  0.13844233912E+03  0.21735202002E+03  0.91517993027E+02 0.  0.
         23    2    1    2    0    0 -0.23246814587E+02  0.15419577179E+02  0.71615934735E+02  0.12015311884E+03  0.92356657099E+02 0.  0.
        -13    1    4    4    0    0 -0.36896664249E+02  0.44879683917E+02  0.64696908464E+02  0.86955389862E+02  0.00000000000E+00 0. -1.
         13    1    4    4    0    0  0.13649849662E+02 -0.29460106738E+02  0.69190262706E+01  0.33197728979E+02  0.00000000000E+00 0.  1.
        -13    1    3    3    0    0 -0.84387988832E+01  0.28078658447E+02  0.84539485702E+02  0.89479321798E+02  0.00000000000E+00 0.  1.
         13    1    3    3    0    0 -0.94079165618E+02  0.67786576402E+02  0.53902853413E+02  0.12787269822E+03  0.00000000000E+00 0. -1.
         21    1    1    2  502  501  0.12576477909E+03 -0.11128481203E+03  0.82683741262E+02  0.18718357331E+03  0.00000000000E+00 0.  1.
<scales pt_clust_5="13000.00000" pt_clust_6="13000.00000" pt_clust_7="13000.00000" pt_clust_8="13000.00000" pt_clust_9="156.02392"></scales>
<clustering>
<clus scale="   91.518">  7  8 -1 -1</clus>
<clus scale="   92.357">  5  6 -1 -1</clus>
<clus scale="   96.478">  1  5  2 -1</clus>
<clus scale="  156.024">  2  9  1 -1</clus>
<clus scale="   96.478">  1  5  2 -1</clus>
</clustering>
</event>
<event>
 9    1  0.2423659E-006  0.1075635E+03  0.7546771E-02  0.1269231E+00
         -1   -1    0    0    0  501 -0.00000000000E+00  0.00000000000E+00  0.74675836832E+02  0.74675836832E+02  0.00000000000E+00 0.  1.
          1   -1    0    0  502    0  0.00000000000E+00 -0.00000000000E+00 -0.44958271224E+03  0.44958271224E+03  0.00000000000E+00 0. -1.
         23    2    1    2    0    0 -0.67855068579E+02  0.24814225474E+02 -0.16201048123E+03  0.19852635488E+03  0.89136196002E+02 0.  0.
         23    2    1    2    0    0  0.10086909140E+02  0.65920249568E+02 -0.18281685242E+03  0.21404206912E+03  0.89133499778E+02 0.  0.
        -11    1    3    3    0    0 -0.76669258348E+02 -0.10900769438E+02 -0.11834863615E+03  0.14143338230E+03  0.00000000000E+00 0.  1.
         11    1    3    3    0    0  0.88141897689E+01  0.35714994912E+02 -0.43661845074E+02  0.57092972580E+02  0.00000000000E+00 0. -1.
        -13    1    4    4    0    0 -0.53157275173E+01  0.34481232689E+02 -0.80527349986E+01  0.35805850189E+02  0.00000000000E+00 0.  1.
         13    1    4    4    0    0  0.15402636657E+02  0.31439016879E+02 -0.17476411743E+03  0.17823621893E+03  0.00000000000E+00 0. -1.
         21    1    1    2  502  501  0.57768159439E+02 -0.90734475042E+02 -0.30079541756E+02  0.11169012507E+03  0.00000000000E+00 0.  1.
<scales pt_clust_5="13000.00000" pt_clust_6="13000.00000" pt_clust_7="13000.00000" pt_clust_8="13000.00000" pt_clust_9="107.56349"></scales>
<clustering>
<clus scale="   89.133">  7  8 -1 -1</clus>
<clus scale="   89.136">  5  6 -1 -1</clus>
<clus scale="  107.563">  1  9  2 -1</clus>
<clus scale="   99.365">  2  7  1 -1</clus>
<clus scale="   99.365">  2  5  1 -1</clus>
</clustering>
</event>
<event>
 9    1  0.2423659E-006  0.1787623E+03  0.7546771E-02  0.1177964E+00
          1   -1    0    0  502    0  0.00000000000E+00  0.00000000000E+00  0.48453235012E+03  0.48453235012E+03  0.00000000000E+00 0. -1.
         -1   -1    0    0    0  501 -0.00000000000E+00 -0.00000000000E+00 -0.29598631338E+03  0.29598631338E+03  0.00000000000E+00 0.  1.
         23    2    1    2    0    0 -0.11088575184E+02  0.11363433028E+03 -0.19697837512E+03  0.24508211592E+03  0.90714087980E+02 0.  0.
         23    2    1    2    0    0  0.12469221474E+03  0.53059792224E+02  0.22066253117E+03  0.27491369426E+03  0.92315202765E+02 0.  0.
        -11    1    3    3    0    0 -0.49632797567E+02  0.73257262145E+02 -0.13749910433E+03  0.16351160430E+03  0.00000000000E+00 0.  1.
         11    1    3    3    0    0  0.38544222382E+02  0.40377068139E+02 -0.59479270793E+02  0.81570511612E+02  0.00000000000E+00 0. -1.
        -11    1    4    4    0    0  0.57145509182E+02 -0.16711478661E+02  0.12570442426E+03  0.13909164251E+03  0.00000000000E+00 0.  1.
         11    1    4    4    0    0  0.67546705558E+02  0.69771270885E+02  0.94958106916E+02  0.13582205175E+03  0.00000000000E+00 0. -1.
         21    1    1    2  502  501 -0.11360363956E+03 -0.16669412251E+03  0.16486188069E+03  0.26052285332E+03  0.00000000000E+00 0. -1.
<scales pt_clust_5="13000.00000" pt_clust_6="13000.00000" pt_clust_7="13000.00000" pt_clust_8="13000.00000" pt_clust_9="153.08124"></scales>
<clustering>
<clus scale="   90.714">  5  6 -1 -1</clus>
<clus scale="   92.315">  7  8 -1 -1</clus>
<clus scale="  145.824">  2  5  1 -1</clus>
<clus scale="  153.081">  2  9  1 -1</clus>
<clus scale="  178.762">  1  5  2 -1</clus>
</clustering>
</event>
<event>
 9    1  0.2423659E-006  0.1176446E+03  0.7546771E-02  0.1247037E+00
          3   -1    0    0  502    0  0.00000000000E+00  0.00000000000E+00  0.63963314367E+03  0.63963314367E+03  0.00000000000E+00 0. -1.
         -3   -1    0    0    0  501 -0.00000000000E+00 -0.00000000000E+00 -0.59084927223E+02  0.59084927223E+02  0.00000000000E+00 0.  1.
         23    2    1    2    0    0 -0.53425525692E+02 -0.17372029120E+02  0.72914758882E+02  0.13025864460E+03  0.92166578757E+02 0.  0.
         23    2    1    2    0    0  0.11205270020E+03  0.82916087067E+02  0.35331041010E+03  0.39083968612E+03  0.92176619807E+02 0.  0.
        -11    1    3    3    0    0  0.20492602197E+02 -0.23690655951E+02  0.34909339511E+02  0.46902621562E+02  0.00000000000E+00 0. -1.
         11    1    3    3    0    0 -0.73918127890E+02  0.63186268314E+01  0.38005419371E+02  0.83356023041E+02  0.00000000000E+00 0.  1.
        -13    1    4    4    0    0  0.79877335479E+02  0.56625757206E+02  0.12501661777E+03  0.15879552834E+03  0.00000000000E+00 0. -1.
         13    1    4    4    0    0  0.32175364716E+02  0.26290329861E+02  0.22829379233E+03  0.23204415777E+03  0.00000000000E+00 0.  1.
         21    1    1    2  502  501 -0.58627174503E+02 -0.65544057948E+02  0.15432304746E+03  0.17761974018E+03  0.00000000000E+00 0.  1.
<scales pt_clust_5="13000.00000" pt_clust_6="13000.00000" pt_clust_7="13000.00000" pt_clust_8="13000.00000" pt_clust_9="87.93844"></scales>
<clustering>
<clus scale="   87.938">  1  9  2 -1</clus>
<clus scale="   92.167">  5  6 -1 -1</clus>
<clus scale="   92.177">  7  8 -1 -1</clus>
<clus scale="  117.637">  2  5  1 -1</clus>
<clus scale="   87.938">  1  5  2 -1</clus>
</clustering>
</event>
<event>
 9    1  0.2423659E-006  0.2365115E+03  0.7546771E-02  0.1155562E+00
          2   -1    0    0  502    0  0.00000000000E+00  0.00000000000E+00  0.19352920025E+04  0.19352920025E+04  0.00000000000E+00 0. -1.
         -2   -1    0    0    0  501 -0.00000000000E+00 -0.00000000000E+00 -0.16426323515E+03  0.16426323515E+03  0.00000000000E+00 0.  1.
         23    2    1    2    0    0 -0.42596912407E+02 -0.70857433211E+01 -0.10719544135E+03  0.15034712598E+03  0.96170114589E+02 0.  0.
         23    2    1    2    0    0 -0.18213771313E+03 -0.20419388410E+01  0.36811865136E+03  0.42244429208E+03  0.98840894217E+02 0.  0.
        -11    1    4    4    0    0 -0.27865373414E+02  0.46998562984E+01  0.16441718127E+03  0.16682798680E+03  0.00000000000E+00 0. -1.
         11    1    4    4    0    0 -0.15427233972E+03 -0.67417951394E+01  0.20370147009E+03  0.25561630527E+03  0.00000000000E+00 0.  1.
        -13    1    3    3    0    0  0.13289438789E+02 -0.31969312904E+02 -0.10963030620E+02  0.36315756790E+02  0.00000000000E+00 0. -1.
         13    1    3    3    0    0 -0.55886351196E+02  0.24883569583E+02 -0.96232410729E+02  0.11403136919E+03  0.00000000000E+00 0.  1.
         21    1    1    2  502  501  0.22473462554E+03  0.91276821620E+01  0.15101055573E+04  0.15267638196E+04  0.00000000000E+00 0. -1.
<scales pt_clust_5="13000.00000" pt_clust_6="13000.00000" pt_clust_7="13000.00000" pt_clust_8="13000.00000" pt_clust_9="214.86783"></scales>
<clustering>
<clus scale="   96.170">  7  8 -1 -1</clus>
<clus scale="   98.841">  5  6 -1 -1</clus>
<clus scale="  105.420">  2  7  1 -1</clus>
<clus scale="  214.868">  1  9  2 -1</clus>
<clus scale="  214.868">  1  5  2 -1</clus>
</clustering>
</event>
<event>
 9    1  0.2423659E-006  0.1241941E+03  0.7546771E-02  0.1240819E+00
         -1   -1    0    0    0  501 -0.00000000000E+00  0.00000000000E+00  0.39128396549E+03  0.39128396549E+03  0.00000000000E+00 0.  1.
          1   -1    0    0  502    0  0.00000000000E+00 -0.00000000000E+00 -0.11815598195E+03  0.11815598195E+03  0.00000000000E+00 0. -1.
         23    2    1    2    0    0  0.42002819108E+02 -0.15768924680E+02  0.70921878079E+02  0.12263686438E+03  0.89425901821E+02 0.  0.
         23    2    1    2    0    0 -0.37725316228E+02  0.80178396585E+02 -0.35657479188E+02  0.14033612381E+03  0.10281535420E+03 0.  0.
        -13    1    3    3    0    0 -0.21531331315E+02  0.10475762787E+02  0.10690306576E+00  0.23944754382E+02  0.00000000000E+00 0. -1.
         13    1    3    3    0    0  0.63534150423E+02 -0.26244687467E+02  0.70814975013E+02  0.98692110000E+02  0.00000000000E+00 0.  1.
        -13    1    4    4    0    0  0.28211482922E+02  0.29932678808E+02  0.14300532639E+02  0.43547195812E+02  0.00000000000E+00 0. -1.
         13    1    4    4    0    0 -0.65936799150E+02  0.50245717777E+02 -0.49958011827E+02  0.96788927997E+02  0.00000000000E+00 0.  1.
         21    1    1    2  502  501 -0.42775028806E+01 -0.64409471905E+02  0.23786358465E+03  0.24646695926E+03  0.00000000000E+00 0.  1.
<scales pt_clust_5="13000.00000" pt_clust_6="13000.00000" pt_clust_7="13000.00000" pt_clust_8="13000.00000" pt_clust_9="64.55135"></scales>
<clustering>
<clus scale="   64.551">  1  9  2 -1</clus>
<clus scale="   89.426">  5  6 -1 -1</clus>
<clus scale="  102.815">  7  8 -1 -1</clus>
<clus scale="  113.359">  1  5  2 -1</clus>
<clus scale="  124.194">  2  5  1 -1</clus>
</clustering>
</event>
<event>
 9    1  0.2423659E-006  0.9599989E+02  0.7546771E-02  0.1289941E+00
          3   -1    0    0  502    0  0.00000000000E+00  0.00000000000E+00  0.14149172405E+03  0.14149172405E+03  0.00000000000E+00 0. -1.
         -3   -1    0    0    0  501 -0.00000000000E+00 -0.00000000000E+00 -0.11190960630E+03  0.11190960630E+03  0.00000000000E+00 0.  1.
         23    2    1    2    0    0 -0.53096079504E+01  0.35092994020E+01 -0.50176518511E+02  0.10486758628E+03  0.91864141660E+02 0.  0.
         23    2    1    2    0    0  0.25422157068E+02  0.17065737877E+01  0.82708646216E+02  0.12754749801E+03  0.93693359559E+02 0.  0.
        -11    1    4    4    0    0 -0.17219254021E+02 -0.25059337213E+02  0.68948740284E+02  0.75355171537E+02  0.00000000000E+00 0.  1.
         11    1    4    4    0    0  0.42641411089E+02  0.26765911001E+02  0.13759905933E+02  0.52192326473E+02  0.00000000000E+00 0. -1.
        -13    1    3    3    0    0  0.34013244248E+02 -0.81379602627E+01  0.58249270494E+01  0.35454999036E+02  0.00000000000E+00 0.  1.
         13    1    3    3    0    0 -0.39322852199E+02  0.11647259665E+02 -0.56001445561E+02  0.69412587242E+02  0.00000000000E+00 0. -1.
         21    1    1    2  502  501 -0.20112549117E+02 -0.52158731898E+01 -0.29500099461E+01  0.20986246063E+02  0.00000000000E+00 0. -1.
<scales pt_clust_5="13000.00000" pt_clust_6="13000.00000" pt_clust_7="13000.00000" pt_clust_8="13000.00000" pt_clust_9="20.77787"></scales>
<clustering>
<clus scale="   20.778">  2  9  1 -1</clus>
<clus scale="   91.864">  7  8 -1 -1</clus>
<clus scale="   93.693">  5  6 -1 -1</clus>
<clus scale="   94.215">  2  7  1 -1</clus>
<clus scale="   96.000">  1  5  2 -1</clus>
</clustering>
</event>
<event>
 9    1  0.2423659E-006  0.9572210E+02  0.7546771E-02  0.1292130E+00
          4   -1    0    0  502    0  0.00000000000E+00  0.00000000000E+00  0.21964879692E+03  0.21964879692E+03  0.00000000000E+00 0. -1.
         -4   -1    0    0    0  501 -0.00000000000E+00 -0.00000000000E+00 -0.29256759148E+03  0.29256759148E+03  0.00000000000E+00 0.  1.
         23    2    1    2    0    0  0.14894959909E+02  0.32392149582E+02 -0.16179197137E+03  0.18999862676E+03  0.93014649306E+02 0.  0.
         23    2    1    2    0    0 -0.18451210538E+01 -0.67060374690E+01 -0.98569887640E+02  0.13257341804E+03  0.88381632774E+02 0.  0.
        -11    1    3    3    0    0  0.43394506478E+02  0.96564997801E+00 -0.33368756288E+02  0.54749333956E+02  0.00000000000E+00 0. -1.
         11    1    3    3    0    0 -0.28499546569E+02  0.31426499604E+02 -0.12842321508E+03  0.13524929280E+03  0.00000000000E+00 0.  1.
        -11    1    4    4    0    0 -0.34913335739E+02 -0.19048960093E+02 -0.16172619185E+02  0.42934339454E+02  0.00000000000E+00 0.  1.
         11    1    4    4    0    0  0.33068214685E+02  0.12342922624E+02 -0.82397268454E+02  0.89639078588E+02  0.00000000000E+00 0. -1.
         21    1    1    2  502  501 -0.13049838856E+02 -0.25686112113E+02  0.18744306445E+03  0.18964434360E+03  0.00000000000E+00 0. -1.
<scales pt_clust_5="13000.00000" pt_clust_6="13000.00000" pt_clust_7="13000.00000" pt_clust_8="13000.00000" pt_clust_9="28.81102"></scales>
<clustering>
<clus scale="   28.811">  1  9  2 -1</clus>
<clus scale="   88.382">  7  8 -1 -1</clus>
<clus scale="   91.227">  1  7  2 -1</clus>
<clus scale="   93.015">  5  6 -1 -1</clus>
<clus scale="   28.811">  1  5  2 -1</clus>
</clustering>
</event>
<event>
 9    1  0.2423659E-006  0.1000982E+03  0.7546771E-02  0.1280989E+00
          2   -1    0    0  502    0  0.00000000000E+00  0.00000000000E+00  0.52081799957E+03  0.52081799957E+03  0.00000000000E+00 0. -1.
         -2   -1    0    0    0  501 -0.00000000000E+00 -0.00000000000E+00 -0.10715496856E+03  0.10715496856E+03  0.00000000000E+00 0.  1.
         23    2    1    2    0    0  0.45873887982E+02  0.91223110278E+00  0.10003114835E+03  0.14165894501E+03  0.89195180910E+02 0.  0.
         23    2    1    2    0    0  0.25752015022E+02  0.57928652628E+02  0.36419655507E+03  0.38072375048E+03  0.91063430530E+02 0.  0.
        -11    1    4    4    0    0 -0.57099767346E+01 -0.20832091448E+02  0.12692146050E+03  0.12874640579E+03  0.00000000000E+00 0. -1.
         11    1    4    4    0    0  0.31461991756E+02  0.78760744075E+02  0.23727509457E+03  0.25197734469E+03  0.00000000000E+00 0.  1.
        -11    1    3    3    0    0  0.28597665247E+02  0.44023574556E+02  0.41373228853E+02  0.66840449130E+02  0.00000000000E+00 0.  1.
         11    1    3    3    0    0  0.17276222735E+02 -0.43111343453E+02  0.58657919497E+02  0.74818495881E+02  0.00000000000E+00 0. -1.
         21    1    1    2  502  501 -0.71625903003E+02 -0.58840883730E+02 -0.50564672410E+02  0.10559027264E+03  0.00000000000E+00 0.  1.
<scales pt_clust_5="13000.00000" pt_clust_6="13000.00000" pt_clust_7="13000.00000" pt_clust_8="13000.00000" pt_clust_9="92.69584"></scales>
<clustering>
<clus scale="   89.195">  7  8 -1 -1</clus>
<clus scale="   91.063">  5  6 -1 -1</clus>
<clus scale="   92.696">  2  9  1 -1</clus>
<clus scale="   98.402">  2  7  1 -1</clus>
<clus scale="  100.098">  1  5  2 -1</clus>
</clustering>
</event>
<event>
 9    1  0.2423659E-006  0.1296818E+03  0.7546771E-02  0.1229505E+00
         -1   -1    0    0    0  501 -0.00000000000E+00  0.00000000000E+00  0.14507901821E+03  0.14507901821E+03  0.00000000000E+00 0.  1.
          1   -1    0    0  502    0  0.00000000000E+00 -0.00000000000E+00 -0.19420442043E+03  0.19420442043E+03  0.00000000000E+00 0. -1.
         23    2    1    2    0    0 -0.10348991919E+02 -0.96545324510E+02  0.69971636836E+02  0.14740694348E+03  0.86050425377E+02 0.  0.
         23    2    1    2    0    0  0.27252148899E+02  0.70824210137E+02 -0.88884974980E+02  0.14874806768E+03  0.92014675463E+02 0.  0.
        -11    1    3    3    0    0  0.29246482976E+02 -0.53234864836E+02  0.66944623019E+01  0.61107474388E+02  0.00000000000E+00 0.  1.
         11    1    3    3    0    0 -0.39595474895E+02 -0.43310459674E+02  0.63277174535E+02  0.86299469097E+02  0.00000000000E+00 0. -1.
        -13    1    4    4    0    0 -0.23243318795E+02  0.39334602794E+02 -0.74710785938E+02  0.87573765370E+02  0.00000000000E+00 0. -1.
         13    1    4    4    0    0  0.50495467695E+02  0.31489607342E+02 -0.14174189042E+02  0.61174302311E+02  0.00000000000E+00 0.  1.
         21    1    1    2  502  501 -0.16903156981E+02  0.25721114373E+02 -0.30212064076E+02  0.43128427472E+02  0.00000000000E+00 0.  1.
<scales pt_clust_5="13000.00000" pt_clust_6="13000.00000" pt_clust_7="13000.00000" pt_clust_8="13000.00000" pt_clust_9="30.77812"></scales>
<clustering>
<clus scale="   30.778">  2  9  1 -1</clus>
<clus scale="   86.050">  5  6 -1 -1</clus>
<clus scale="   92.015">  7  8 -1 -1</clus>
<clus scale="  125.520">  1  5  2 -1</clus>
<clus scale="   30.778">  2  5  1 -1</clus>
</clustering>
</event>
<event>
 9    1  0.2423659E-006  0.2477407E+03  0.7546771E-02  0.1121490E+00
          3   -1    0    0  502    0  0.00000000000E+00  0.00000000000E+00  0.13562928093E+04  0.13562928093E+04  0.00000000000E+00 0. -1.
         -3   -1    0    0    0  501 -0.00000000000E+00 -0.00000000000E+00 -0.14847753304E+03  0.14847753304E+03  0.00000000000E+00 0.  1.
         23    2    1    2    0    0  0.10011482383E+03  0.17404978400E+03  0.83219836467E+02  0.23487375825E+03  0.89015930426E+02 0.  0.
         23    2    1    2    0    0 -0.38499811682E+02  0.18449221905E+03  0.56476144896E+03  0.60224182677E+03  0.90664818360E+02 0.  0.
        -11    1    3    3    0    0  0.16081317870E+02  0.27888438953E+02 -0.19318538733E+02  0.37544370423E+02  0.00000000000E+00 0. -1.
         11    1    3    3    0    0  0.84033505962E+02  0.14616134505E+03  0.10253837520E+03  0.19732938782E+03  0.00000000000E+00 0.  1.
        -13    1    4    4    0    0 -0.29799859740E+02  0.28901167309E+02  0.22020646455E+03  0.22408524303E+03  0.00000000000E+00 0.  1.
         13    1    4    4    0    0 -0.86999519420E+01  0.15559105174E+03  0.34455498441E+03  0.37815658374E+03  0.00000000000E+00 0. -1.
         21    1    1    2  502  501 -0.61615012150E+02 -0.35854200305E+03  0.55983399083E+03  0.66765475731E+03  0.00000000000E+00 0. -1.
<scales pt_clust_5="13000.00000" pt_clust_6="13000.00000" pt_clust_7="13000.00000" pt_clust_8="13000.00000" pt_clust_9="231.19607"></scales>
<clustering>
<clus scale="   89.016">  5  6 -1 -1</clus>
<clus scale="   90.665">  7  8 -1 -1</clus>
<clus scale="  209.140">  1  7  2 -1</clus>
<clus scale="  231.196">  1  9  2 -1</clus>
<clus scale="  209.140">  1  5  2 -1</clus>
</clustering>
</event>
<event>
 9    1  0.2423659E-006  0.1334336E+03  0.7546771E-02  0.1234510E+00
         -2   -1    0    0    0  501 -0.00000000000E+00  0.00000000000E+00  0.59865886078E+02  0.59865886078E+02  0.00000000000E+00 0.  1.
          2   -1    0    0  502    0  0.00000000000E+00 -0.00000000000E+00 -0.41702939499E+03  0.41702939499E+03  0.00000000000E+00 0. -1.
         23    2    1    2    0    0  0.37971758047E+02 -0.25766995226E+02 -0.14601302995E+03  0.19388730097E+03  0.11902389722E+03 0.  0.
         23    2    1    2    0    0 -0.54853765310E+02  0.39555889970E+02 -0.22996445106E+03  0.25421386033E+03  0.84660699457E+02 0.  0.
        -11    1    3    3    0    0 -0.26768370269E+02 -0.49452983479E+02 -0.84471409004E+02  0.10147690457E+03  0.00000000000E+00 0.  1.
         11    1    3    3    0    0  0.64740128316E+02  0.23685988252E+02 -0.61541620945E+02  0.92410396398E+02  0.00000000000E+00 0. -1.
        -11    1    4    4    0    0  0.21995348392E+02  0.19727427461E+00 -0.44841581854E+02  0.49945988139E+02  0.00000000000E+00 0. -1.
         11    1    4    4    0    0 -0.76849113702E+02  0.39358615696E+02 -0.18512286920E+03  0.20426787219E+03  0.00000000000E+00 0.  1.
         21    1    1    2  502  501  0.16882007264E+02 -0.13788894744E+02  0.18813972095E+02  0.28794119773E+02  0.00000000000E+00 0.  1.
<scales pt_clust_5="13000.00000" pt_clust_6="13000.00000" pt_clust_7="13000.00000" pt_clust_8="13000.00000" pt_clust_9="21.79761"></scales>
<clustering>
<clus scale="   21.798">  1  9  2 -1</clus>
<clus scale="   84.661">  7  8 -1 -1</clus>
<clus scale="  103.948">  2  7  1 -1</clus>
<clus scale="  119.024">  5  6 -1 -1</clus>
<clus scale="  103.948">  2  5  1 -1</clus>
</clustering>
</event>
<event>
 9    1  0.2423659E-006  0.2013003E+03  0.7546771E-02  0.1179734E+00
          1   -1    0    0  502    0  0.00000000000E+00  0.00000000000E+00  0.43776914514E+03  0.43776914514E+03  0.00000000000E+00 0. -1.
         -1   -1    0    0    0  501 -0.00000000000E+00 -0.00000000000E+00 -0.35962215248E+03  0.35962215248E+03  0.00000000000E+00 0.  1.
         23    2    1    2    0    0  0.36957509631E+02 -0.50883232653E+01 -0.63176574782E+02  0.11671017558E+03  0.90764733957E+02 0.  0.
         23    2    1    2    0    0  0.60361241196E+02  0.17049165388E+03  0.34610550489E+03  0.40003037299E+03  0.86743272467E+02 0.  0.
        -13    1    3    3    0    0  0.40489558020E+01 -0.45468076338E+02 -0.34730264189E+02  0.57357922379E+02  0.00000000000E+00 0.  1.
         13    1    3    3    0    0  0.32908553829E+02  0.40379753073E+02 -0.28446310593E+02  0.59352253198E+02  0.00000000000E+00 0. -1.
        -13    1    4    4    0    0 -0.21969586878E+01  0.11663675340E+03  0.22538959822E+03  0.25379012955E+03  0.00000000000E+00 0.  1.
         13    1    4    4    0    0  0.62558199884E+02  0.53854900484E+02  0.12071590666E+03  0.14624024344E+03  0.00000000000E+00 0. -1.
         21    1    1    2  502  501 -0.97318750827E+02 -0.16540333062E+03 -0.20478193745E+03  0.28065074906E+03  0.00000000000E+00 0.  1.
<scales pt_clust_5="13000.00000" pt_clust_6="13000.00000" pt_clust_7="13000.00000" pt_clust_8="13000.00000" pt_clust_9="181.65186"></scales>
<clustering>
<clus scale="   86.743">  7  8 -1 -1</clus>
<clus scale="   90.765">  5  6 -1 -1</clus>
<clus scale="   98.132">  2  5  1 -1</clus>
<clus scale="  181.652">  2  9  1 -1</clus>
<clus scale="  201.300">  1  5  2 -1</clus>
</clustering>
</event>
<event>
 9    1  0.2423659E-006  0.9601018E+02  0.7546771E-02  0.1291234E+00
         -3   -1    0    0    0  501 -0.00000000000E+00  0.00000000000E+00  0.22641441985E+03  0.22641441985E+03  0.00000000000E+00 0.  1.
          3   -1    0    0  502    0  0.00000000000E+00 -0.00000000000E+00 -0.70761113117E+02  0.70761113117E+02  0.00000000000E+00 0. -1.
         23    2    1    2    0    0  0.37029974098E+01  0.18258317725E+02  0.83041393453E+02  0.12465689302E+03  0.91084518970E+02 0.  0.
         23    2    1    2    0    0  0.20443167017E+02  0.68759338390E+01  0.65549425411E+01  0.97830680795E+02  0.95198073979E+02 0.  0.
        -13    1    4    4    0    0 -0.25033978741E+02  0.91971481001E+01  0.35103155482E+02  0.44085362078E+02  0.00000000000E+00 0.  1.
         13    1    4    4    0    0  0.45477145757E+02 -0.23212142611E+01 -0.28548212941E+02  0.53745318717E+02  0.00000000000E+00 0. -1.
        -13    1    3    3    0    0  0.19554462911E+02  0.51219181082E+02  0.60720866571E+02  0.81809566480E+02  0.00000000000E+00 0. -1.
         13    1    3    3    0    0 -0.15851465501E+02 -0.32960863357E+02  0.22320526882E+02  0.42847326545E+02  0.00000000000E+00 0.  1.
         21    1    1    2  502  501 -0.24146164426E+02 -0.25134251564E+02  0.66056970738E+02  0.74687959145E+02  0.00000000000E+00 0. -1.
<scales pt_clust_5="13000.00000" pt_clust_6="13000.00000" pt_clust_7="13000.00000" pt_clust_8="13000.00000" pt_clust_9="34.85352"></scales>
<clustering>
<clus scale="   34.854">  1  9  2 -1</clus>
<clus scale="   91.085">  7  8 -1 -1</clus>
<clus scale="   91.933">  1  7  2 -1</clus>
<clus scale="   95.198">  5  6 -1 -1</clus>
<clus scale="   96.010">  2  5  1 -1</clus>
</clustering>
</event>
<event>
 9    1  0.2423659E-006  0.1364856E+03  0.7546771E-02  0.1218171E+00
          1   -1    0    0  502    0  0.00000000000E+00  0.00000000000E+00  0.24326065905E+03  0.24326065905E+03  0.00000000000E+00 0. -1.
         -1   -1    0    0    0  501 -0.00000000000E+00 -0.00000000000E+00 -0.13081973803E+03  0.13081973803E+03  0.00000000000E+00 0.  1.
         23    2    1    2    0    0 -0.47575703018E+02  0.12698622975E+03  0.47998018336E+02  0.17009276738E+03  0.90767778908E+02 0.  0.
         23    2    1    2    0    0  0.48780151742E+02 -0.68488856442E+02  0.74908846268E+02  0.14454917955E+03  0.90625070470E+02 0.  0.
        -13    1    4    4    0    0  0.36567822912E+02  0.13414183254E+02  0.36063392336E+02  0.53082146261E+02  0.00000000000E+00 0.  1.
         13    1    4    4    0    0  0.12212328830E+02 -0.81903039696E+02  0.38845453932E+02  0.91467033285E+02  0.00000000000E+00 0. -1.
        -13    1    3    3    0    0 -0.65985195551E+02  0.61381727545E+02  0.47673315171E+02  0.10195345746E+03  0.00000000000E+00 0. -1.
         13    1    3    3    0    0  0.18409492532E+02  0.65604502206E+02  0.32470316475E+00  0.68139309926E+02  0.00000000000E+00 0.  1.
         21    1    1    2  502  501 -0.12044487235E+01 -0.58497373309E+02 -0.10465943579E+02  0.59438450146E+02  0.00000000000E+00 0.  1.
<scales pt_clust_5="13000.00000" pt_clust_6="13000.00000" pt_clust_7="13000.00000" pt_clust_8="13000.00000" pt_clust_9="58.50977"></scales>
<clustering>
<clus scale="   58.510">  2  9  1 -1</clus>
<clus scale="   90.625">  5  6 -1 -1</clus>
<clus scale="   90.768">  7  8 -1 -1</clus>
<clus scale="  136.391">  1  5  2 -1</clus>
<clus scale="  136.391">  1  5  2 -1</clus>
</clustering>
</event>
<event>
 9    1  0.2423659E-006  0.1833524E+03  0.7546771E-02  0.1191229E+00
         -1   -1    0    0    0  501 -0.00000000000E+00  0.00000000000E+00  0.98120212722E+02  0.98120212722E+02  0.00000000000E+00 0.  1.
          1   -1    0    0  502    0  0.00000000000E+00 -0.00000000000E+00 -0.87166500774E+03  0.87166500774E+03  0.00000000000E+00 0. -1.
         23    2    1    2    0    0 -0.14873346498E+01  0.39223523004E+02 -0.17082055267E+02  0.10197729301E+03  0.92557413293E+02 0.  0.
         23    2    1    2    0    0 -0.10606069082E+03  0.85242056043E+02 -0.10215458390E+03  0.19313954895E+03  0.91390634645E+02 0.  0.
        -11    1    3    3    0    0 -0.26442599910E+02  0.55846300841E+02  0.87414445943E+01  0.62405394488E+02  0.00000000000E+00 0.  1.
         11    1    3    3    0    0  0.24955265260E+02 -0.16622777837E+02 -0.25823499862E+02  0.39571898518E+02  0.00000000000E+00 0. -1.
        -13    1    4    4    0    0 -0.87212519101E+02  0.14812684368E+02 -0.72717749477E+02  0.11451336252E+03  0.00000000000E+00 0.  1.
         13    1    4    4    0    0 -0.18848171715E+02  0.70429371675E+02 -0.29436834423E+02  0.78626186430E+02  0.00000000000E+00 0. -1.
         21    1    1    2  502  501  0.10754802547E+03 -0.12446557905E+03 -0.65430815585E+03  0.67466837851E+03  0.00000000000E+00 0. -1.
<scales pt_clust_5="13000.00000" pt_clust_6="13000.00000" pt_clust_7="13000.00000" pt_clust_8="13000.00000" pt_clust_9="158.95241"></scales>
<clustering>
<clus scale="   91.391">  7  8 -1 -1</clus>
<clus scale="   92.557">  5  6 -1 -1</clus>
<clus scale="  100.536">  1  5  2 -1</clus>
<clus scale="  158.952">  2  9  1 -1</clus>
<clus scale="  158.952">  2  5  1 -1</clus>
</clustering>
</event>
<event>
 9    1  0.2423659E-006  0.1320697E+03  0.7546771E-02  0.1232355E+00
         -1   -1    0    0    0  501 -0.00000000000E+00  0.00000000000E+00  0.47044774070E+03  0.47044774070E+03  0.00000000000E+00 0.  1.
          1   -1    0    0  502    0  0.00000000000E+00 -0.00000000000E+00 -0.63480316025E+02  0.63480316025E+02  0.00000000000E+00 0. -1.
         23    2    1    2    0    0  0.33557344800E+02 -0.91223454720E+02  0.18939602368E+03  0.22925637677E+03  0.85087122539E+02 0.  0.
         23    2    1    2    0    0 -0.63676837462E+02  0.26687758251E+02  0.88462294974E+02  0.15722270161E+03  0.11012004450E+03 0.  0.
        -11    1    3    3    0    0 -0.18355318917E+02 -0.60038013261E+02  0.62182350461E+02  0.88363598149E+02  0.00000000000E+00 0. -1.
         11    1    3    3    0    0  0.51912663717E+02 -0.31185441459E+02  0.12721367322E+03  0.14089277862E+03  0.00000000000E+00 0.  1.
        -11    1    4    4    0    0 -0.22019886956E+02  0.66735233826E+02  0.35034762963E+02  0.78523254334E+02  0.00000000000E+00 0.  1.
         11    1    4    4    0    0 -0.41656950506E+02 -0.40047475574E+02  0.53427532011E+02  0.78699447280E+02  0.00000000000E+00 0. -1.
         21    1    1    2  502  501  0.30119492662E+02  0.64535696469E+02  0.12910910602E+03  0.14744897834E+03  0.00000000000E+00 0.  1.
<scales pt_clust_5="13000.00000" pt_clust_6="13000.00000" pt_clust_7="13000.00000" pt_clust_8="13000.00000" pt_clust_9="71.21826"></scales>
<clustering>
<clus scale="   71.218">  1  9  2 -1</clus>
<clus scale="   85.087">  5  6 -1 -1</clus>
<clus scale="  110.120">  7  8 -1 -1</clus>
<clus scale="  112.053">  1  5  2 -1</clus>
<clus scale="  132.070">  2  5  1 -1</clus>
</clustering>
</event>
<event>
 9    1  0.2423659E-006  0.9991416E+02  0.7546771E-02  0.1280494E+00
          2   -1    0    0  502    0  0.00000000000E+00  0.00000000000E+00  0.17502931086E+03  0.17502931086E+03  0.00000000000E+00 0. -1.
         -2   -1    0    0    0  501 -0.00000000000E+00 -0.00000000000E+00 -0.28860787726E+03  0.28860787726E+03  0.00000000000E+00 0.  1.
         23    2    1    2    0    0  0.23693698291E+02 -0.59006281332E+02 -0.18943878319E+03  0.21927579011E+03  0.90286693232E+02 0.  0.
         23    2    1    2    0    0 -0.25567526685E+02 -0.13416339224E+02 -0.43820866687E+02  0.10446104439E+03  0.90322449365E+02 0.  0.
        -11    1    4    4    0    0 -0.51039563444E+02  0.12446445484E+02 -0.74254606648E+01  0.53057407662E+02  0.00000000000E+00 0. -1.
         11    1    4    4    0    0  0.25472036759E+02 -0.25862784708E+02 -0.36395406023E+02  0.51403636730E+02  0.00000000000E+00 0.  1.
        -11    1    3    3    0    0  0.58253470655E+02 -0.31295408072E+02 -0.11446166273E+03  0.13219055051E+03  0.00000000000E+00 0.  1.
         11    1    3    3    0    0 -0.34559772364E+02 -0.27710873260E+02 -0.74977120465E+02  0.87085239599E+02  0.00000000000E+00 0. -1.
         21    1    1    2  502  501  0.18738283942E+01  0.72422620556E+02  0.11968108348E+03  0.13990035362E+03  0.00000000000E+00 0. -1.
<scales pt_clust_5="13000.00000" pt_clust_6="13000.00000" pt_clust_7="13000.00000" pt_clust_8="13000.00000" pt_clust_9="72.44686"></scales>
<clustering>
<clus scale="   72.447">  1  9  2 -1</clus>
<clus scale="   90.287">  7  8 -1 -1</clus>
<clus scale="   90.322">  5  6 -1 -1</clus>
<clus scale="   99.882">  2  7  1 -1</clus>
<clus scale="   72.447">  1  5  2 -1</clus>
</clustering>
</event>
<event>
 9    1  0.2423659E-006  0.1770520E+03  0.7546771E-02  0.1181059E+00
          2   -1    0    0  502    0  0.00000000000E+00  0.00000000000E+00  0.18453694028E+03  0.18453694028E+03  0.00000000000E+00 0. -1.
         -2   -1    0    0    0  501 -0.00000000000E+00 -0.00000000000E+00 -0.51699320173E+03  0.51699320173E+03  0.00000000000E+00 0.  1.
         23    2    1    2    0    0 -0.44273704823E+02  0.15482877785E+03 -0.18239126871E+02  0.18232392772E+03  0.83529859815E+02 0.  0.
         23    2    1    2    0    0  0.10534129237E+03 -0.54593393381E+01  0.26248434874E+02  0.14243402398E+03  0.92042808463E+02 0.  0.
        -11    1    4    4    0    0  0.12517743631E+02  0.27043489518E+02  0.32239009116E+02  0.43902140491E+02  0.00000000000E+00 0.  1.
         11    1    4    4    0    0  0.92823548743E+02 -0.32502828856E+02 -0.59905742417E+01  0.98531883493E+02  0.00000000000E+00 0. -1.
        -13    1    3    3    0    0 -0.48172151356E+02  0.30933211587E+02 -0.17535468213E+01  0.57275602762E+02  0.00000000000E+00 0.  1.
         13    1    3    3    0    0  0.38984465323E+01  0.12389556626E+03 -0.16485580049E+02  0.12504832496E+03  0.00000000000E+00 0. -1.
         21    1    1    2  502  501 -0.61067587551E+02 -0.14936943851E+03 -0.34046556945E+03  0.37677219031E+03  0.00000000000E+00 0.  1.
<scales pt_clust_5="13000.00000" pt_clust_6="13000.00000" pt_clust_7="13000.00000" pt_clust_8="13000.00000" pt_clust_9="156.10952"></scales>
<clustering>
<clus scale="   83.530">  7  8 -1 -1</clus>
<clus scale="   92.043">  5  6 -1 -1</clus>
<clus scale="  139.995">  1  5  2 -1</clus>
<clus scale="  156.110">  2  9  1 -1</clus>
<clus scale="  139.995">  1  5  2 -1</clus>
</clustering>
</event>
<event>
 9    1  0.2423659E-006  0.1109380E+03  0.7546771E-02  0.1261910E+00
          1   -1    0    0  502    0  0.00000000000E+00  0.00000000000E+00  0.90051163957E+02  0.90051163957E+02  0.00000000000E+00 0. -1.
         -1   -1    0    0    0  501 -0.00000000000E+00 -0.00000000000E+00 -0.42759350512E+03  0.42759350512E+03  0.00000000000E+00 0.  1.
         23    2    1    2    0    0 -0.43467744914E+02  0.74791523127E+02 -0.20167221079E+03  0.23685778003E+03  0.89144324436E+02 0.  0.
         23    2    1    2    0    0 -0.50362566459E+02 -0.37217747314E+02 -0.48062447625E+01  0.11527659307E+03  0.96664595927E+02 0.  0.
        -11    1    3    3    0    0 -0.62753447587E+02  0.43205678912E+02 -0.83542446740E+02  0.11306664531E+03  0.00000000000E+00 0.  1.
         11    1    3    3    0    0  0.19285702673E+02  0.31585844215E+02 -0.11812976405E+03  0.12379113473E+03  0.00000000000E+00 0. -1.
        -11    1    4    4    0    0 -0.42992897965E+02 -0.69277302365E+02 -0.93522782206E+01  0.82068258214E+02  0.00000000000E+00 0.  1.
         11    1    4    4    0    0 -0.73696684940E+01  0.32059555050E+02  0.45460334581E+01  0.33208334856E+02  0.00000000000E+00 0. -1.
         21    1    1    2  502  501  0.93830311373E+02 -0.37573775813E+02 -0.13106388562E+03  0.16551029598E+03  0.00000000000E+00 0. -1.
<scales pt_clust_5="13000.00000" pt_clust_6="13000.00000" pt_clust_7="13000.00000" pt_clust_8="13000.00000" pt_clust_9="101.07381"></scales>
<clustering>
<clus scale="   89.144">  5  6 -1 -1</clus>
<clus scale="   96.665">  7  8 -1 -1</clus>
<clus scale="  101.074">  2  9  1 -1</clus>
<clus scale="  104.450">  2  5  1 -1</clus>
<clus scale="  110.938">  1  5  2 -1</clus>
</clustering>
</event>
<event>
 9    1  0.2423659E-006  0.1024505E+03  0.7546771E-02  0.1275366E+00
         -1   -1    0    0    0  501 -0.00000000000E+00  0.00000000000E+00  0.48468431488E+03  0.48468431488E+03  0.00000000000E+00 0.  1.
          1   -1    0    0  502    0  0.00000000000E+00 -0.00000000000E+00 -0.33539358921E+02  0.33539358921E+02  0.00000000000E+00 0. -1.
         23    2    1    2    0    0 -0.17955952298E+02 -0.57119152870E+02  0.25600254681E+03  0.27832585265E+03  0.91339818437E+02 0.  0.
         23    2    1    2    0    0  0.29390102622E+02  0.16453527577E+02  0.12949089656E+03  0.16183019675E+03  0.91030893588E+02 0.  0.
        -11    1    3    3    0    0  0.36937689830E+02 -0.31477425627E+02  0.10804213022E+03  0.11844122237E+03  0.00000000000E+00 0. -1.
         11    1    3    3    0    0 -0.54893642127E+02 -0.25641727243E+02  0.14796041658E+03  0.15988463027E+03  0.00000000000E+00 0.  1.
        -13    1    4    4    0    0 -0.32882011280E+02  0.35023424464E+01  0.51334512358E+02  0.61063288705E+02  0.00000000000E+00 0.  1.
         13    1    4    4    0    0  0.62272113902E+02  0.12951185130E+02  0.78156384200E+02  0.10076690805E+03  0.00000000000E+00 0. -1.
         21    1    1    2  502  501 -0.11434150324E+02  0.40665625293E+02  0.65651512591E+02  0.78067624401E+02  0.00000000000E+00 0. -1.
<scales pt_clust_5="13000.00000" pt_clust_6="13000.00000" pt_clust_7="13000.00000" pt_clust_8="13000.00000" pt_clust_9="42.24255"></scales>
<clustering>
<clus scale="   42.243">  2  9  1 -1</clus>
<clus scale="   91.031">  7  8 -1 -1</clus>
<clus scale="   91.340">  5  6 -1 -1</clus>
<clus scale="  102.175">  2  7  1 -1</clus>
<clus scale="   42.243">  2  5  1 -1</clus>
</clustering>
</event>
<event>
 9    1  0.2423659E-006  0.9200246E+02  0.7546771E-02  0.1298360E+00
          3   -1    0    0  502    0  0.00000000000E+00  0.00000000000E+00  0.27347212507E+02  0.27347212507E+02  0.00000000000E+00 0. -1.
         -3   -1    0    0    0  501 -0.00000000000E+00 -0.00000000000E+00 -0.66065480536E+03  0.66065480536E+03  0.00000000000E+00 0.  1.
         23    2    1    2    0    0 -0.23371459827E+02  0.12860771039E+01 -0.43086188147E+03  0.44101571519E+03  0.91131887997E+02 0.  0.
         23    2    1    2    0    0 -0.22388123160E+02  0.41774631214E+01 -0.11544316219E+03  0.14853208351E+03  0.90642025999E+02 0.  0.
        -11    1    3    3    0    0 -0.12652476937E+02  0.44680629021E+02 -0.16448101700E+03  0.17091064547E+03  0.00000000000E+00 0.  1.
         11    1    3    3    0    0 -0.10718982890E+02 -0.43394551917E+02 -0.26638086447E+03  0.27010506971E+03  0.00000000000E+00 0. -1.
        -11    1    4    4    0    0 -0.31484675383E+02 -0.38373570173E+02 -0.55460199599E+02  0.74428821107E+02  0.00000000000E+00 0. -1.
         11    1    4    4    0    0  0.90965522235E+01  0.42551033295E+02 -0.59982962594E+02  0.74103262400E+02  0.00000000000E+00 0.  1.
         21    1    1    2  502  501  0.45759582987E+02 -0.54635402253E+01 -0.87002549184E+02  0.98454219166E+02  0.00000000000E+00 0. -1.
<scales pt_clust_5="13000.00000" pt_clust_6="13000.00000" pt_clust_7="13000.00000" pt_clust_8="13000.00000" pt_clust_9="46.08459"></scales>
<clustering>
<clus scale="   46.085">  1  9  2 -1</clus>
<clus scale="   90.642">  7  8 -1 -1</clus>
<clus scale="   91.132">  5  6 -1 -1</clus>
<clus scale="   91.517">  1  7  2 -1</clus>
<clus scale="   46.085">  1  5  2 -1</clus>
</clustering>
</event>
<event>
 9    1  0.2423659E-006  0.1389749E+03  0.7546771E-02  0.1234721E+00
          2   -1    0    0  502    0  0.00000000000E+00  0.00000000000E+00  0.40232939999E+03  0.40232939999E+03  0.00000000000E+00 0. -1.
         -2   -1    0    0    0  501 -0.00000000000E+00 -0.00000000000E+00 -0.13148831100E+03  0.13148831100E+03  0.00000000000E+00 0.  1.
         23    2    1    2    0    0  0.42290621764E+02  0.81051416967E+02  0.14255353943E+03  0.19126933018E+03  0.88907908434E+02 0.  0.
         23    2    1    2    0    0  0.33834566090E+01  0.18686726165E+02  0.19409376634E+03  0.21462544777E+03  0.89616132401E+02 0.  0.
        -13    1    3    3    0    0  0.10545312792E+02  0.34865775985E+02 -0.17472813734E+01  0.36467505387E+02  0.00000000000E+00 0.  1.
         13    1    3    3    0    0  0.31745308972E+02  0.46185640982E+02  0.14430082081E+03  0.15480182480E+03  0.00000000000E+00 0. -1.
        -13    1    4    4    0    0  0.33451479806E+02  0.27128921648E+02  0.16946361802E+03  0.17485107298E+03  0.00000000000E+00 0. -1.
         13    1    4    4    0    0 -0.30068023197E+02 -0.84421954829E+01  0.24630148314E+02  0.39774374785E+02  0.00000000000E+00 0.  1.
         21    1    1    2  502  501 -0.45674078373E+02 -0.99738143132E+02 -0.65806216778E+02  0.12792293304E+03  0.00000000000E+00 0.  1.
<scales pt_clust_5="13000.00000" pt_clust_6="13000.00000" pt_clust_7="13000.00000" pt_clust_8="13000.00000" pt_clust_9="106.81484"></scales>
<clustering>
<clus scale="   88.908">  5  6 -1 -1</clus>
<clus scale="   89.616">  7  8 -1 -1</clus>
<clus scale="   91.606">  1  7  2 -1</clus>
<clus scale="  106.815">  2  9  1 -1</clus>
<clus scale="   91.606">  1  5  2 -1</clus>
</clustering>
</event>
<event>
 9    1  0.2423659E-006  0.2637353E+03  0.7546771E-02  0.1105133E+00
          1   -1    0    0  502    0  0.00000000000E+00  0.00000000000E+00  0.50585456155E+03  0.50585456155E+03  0.00000000000E+00 0. -1.
         -1   -1    0    0    0  501 -0.00000000000E+00 -0.00000000000E+00 -0.36138585873E+03  0.36138585873E+03  0.00000000000E+00 0.  1.
         23    2    1    2    0    0 -0.23400144274E+03 -0.98397339829E+02 -0.20933994139E+03  0.34240818789E+03  0.94770482657E+02 0.  0.
         23    2    1    2    0    0  0.19885856607E+03  0.10836668683E+03  0.92364927684E+02  0.26084884926E+03  0.90679513570E+02 0.  0.
        -13    1    3    3    0    0 -0.19187233042E+03 -0.35693648512E+02 -0.15750213691E+03  0.25079065145E+03  0.00000000000E+00 0.  1.
         13    1    3    3    0    0 -0.42129112324E+02 -0.62703691317E+02 -0.51837804480E+02  0.91617536440E+02  0.00000000000E+00 0. -1.
        -13    1    4    4    0    0  0.36594874067E+02 -0.11502161228E+01 -0.12599896094E+02  0.38720345901E+02  0.00000000000E+00 0.  1.
         13    1    4    4    0    0  0.16226369200E+03  0.10951690295E+03  0.10496482378E+03  0.22212850336E+03  0.00000000000E+00 0. -1.
         21    1    1    2  502  501  0.35142876674E+02 -0.99693469979E+01  0.26144371652E+03  0.26398338313E+03  0.00000000000E+00 0. -1.
<scales pt_clust_5="13000.00000" pt_clust_6="13000.00000" pt_clust_7="13000.00000" pt_clust_8="13000.00000" pt_clust_9="36.52957"></scales>
<clustering>
<clus scale="   36.530">  1  9  2 -1</clus>
<clus scale="   90.680">  7  8 -1 -1</clus>
<clus scale="   94.770">  5  6 -1 -1</clus>
<clus scale="  262.293">  1  7  2 -1</clus>
<clus scale="   36.530">  1  5  2 -1</clus>
</clustering>
</event>
<event>
 9    1  0.2423659E-006  0.1271116E+03  0.7546771E-02  0.1232633E+00
         -1   -1    0    0    0  501 -0.00000000000E+00  0.00000000000E+00  0.54173052747E+02  0.54173052747E+02  0.00000000000E+00 0.  1.
          1   -1    0    0  502    0  0.00000000000E+00 -0.00000000000E+00 -0.45402505077E+03  0.45402505077E+03  0.00000000000E+00 0. -1.
         23    2    1    2    0    0 -0.43939378536E+02  0.90147125182E+02 -0.84314406550E+02  0.15769986930E+03  0.87767627632E+02 0.  0.
         23    2    1    2    0    0  0.14721316658E+02 -0.63842120103E+02 -0.25242011866E+03  0.27613786973E+03  0.90794676789E+02 0.  0.
        -11    1    4    4    0    0  0.68517626741E+01 -0.21032721318E+02 -0.22786964230E+01  0.22237681426E+02  0.00000000000E+00 0.  1.
         11    1    4    4    0    0  0.78695539835E+01 -0.42809398785E+02 -0.25014142224E+03  0.25390018831E+03  0.00000000000E+00 0. -1.
        -13    1    3    3    0    0 -0.63197896631E+02  0.70901552898E+02 -0.34724862241E+02  0.10112774298E+03  0.00000000000E+00 0.  1.
         13    1    3    3    0    0  0.19258518095E+02  0.19245572284E+02 -0.49589544310E+02  0.56572126322E+02  0.00000000000E+00 0. -1.
         21    1    1    2  502  501  0.29218061878E+02 -0.26305005078E+02 -0.63117472811E+02  0.74360364484E+02  0.00000000000E+00 0. -1.
<scales pt_clust_5="13000.00000" pt_clust_6="13000.00000" pt_clust_7="13000.00000" pt_clust_8="13000.00000" pt_clust_9="39.31474"></scales>
<clustering>
<clus scale="   39.315">  2  9  1 -1</clus>
<clus scale="   87.768">  7  8 -1 -1</clus>
<clus scale="   90.795">  5  6 -1 -1</clus>
<clus scale="  124.967">  1  7  2 -1</clus>
<clus scale="   39.315">  2  5  1 -1</clus>
</clustering>
</event>
<event>
 9    1  0.2423659E-006  0.2118847E+03  0.7546771E-02  0.1157327E+00
          1   -1    0    0  502    0  0.00000000000E+00  0.00000000000E+00  0.42646842786E+03  0.42646842786E+03  0.00000000000E+00 0. -1.
         -1   -1    0    0    0  501 -0.00000000000E+00 -0.00000000000E+00 -0.20721112827E+03  0.20721112827E+03  0.00000000000E+00 0.  1.
         23    2    1    2    0    0 -0.70522853419E+02 -0.83856007703E+02 -0.34255475533E+02  0.14478929362E+03  0.88233775050E+02 0.  0.
         23    2    1    2    0    0 -0.14880705098E+03  0.84640745986E+02  0.82673859411E+02  0.21087559043E+03  0.91246661904E+02 0.  0.
        -13    1    3    3    0    0 -0.76094133276E+02 -0.22900324236E+02 -0.18836077313E+02  0.81667250338E+02  0.00000000000E+00 0.  1.
         13    1    3    3    0    0  0.55712798575E+01 -0.60955683466E+02 -0.15419398220E+02  0.63122043278E+02  0.00000000000E+00 0. -1.
        -13    1    4    4    0    0 -0.12266797889E+03  0.80129404068E+02  0.26697706731E+02  0.14893260887E+03  0.00000000000E+00 0.  1.
         13    1    4    4    0    0 -0.26139072087E+02  0.45113419177E+01  0.55976152680E+02  0.61942981558E+02  0.00000000000E+00 0. -1.
         21    1    1    2  502  501  0.21932990440E+03 -0.78473828308E+00  0.17083891571E+03  0.27801467209E+03  0.00000000000E+00 0. -1.
<scales pt_clust_5="13000.00000" pt_clust_6="13000.00000" pt_clust_7="13000.00000" pt_clust_8="13000.00000" pt_clust_9="191.23065"></scales>
<clustering>
<clus scale="   88.234">  5  6 -1 -1</clus>
<clus scale="   91.247">  7  8 -1 -1</clus>
<clus scale="  140.679">  2  5  1 -1</clus>
<clus scale="  191.231">  1  9  2 -1</clus>
<clus scale="  191.231">  1  5  2 -1</clus>
</clustering>
</event>
<event>
 9    1  0.3242229E-006  0.1265415E+03  0.7546771E-02  0.1239717E+00
          3   -1    0    0  502    0  0.00000000000E+00  0.00000000000E+00  0.23881194576E+03  0.23881194576E+03  0.00000000000E+00 0. -1.
         -3   -1    0    0    0  501 -0.00000000000E+00 -0.00000000000E+00 -0.39371003298E+03  0.39371003298E+03  0.00000000000E+00 0.  1.
         23    2    1    2    0    0  0.12156072129E+02  0.17030264381E+02 -0.10761250355E+03  0.15664900067E+03  0.11189574833E+03 0.  0.
         23    2    1    2    0    0  0.12004513900E+02 -0.62979641106E+02  0.19663932470E+03  0.22648484671E+03  0.92292026855E+02 0.  0.
        -13    1    3    3    0    0 -0.48662828115E+02  0.13853420776E+02 -0.33310422208E+02  0.60576995097E+02  0.00000000000E+00 0.  1.
         13    1    3    3    0    0  0.60818900244E+02  0.31768436056E+01 -0.74302081344E+02  0.96072005570E+02  0.00000000000E+00 0. -1.
        -13    1    4    4    0    0 -0.21732628501E+02  0.19630736228E+01  0.65319311926E+01  0.22777772602E+02  0.00000000000E+00 0.  1.
         13    1    4    4    0    0  0.33737142400E+02 -0.64942714729E+02  0.19010739351E+03  0.20370707411E+03  0.00000000000E+00 0. -1.
         21    1    1    2  502  501 -0.24160586028E+02  0.45949376725E+02 -0.24392490837E+03  0.24938813136E+03  0.00000000000E+00 0.  1.
<scales pt_clust_5="13000.00000" pt_clust_6="13000.00000" pt_clust_7="13000.00000" pt_clust_8="13000.00000" pt_clust_9="51.91415"></scales>
<clustering>
<clus scale="   51.914">  2  9  1 -1</clus>
<clus scale="   92.292">  7  8 -1 -1</clus>
<clus scale="  109.590">  1  7  2 -1</clus>
<clus scale="  111.896">  5  6 -1 -1</clus>
<clus scale="  109.590">  1  5  2 -1</clus>
</clustering>
</event>
<event>
 9    1  0.2423659E-006  0.1198723E+03  0.7546771E-02  0.1244340E+00
          1   -1    0    0  502    0  0.00000000000E+00  0.00000000000E+00  0.15219329722E+03  0.15219329722E+03  0.00000000000E+00 0. -1.
         -1   -1    0    0    0  501 -0.00000000000E+00 -0.00000000000E+00 -0.17973752474E+03  0.17973752474E+03  0.00000000000E+00 0.  1.
         23    2    1    2    0    0 -0.25618317380E+02 -0.21414042612E+02 -0.71657854714E+02  0.12026484836E+03  0.90630713349E+02 0.  0.
         23    2    1    2    0    0  0.50431808686E+02  0.78138053669E+02  0.63801604086E+02  0.14669721791E+03  0.93811013752E+02 0.  0.
        -11    1    3    3    0    0 -0.55822725936E+02  0.30597151065E+01 -0.53415450605E+02  0.77322370313E+02  0.00000000000E+00 0. -1.
         11    1    3    3    0    0  0.30204408555E+02 -0.24473757719E+02 -0.18242404109E+02  0.42942478046E+02  0.00000000000E+00 0.  1.
        -13    1    4    4    0    0  0.13773194874E+02 -0.20623104970E+02  0.27804094767E+01  0.24954839861E+02  0.00000000000E+00 0.  1.
         13    1    4    4    0    0  0.36658613812E+02  0.98761158639E+02  0.61021194609E+02  0.12174237805E+03  0.00000000000E+00 0. -1.
         21    1    1    2  502  501 -0.24813491306E+02 -0.56724011057E+02 -0.19687976889E+02  0.64968755684E+02  0.00000000000E+00 0.  1.
<scales pt_clust_5="13000.00000" pt_clust_6="13000.00000" pt_clust_7="13000.00000" pt_clust_8="13000.00000" pt_clust_9="61.91383"></scales>
<clustering>
<clus scale="   61.914">  2  9  1 -1</clus>
<clus scale="   90.631">  5  6 -1 -1</clus>
<clus scale="   93.811">  7  8 -1 -1</clus>
<clus scale="  117.400">  2  5  1 -1</clus>
<clus scale="  119.872">  1  5  2 -1</clus>
</clustering>
</event>
<event>
 9    1  0.2423659E-006  0.1022667E+03  0.7546771E-02  0.1276211E+00
          4   -1    0    0  502    0  0.00000000000E+00  0.00000000000E+00  0.24213246231E+03  0.24213246231E+03  0.00000000000E+00 0. -1.
         -4   -1    0    0    0  501 -0.00000000000E+00 -0.00000000000E+00 -0.21378668680E+03  0.21378668680E+03  0.00000000000E+00 0.  1.
         23    2    1    2    0    0  0.91186297078E+02  0.31437770586E+01 -0.71441252529E+02  0.14606593479E+03  0.88918955431E+02 0.  0.
         23    2    1    2    0    0 -0.42916080112E+02 -0.36644907807E+01  0.18591969223E+03  0.21111557799E+03  0.90268692725E+02 0.  0.
        -11    1    3    3    0    0  0.42207639334E+01 -0.29574243563E+02 -0.17631728914E+01  0.29925900306E+02  0.00000000000E+00 0.  1.
         11    1    3    3    0    0  0.86965533144E+02  0.32718020621E+02 -0.69678079637E+02  0.11614003449E+03  0.00000000000E+00 0. -1.
        -11    1    4    4    0    0 -0.26228348361E+02 -0.43388257066E+02  0.13616613560E+03  0.14529860149E+03  0.00000000000E+00 0.  1.
         11    1    4    4    0    0 -0.16687731751E+02  0.39723766286E+02  0.49753556623E+02  0.65816976499E+02  0.00000000000E+00 0. -1.
         21    1    1    2  502  501 -0.48270216965E+02  0.52071372207E+00 -0.86132664184E+02  0.98737636331E+02  0.00000000000E+00 0.  1.
<scales pt_clust_5="13000.00000" pt_clust_6="13000.00000" pt_clust_7="13000.00000" pt_clust_8="13000.00000" pt_clust_9="48.27303"></scales>
<clustering>
<clus scale="   48.273">  2  9  1 -1</clus>
<clus scale="   88.919">  5  6 -1 -1</clus>
<clus scale="   90.269">  7  8 -1 -1</clus>
<clus scale="  101.077">  2  5  1 -1</clus>
<clus scale="  102.267">  1  5  2 -1</clus>
</clustering>
</event>
<event>
 9    1  0.2423659E-006  0.3420006E+03  0.7546771E-02  0.1108893E+00
         -1   -1    0    0    0  501 -0.00000000000E+00  0.00000000000E+00  0.32980485221E+03  0.32980485221E+03  0.00000000000E+00 0.  1.
          1   -1    0    0  502    0  0.00000000000E+00 -0.00000000000E+00 -0.58956249312E+03  0.58956249312E+03  0.00000000000E+00 0. -1.
         23    2    1    2    0    0  0.22342694567E+02  0.54947913058E+02  0.19803850914E+02  0.11102021837E+03  0.91732367388E+02 0.  0.
         23    2    1    2    0    0  0.30223242405E+03 -0.12552036829E+03  0.46755206653E+02  0.34271630027E+03  0.90380374603E+02 0.  0.
        -11    1    3    3    0    0 -0.33719789947E+02  0.24595039978E+02  0.22100877556E+02  0.47226994551E+02  0.00000000000E+00 0. -1.
         11    1    3    3    0    0  0.56062484514E+02  0.30352873080E+02 -0.22970266413E+01  0.63793223821E+02  0.00000000000E+00 0.  1.
        -13    1    4    4    0    0  0.18962881332E+03 -0.11315064091E+03  0.59562947309E+02  0.22871357431E+03  0.00000000000E+00 0. -1.
         13    1    4    4    0    0  0.11260361073E+03 -0.12369727381E+02 -0.12807740656E+02  0.11400272596E+03  0.00000000000E+00 0.  1.
         21    1    1    2  502  501 -0.32457511862E+03  0.70572455233E+02 -0.32631669848E+03  0.46563082670E+03  0.00000000000E+00 0.  1.
<scales pt_clust_5="13000.00000" pt_clust_6="13000.00000" pt_clust_7="13000.00000" pt_clust_8="13000.00000" pt_clust_9="329.84213"></scales>
<clustering>
<clus scale="   90.380">  7  8 -1 -1</clus>
<clus scale="   91.732">  5  6 -1 -1</clus>
<clus scale="  109.240">  1  5  2 -1</clus>
<clus scale="  329.842">  2  9  1 -1</clus>
<clus scale="  329.842">  2  5  1 -1</clus>
</clustering>
</event>
<event>
 9    1  0.2423659E-006  0.9195425E+02  0.7546771E-02  0.1298928E+00
         -1   -1    0    0    0  501 -0.00000000000E+00  0.00000000000E+00  0.14367011102E+03  0.14367011102E+03  0.00000000000E+00 0.  1.
          1   -1    0    0  502    0  0.00000000000E+00 -0.00000000000E+00 -0.16850744673E+03  0.16850744673E+03  0.00000000000E+00 0. -1.
         23    2    1    2    0    0 -0.10479082892E+02 -0.18139943051E+02  0.52619638251E+02  0.10765231676E+03  0.91549583630E+02 0.  0.
         23    2    1    2    0    0  0.15892409172E+01 -0.61094409744E+02 -0.37171984456E+02  0.11519443816E+03  0.90293685086E+02 0.  0.
        -11    1    4    4    0    0 -0.14319977488E+02  0.17860374996E+02 -0.24727149442E+02  0.33696983096E+02  0.00000000000E+00 0.  1.
         11    1    4    4    0    0  0.15909218405E+02 -0.78954784740E+02 -0.12444835014E+02  0.81497455066E+02  0.00000000000E+00 0. -1.
        -11    1    3    3    0    0  0.13173019375E+02  0.31384347182E+02  0.37671730648E+02  0.50770709838E+02  0.00000000000E+00 0.  1.
         11    1    3    3    0    0 -0.23652102267E+02 -0.49524290233E+02  0.14947907603E+02  0.56881606925E+02  0.00000000000E+00 0. -1.
         21    1    1    2  502  501  0.88898419744E+01  0.79234352795E+02 -0.40284989509E+02  0.89330802822E+02  0.00000000000E+00 0.  1.
<scales pt_clust_5="13000.00000" pt_clust_6="13000.00000" pt_clust_7="13000.00000" pt_clust_8="13000.00000" pt_clust_9="79.73150"></scales>
<clustering>
<clus scale="   79.731">  2  9  1 -1</clus>
<clus scale="   90.294">  5  6 -1 -1</clus>
<clus scale="   90.704">  2  5  1 -1</clus>
<clus scale="   91.550">  7  8 -1 -1</clus>
<clus scale="   79.731">  2  5  1 -1</clus>
</clustering>
</event>
<event>
 9    1  0.2864100E-006  0.1124093E+03  0.7546771E-02  0.1257575E+00
         -2   -1    0    0    0  501 -0.00000000000E+00  0.00000000000E+00  0.11762989482E+03  0.11762989482E+03  0.00000000000E+00 0.  1.
          2   -1    0    0  502    0  0.00000000000E+00 -0.00000000000E+00 -0.68625609006E+03  0.68625609006E+03  0.00000000000E+00 0. -1.
         23    2    1    2    0    0 -0.56425893245E+02  0.27167926683E+02  0.80506956826E+02  0.13923874859E+03  0.94784393979E+02 0.  0.
         23    2    1    2    0    0  0.14657512628E+02 -0.35782955502E+02 -0.41323732591E+03  0.42492728063E+03  0.91119941407E+02 0.  0.
        -11    1    4    4    0    0 -0.32652675500E+02 -0.39596596215E+02 -0.20122506237E+03  0.20766707340E+03  0.00000000000E+00 0. -1.
         11    1    4    4    0    0  0.47310188128E+02  0.38136407129E+01 -0.21201226354E+03  0.21726020723E+03  0.00000000000E+00 0.  1.
        -11    1    3    3    0    0 -0.75794952327E+02  0.12067564367E+02  0.84725488503E+02  0.11431933043E+03  0.00000000000E+00 0.  1.
         11    1    3    3    0    0  0.19369059082E+02  0.15100362316E+02 -0.42185316766E+01  0.24919418157E+02  0.00000000000E+00 0. -1.
         21    1    1    2  502  501  0.41768380617E+02  0.86150288187E+01 -0.23589582616E+03  0.23971995566E+03  0.00000000000E+00 0. -1.
<scales pt_clust_5="13000.00000" pt_clust_6="13000.00000" pt_clust_7="13000.00000" pt_clust_8="13000.00000" pt_clust_9="42.64758"></scales>
<clustering>
<clus scale="   42.648">  2  9  1 -1</clus>
<clus scale="   91.120">  5  6 -1 -1</clus>
<clus scale="   94.784">  7  8 -1 -1</clus>
<clus scale="  109.337">  2  5  1 -1</clus>
<clus scale="   42.648">  2  5  1 -1</clus>
</clustering>
</event>
<event>
 9    1  0.2423659E-006  0.1136128E+03  0.7546771E-02  0.1254328E+00
          1   -1    0    0  502    0  0.00000000000E+00  0.00000000000E+00  0.18341819101E+03  0.18341819101E+03  0.00000000000E+00 0. -1.
         -1   -1    0    0    0  501 -0.00000000000E+00 -0.00000000000E+00 -0.78960320923E+03  0.78960320923E+03  0.00000000000E+00 0.  1.
         23    2    1    2    0    0 -0.28642802536E+02  0.20775487040E+02 -0.32019035710E+03  0.33469940013E+03  0.90828369297E+02 0.  0.
         23    2    1    2    0    0  0.87905637403E+02 -0.94314244290E+02 -0.43445677011E+03  0.46236453304E+03  0.91682596797E+02 0.  0.
        -11    1    3    3    0    0  0.27134268360E+02 -0.15132446335E+02 -0.96191489638E+02  0.10108443070E+03  0.00000000000E+00 0.  1.
         11    1    3    3    0    0 -0.55777070896E+02  0.35907933374E+02 -0.22399886746E+03  0.23361496943E+03  0.00000000000E+00 0. -1.
        -13    1    4    4    0    0  0.29565411301E+02  0.15215762391E+02 -0.11279682634E+03  0.11759573548E+03  0.00000000000E+00 0. -1.
         13    1    4    4    0    0  0.58340226102E+02 -0.10953000668E+03 -0.32165994377E+03  0.34476879756E+03  0.00000000000E+00 0.  1.
         21    1    1    2  502  501 -0.59262834867E+02  0.73538757250E+02  0.14846210899E+03  0.17595746707E+03  0.00000000000E+00 0. -1.
<scales pt_clust_5="13000.00000" pt_clust_6="13000.00000" pt_clust_7="13000.00000" pt_clust_8="13000.00000" pt_clust_9="94.44592"></scales>
<clustering>
<clus scale="   90.828">  5  6 -1 -1</clus>
<clus scale="   91.683">  7  8 -1 -1</clus>
<clus scale="   94.446">  1  9  2 -1</clus>
<clus scale="  112.925">  2  5  1 -1</clus>
<clus scale="   94.446">  1  5  2 -1</clus>
</clustering>
</event>
<event>
 9    1  0.2423659E-006  0.9661048E+02  0.7546771E-02  0.1288112E+00
         -2   -1    0    0    0  501 -0.00000000000E+00  0.00000000000E+00  0.23323689276E+02  0.23323689276E+02  0.00000000000E+00 0.  1.
          2   -1    0    0  502    0  0.00000000000E+00 -0.00000000000E+00 -0.15270020522E+04  0.15270020522E+04  0.00000000000E+00 0. -1.
         23    2    1    2    0    0  0.22946483720E+01 -0.46182032819E+02 -0.15571367351E+03  0.18618970938E+03  0.91004473478E+02 0.  0.
         23    2    1    2    0    0 -0.56730379340E+02 -0.32488073050E+02 -0.61825345357E+03  0.62818037985E+03  0.89996921860E+02 0.  0.
        -13    1    4    4    0    0 -0.79218422173E+02 -0.10865080084E+02 -0.43398300641E+03  0.44128772726E+03  0.00000000000E+00 0.  1.
         13    1    4    4    0    0  0.22488042832E+02 -0.21622992966E+02 -0.18427044716E+03  0.18689265259E+03  0.00000000000E+00 0. -1.
        -13    1    3    3    0    0 -0.36341123324E+02 -0.40567963553E+02 -0.51720912683E+02  0.75109851019E+02  0.00000000000E+00 0. -1.
         13    1    3    3    0    0  0.38635771696E+02 -0.56140692663E+01 -0.10399276083E+03  0.11107985836E+03  0.00000000000E+00 0.  1.
         21    1    1    2  502  501  0.54435730968E+02  0.78670105869E+02 -0.72971123583E+03  0.73595565224E+03  0.00000000000E+00 0. -1.
<scales pt_clust_5="13000.00000" pt_clust_6="13000.00000" pt_clust_7="13000.00000" pt_clust_8="13000.00000" pt_clust_9="95.66731"></scales>
<clustering>
<clus scale="   89.997">  5  6 -1 -1</clus>
<clus scale="   91.004">  7  8 -1 -1</clus>
<clus scale="   95.667">  2  9  1 -1</clus>
<clus scale="   95.667">  2  5  1 -1</clus>
<clus scale="   95.667">  2  5  1 -1</clus>
</clustering>
</event>
<event>
 9    1  0.2423659E-006  0.1878394E+03  0.7546771E-02  0.1185673E+00
          2   -1    0    0  502    0  0.00000000000E+00  0.00000000000E+00  0.10177380322E+04  0.10177380322E+04  0.00000000000E+00 0. -1.
         -2   -1    0    0    0  501 -0.00000000000E+00 -0.00000000000E+00 -0.91673330724E+02  0.91673330724E+02  0.00000000000E+00 0.  1.
         23    2    1    2    0    0  0.88560456286E+02  0.13803063701E+03  0.56781577318E+02  0.19576848722E+03  0.90585550141E+02 0.  0.
         23    2    1    2    0    0  0.46448554629E+02 -0.28654985505E+02  0.37921987853E+03  0.39368859802E+03  0.90578250806E+02 0.  0.
        -13    1    4    4    0    0  0.49701000746E+02  0.20530301214E+02  0.15342530917E+03  0.16257616134E+03  0.00000000000E+00 0. -1.
         13    1    4    4    0    0 -0.32524461169E+01 -0.49185286719E+02  0.22579456936E+03  0.23111243668E+03  0.00000000000E+00 0.  1.
        -13    1    3    3    0    0  0.17366164152E+02  0.10914893048E+03  0.33092927947E+02  0.11536990319E+03  0.00000000000E+00 0. -1.
         13    1    3    3    0    0  0.71194292134E+02  0.28881706528E+02  0.23688649371E+02  0.80398584027E+02  0.00000000000E+00 0.  1.
         21    1    1    2  502  501 -0.13500901091E+03 -0.10937565150E+03  0.49006324564E+03  0.51995427770E+03  0.00000000000E+00 0.  1.
<scales pt_clust_5="13000.00000" pt_clust_6="13000.00000" pt_clust_7="13000.00000" pt_clust_8="13000.00000" pt_clust_9="164.55362"></scales>
<clustering>
<clus scale="   90.578">  5  6 -1 -1</clus>
<clus scale="   90.586">  7  8 -1 -1</clus>
<clus scale="  105.750">  1  5  2 -1</clus>
<clus scale="  164.554">  1  9  2 -1</clus>
<clus scale="  105.750">  1  5  2 -1</clus>
</clustering>
</event>
<event>
 9    1  0.2423659E-006  0.1229890E+03  0.7546771E-02  0.1241269E+00
          1   -1    0    0  502    0  0.00000000000E+00  0.00000000000E+00  0.61143355888E+03  0.61143355888E+03  0.00000000000E+00 0. -1.
         -1   -1    0    0    0  501 -0.00000000000E+00 -0.00000000000E+00 -0.36975960448E+03  0.36975960448E+03  0.00000000000E+00 0.  1.
         23    2    1    2    0    0 -0.40583481683E+02  0.54946647964E+02 -0.29641839926E+03  0.32045246044E+03  0.10079562924E+03 0.  0.
         23    2    1    2    0    0  0.52366770750E+02 -0.16619810306E+03  0.50809044492E+03  0.54491390684E+03  0.91712471992E+02 0.  0.
        -11    1    4    4    0    0  0.78001658859E+02 -0.11126551788E+03  0.36720943426E+03  0.39154443281E+03  0.00000000000E+00 0. -1.
         11    1    4    4    0    0 -0.25634888109E+02 -0.54932585176E+02  0.14088101066E+03  0.15336947404E+03  0.00000000000E+00 0.  1.
        -11    1    3    3    0    0 -0.73785595999E+02  0.28918996764E+02 -0.18208536817E+03  0.19858424875E+03  0.00000000000E+00 0.  1.
         11    1    3    3    0    0  0.33202114316E+02  0.26027651201E+02 -0.11433303109E+03  0.12186821169E+03  0.00000000000E+00 0. -1.
         21    1    1    2  502  501 -0.11783289067E+02  0.11125145509E+03  0.30001908736E+02  0.11582679608E+03  0.00000000000E+00 0.  1.
<scales pt_clust_5="13000.00000" pt_clust_6="13000.00000" pt_clust_7="13000.00000" pt_clust_8="13000.00000" pt_clust_9="111.87373"></scales>
<clustering>
<clus scale="   91.712">  5  6 -1 -1</clus>
<clus scale="  100.796">  7  8 -1 -1</clus>
<clus scale="  111.874">  1  9  2 -1</clus>
<clus scale="  115.662">  1  5  2 -1</clus>
<clus scale="  111.874">  1  5  2 -1</clus>
</clustering>
</event>
<event>
 9    1  0.2423659E-006  0.1540044E+03  0.7546771E-02  0.1219132E+00
         -2   -1    0    0    0  501 -0.00000000000E+00  0.00000000000E+00  0.54288269781E+02  0.54288269781E+02  0.00000000000E+00 0.  1.
          2   -1    0    0  502    0  0.00000000000E+00 -0.00000000000E+00 -0.66855414797E+03  0.66855414797E+03  0.00000000000E+00 0. -1.
         23    2    1    2    0    0 -0.86880558616E+01  0.20532689998E+02 -0.10522755013E+03  0.14045921738E+03  0.90326523057E+02 0.  0.
         23    2    1    2    0    0 -0.25577132346E+02 -0.13429769923E+03 -0.27205656204E+03  0.31728522250E+03  0.89247284242E+02 0.  0.
        -11    1    4    4    0    0 -0.49404046641E+02 -0.75564153082E+02 -0.10425616223E+03  0.13791319160E+03  0.00000000000E+00 0.  1.
         11    1    4    4    0    0  0.23826914294E+02 -0.58733546152E+02 -0.16780039982E+03  0.17937203089E+03  0.00000000000E+00 0. -1.
        -13    1    3    3    0    0 -0.24890127709E+02  0.65589597311E+01  0.66249983499E+01  0.26578732349E+02  0.00000000000E+00 0.  1.
         13    1    3    3    0    0  0.16202071848E+02  0.13973730267E+02 -0.11185254848E+03  0.11388048503E+03  0.00000000000E+00 0. -1.
         21    1    1    2  502  501  0.34265188208E+02  0.11376500924E+03 -0.23698176602E+03  0.26509797788E+03  0.00000000000E+00 0. -1.
<scales pt_clust_5="13000.00000" pt_clust_6="13000.00000" pt_clust_7="13000.00000" pt_clust_8="13000.00000" pt_clust_9="125.50811"></scales>
<clustering>
<clus scale="   89.247">  5  6 -1 -1</clus>
<clus scale="   90.327">  7  8 -1 -1</clus>
<clus scale="   93.037">  1  7  2 -1</clus>
<clus scale="  125.508">  2  9  1 -1</clus>
<clus scale="  125.508">  2  5  1 -1</clus>
</clustering>
</event>
<event>
 9    1  0.2423659E-006  0.9699320E+02  0.7546771E-02  0.1289329E+00
          3   -1    0    0  502    0  0.00000000000E+00  0.00000000000E+00  0.11334661813E+03  0.11334661813E+03  0.00000000000E+00 0. -1.
         -3   -1    0    0    0  501 -0.00000000000E+00 -0.00000000000E+00 -0.14063308318E+03  0.14063308318E+03  0.00000000000E+00 0.  1.
         23    2    1    2    0    0 -0.37780386167E+01  0.16143902824E+02 -0.66951373402E+01  0.91442844863E+02  0.89677588273E+02 0.  0.
         23    2    1    2    0    0  0.42535129244E+02 -0.37682382475E+02  0.18226346464E+02  0.10360613434E+03  0.84692574632E+02 0.  0.
        -13    1    4    4    0    0  0.27259391685E+02 -0.55624977163E+02  0.38147693209E+02  0.72749288770E+02  0.00000000000E+00 0. -1.
         13    1    4    4    0    0  0.15275737559E+02  0.17942594689E+02 -0.19921346745E+02  0.30856845566E+02  0.00000000000E+00 0.  1.
        -13    1    3    3    0    0 -0.33555514558E+02  0.30101028644E+02  0.19777113096E+02  0.49225792884E+02  0.00000000000E+00 0.  1.
         13    1    3    3    0    0  0.29777475942E+02 -0.13957125820E+02 -0.26472250436E+02  0.42217051979E+02  0.00000000000E+00 0. -1.
         21    1    1    2  502  501 -0.38757090627E+02  0.21538479651E+02 -0.38817674180E+02  0.58930722109E+02  0.00000000000E+00 0. -1.
<scales pt_clust_5="13000.00000" pt_clust_6="13000.00000" pt_clust_7="13000.00000" pt_clust_8="13000.00000" pt_clust_9="44.33980"></scales>
<clustering>
<clus scale="   44.340">  2  9  1 -1</clus>
<clus scale="   84.693">  5  6 -1 -1</clus>
<clus scale="   89.678">  7  8 -1 -1</clus>
<clus scale="   92.404">  1  5  2 -1</clus>
<clus scale="   92.404">  1  5  2 -1</clus>
</clustering>
</event>
<event>
 9    1  0.2423659E-006  0.1085528E+03  0.7546771E-02  0.1263604E+00
          3   -1    0    0  502    0  0.00000000000E+00  0.00000000000E+00  0.89192310244E+02  0.89192310244E+02  0.00000000000E+00 0. -1.
         -3   -1    0    0    0  501 -0.00000000000E+00 -0.00000000000E+00 -0.15905099101E+03  0.15905099101E+03  0.00000000000E+00 0.  1.
         23    2    1    2    0    0  0.62857618255E+02 -0.28244329598E+02 -0.40833688249E+02  0.12084351917E+03  0.90481731324E+02 0.  0.
         23    2    1    2    0    0 -0.44907295603E+02  0.17926152639E+02 -0.25035009027E+02  0.10631426982E+03  0.91312431484E+02 0.  0.
        -11    1    4    4    0    0 -0.71002566276E+02  0.16432803830E+02 -0.43989240777E+01  0.73011998963E+02  0.00000000000E+00 0. -1.
         11    1    4    4    0    0  0.26095270673E+02  0.14933488088E+01 -0.20636084950E+02  0.33302270857E+02  0.00000000000E+00 0.  1.
        -13    1    3    3    0    0  0.51588912436E+02 -0.53898878922E+02 -0.42065526924E+01  0.74727505786E+02  0.00000000000E+00 0.  1.
         13    1    3    3    0    0  0.11268705818E+02  0.25654549323E+02 -0.36627135556E+02  0.46116013389E+02  0.00000000000E+00 0. -1.
         21    1    1    2  502  501 -0.17950322651E+02  0.10318176959E+02 -0.39899834910E+01  0.21085512261E+02  0.00000000000E+00 0. -1.
<scales pt_clust_5="13000.00000" pt_clust_6="13000.00000" pt_clust_7="13000.00000" pt_clust_8="13000.00000" pt_clust_9="20.70456"></scales>
<clustering>
<clus scale="   20.705">  1  9  2 -1</clus>
<clus scale="   90.482">  7  8 -1 -1</clus>
<clus scale="   91.312">  5  6 -1 -1</clus>
<clus scale="  107.855">  2  7  1 -1</clus>
<clus scale="   20.705">  1  5  2 -1</clus>
</clustering>
</event>
<event>
 9    1  0.2423659E-006  0.1066512E+03  0.7546771E-02  0.1267209E+00
         -1   -1    0    0    0  501 -0.00000000000E+00  0.00000000000E+00  0.12896059834E+03  0.12896059834E+03  0.00000000000E+00 0.  1.
          1   -1    0    0  502    0  0.00000000000E+00 -0.00000000000E+00 -0.14019629900E+03  0.14019629900E+03  0.00000000000E+00 0. -1.
         23    2    1    2    0    0  0.62338904862E+02  0.41654265342E+02  0.12012708552E+02  0.11861850915E+03  0.91130832679E+02 0.  0.
         23    2    1    2    0    0 -0.40816918025E+02  0.23549625667E+01 -0.94855507744E+01  0.99652001701E+02  0.90382404946E+02 0.  0.
        -11    1    4    4    0    0 -0.60472602103E+02 -0.11584312729E+02 -0.29549578307E+02  0.68295750121E+02  0.00000000000E+00 0.  1.
         11    1    4    4    0    0  0.19655684077E+02  0.13939275295E+02  0.20064027533E+02  0.31356251580E+02  0.00000000000E+00 0. -1.
        -13    1    3    3    0    0 -0.84571149540E+01  0.34199352685E+02  0.28771092676E+02  0.45485099661E+02  0.00000000000E+00 0.  1.
         13    1    3    3    0    0  0.70796019816E+02  0.74549126570E+01 -0.16758384124E+02  0.73133409486E+02  0.00000000000E+00 0. -1.
         21    1    1    2  502  501 -0.21521986837E+02 -0.44009227908E+02 -0.13762858436E+02  0.50886386498E+02  0.00000000000E+00 0.  1.
<scales pt_clust_5="13000.00000" pt_clust_6="13000.00000" pt_clust_7="13000.00000" pt_clust_8="13000.00000" pt_clust_9="48.98988"></scales>
<clustering>
<clus scale="   48.990">  2  9  1 -1</clus>
<clus scale="   90.382">  5  6 -1 -1</clus>
<clus scale="   91.131">  7  8 -1 -1</clus>
<clus scale="  106.012">  2  5  1 -1</clus>
<clus scale="   48.990">  2  5  1 -1</clus>
</clustering>
</event>
<event>
 9    1  0.2423659E-006  0.1010451E+03  0.7546771E-02  0.1280356E+00
          2   -1    0    0  502    0  0.00000000000E+00  0.00000000000E+00  0.11112472711E+03  0.11112472711E+03  0.00000000000E+00 0. -1.
         -2   -1    0    0    0  501 -0.00000000000E+00 -0.00000000000E+00 -0.11686906334E+03  0.11686906334E+03  0.00000000000E+00 0.  1.
         23    2    1    2    0    0 -0.84294574673E+01  0.32453011803E+02 -0.16471759361E+02  0.95224549516E+02  0.87590765756E+02 0.  0.
         23    2    1    2    0    0 -0.43994076675E+01 -0.54133458289E+02  0.10707208099E+02  0.10757753696E+03  0.92241509411E+02 0.  0.
        -11    1    3    3    0    0 -0.10978734773E+02 -0.27730387275E+02 -0.18242164083E+02  0.34961171978E+02  0.00000000000E+00 0. -1.
         11    1    3    3    0    0  0.25492773056E+01  0.60183399078E+02  0.17704047224E+01  0.60263377538E+02  0.00000000000E+00 0.  1.
        -13    1    4    4    0    0  0.22174645547E+02  0.72217710800E+01 -0.22951511744E+02  0.32720647518E+02  0.00000000000E+00 0.  1.
         13    1    4    4    0    0 -0.26574053215E+02 -0.61355229369E+02  0.33658719842E+02  0.74856889440E+02  0.00000000000E+00 0. -1.
         21    1    1    2  502  501  0.12828865135E+02  0.21680446486E+02  0.20215029815E-01  0.25191703974E+02  0.00000000000E+00 0.  1.
<scales pt_clust_5="13000.00000" pt_clust_6="13000.00000" pt_clust_7="13000.00000" pt_clust_8="13000.00000" pt_clust_9="25.19170"></scales>
<clustering>
<clus scale="   25.192">  1  9  2 -1</clus>
<clus scale="   87.591">  5  6 -1 -1</clus>
<clus scale="   92.242">  7  8 -1 -1</clus>
<clus scale="   96.818">  2  5  1 -1</clus>
<clus scale="   25.192">  1  5  2 -1</clus>
</clustering>
</event>
<event>
 9    1  0.2423659E-006  0.9155196E+02  0.7546771E-02  0.1300142E+00
          1   -1    0    0  502    0  0.00000000000E+00  0.00000000000E+00  0.70127185498E+02  0.70127185498E+02  0.00000000000E+00 0. -1.
         -1   -1    0    0    0  501 -0.00000000000E+00 -0.00000000000E+00 -0.25015022445E+03  0.25015022445E+03  0.00000000000E+00 0.  1.
         23    2    1    2    0    0  0.23009366644E+02 -0.39640249986E+01 -0.15659852174E+03  0.18169845070E+03  0.89140818516E+02 0.  0.
         23    2    1    2    0    0 -0.28686355690E+01  0.10560020698E+02  0.16884666293E+02  0.93037917519E+02  0.90836220932E+02 0.  0.
        -11    1    4    4    0    0  0.18920833486E+02 -0.32893424049E+02  0.22480933393E+02  0.44106322128E+02  0.00000000000E+00 0.  1.
         11    1    4    4    0    0 -0.21789469055E+02  0.43453444747E+02 -0.55962671000E+01  0.48931595391E+02  0.00000000000E+00 0. -1.
        -13    1    3    3    0    0  0.67664653826E+01  0.35197108158E+02 -0.25694639410E+02  0.44100294453E+02  0.00000000000E+00 0. -1.
         13    1    3    3    0    0  0.16242901262E+02 -0.39161133157E+02 -0.13090388233E+03  0.13759815624E+03  0.00000000000E+00 0.  1.
         21    1    1    2  502  501 -0.20140731075E+02 -0.65959956994E+01 -0.40309183508E+02  0.45541041738E+02  0.00000000000E+00 0. -1.
<scales pt_clust_5="13000.00000" pt_clust_6="13000.00000" pt_clust_7="13000.00000" pt_clust_8="13000.00000" pt_clust_9="21.19331"></scales>
<clustering>
<clus scale="   21.193">  2  9  1 -1</clus>
<clus scale="   89.141">  7  8 -1 -1</clus>
<clus scale="   89.870">  2  7  1 -1</clus>
<clus scale="   90.836">  5  6 -1 -1</clus>
<clus scale="   91.552">  1  5  2 -1</clus>
</clustering>
</event>
<event>
 9    1  0.2423659E-006  0.9905313E+02  0.7546771E-02  0.1284348E+00
          1   -1    0    0  502    0  0.00000000000E+00  0.00000000000E+00  0.83088346615E+03  0.83088346615E+03  0.00000000000E+00 0. -1.
         -1   -1    0    0    0  501 -0.00000000000E+00 -0.00000000000E+00 -0.36035580175E+02  0.36035580175E+02  0.00000000000E+00 0.  1.
         23    2    1    2    0    0 -0.22292695500E+02 -0.23912345213E+02  0.14503976299E+03  0.17846997523E+03  0.98723020029E+02 0.  0.
         23    2    1    2    0    0 -0.39880355093E+02 -0.22573467762E+02  0.15417247911E+03  0.18677077726E+03  0.94942960524E+02 0.  0.
        -11    1    3    3    0    0  0.13251343819E+02 -0.30825932740E+02  0.13743271399E+03  0.14146938580E+03  0.00000000000E+00 0. -1.
         11    1    3    3    0    0 -0.35544039319E+02  0.69135875272E+01  0.76070489915E+01  0.37000589427E+02  0.00000000000E+00 0.  1.
        -13    1    4    4    0    0 -0.16822504219E+02  0.37327029362E+02  0.66959015456E+02  0.78484479485E+02  0.00000000000E+00 0.  1.
         13    1    4    4    0    0 -0.23057850874E+02 -0.59900497124E+02  0.87213463652E+02  0.10828629777E+03  0.00000000000E+00 0. -1.
         21    1    1    2  502  501  0.62173050594E+02  0.46485812975E+02  0.49563564388E+03  0.50167829384E+03  0.00000000000E+00 0. -1.
<scales pt_clust_5="13000.00000" pt_clust_6="13000.00000" pt_clust_7="13000.00000" pt_clust_8="13000.00000" pt_clust_9="77.63001"></scales>
<clustering>
<clus scale="   77.630">  1  9  2 -1</clus>
<clus scale="   94.943">  7  8 -1 -1</clus>
<clus scale="   95.286">  1  7  2 -1</clus>
<clus scale="   98.723">  5  6 -1 -1</clus>
<clus scale="   77.630">  1  5  2 -1</clus>
</clustering>
</event>
<event>
 9    1  0.2423659E-006  0.1815230E+03  0.7546771E-02  0.1188051E+00
          1   -1    0    0  502    0  0.00000000000E+00  0.00000000000E+00  0.33801155605E+03  0.33801155605E+03  0.00000000000E+00 0. -1.
         -1   -1    0    0    0  501 -0.00000000000E+00 -0.00000000000E+00 -0.45669282102E+03  0.45669282102E+03  0.00000000000E+00 0.  1.
         23    2    1    2    0    0  0.78471469615E+01  0.60969249665E+02 -0.17621811628E+02  0.11253433069E+03  0.92599245239E+02 0.  0.
         23    2    1    2    0    0  0.12469859470E+03 -0.10291919210E+03  0.24673457683E+03  0.30761850289E+03  0.87230111181E+02 0.  0.
        -11    1    4    4    0    0 -0.11948441584E+02 -0.16948736697E+02  0.42436275561E+02  0.47232006260E+02  0.00000000000E+00 0. -1.
         11    1    4    4    0    0  0.13664703629E+03 -0.85970455400E+02  0.20429830126E+03  0.26038649663E+03  0.00000000000E+00 0.  1.
        -13    1    3    3    0    0 -0.13026441422E+02 -0.21542352818E+02 -0.99813252622E+01  0.27081137255E+02  0.00000000000E+00 0. -1.
         13    1    3    3    0    0  0.20873588383E+02  0.82511602484E+02 -0.76404863660E+01  0.85453193436E+02  0.00000000000E+00 0.  1.
         21    1    1    2  502  501 -0.13254574167E+03  0.41949942431E+02 -0.34779403017E+03  0.37455154348E+03  0.00000000000E+00 0. -1.
<scales pt_clust_5="13000.00000" pt_clust_6="13000.00000" pt_clust_7="13000.00000" pt_clust_8="13000.00000" pt_clust_9="159.19017"></scales>
<clustering>
<clus scale="   87.230">  5  6 -1 -1</clus>
<clus scale="   92.599">  7  8 -1 -1</clus>
<clus scale="  111.146">  2  7  1 -1</clus>
<clus scale="  159.190">  2  9  1 -1</clus>
<clus scale="  181.523">  1  5  2 -1</clus>
</clustering>
</event>
<event>
 9    1  0.2423659E-006  0.1147403E+03  0.7546771E-02  0.1255690E+00
          1   -1    0    0  502    0  0.00000000000E+00  0.00000000000E+00  0.41186108351E+03  0.41186108351E+03  0.00000000000E+00 0. -1.
         -1   -1    0    0    0  501 -0.00000000000E+00 -0.00000000000E+00 -0.96027154635E+02  0.96027154635E+02  0.00000000000E+00 0.  1.
         23    2    1    2    0    0 -0.46241183258E+02  0.24336386729E+02  0.87548451440E+02  0.13647154716E+03  0.90715186641E+02 0.  0.
         23    2    1    2    0    0  0.60892984899E+02  0.17620068543E+02  0.27953106939E+03  0.30358506027E+03  0.10003923050E+03 0.  0.
        -13    1    3    3    0    0  0.18115310549E+02  0.29466909660E+02  0.52888559264E+02  0.63195434505E+02  0.00000000000E+00 0. -1.
         13    1    3    3    0    0 -0.64356493806E+02 -0.51305229305E+01  0.34659892176E+02  0.73276112658E+02  0.00000000000E+00 0.  1.
        -13    1    4    4    0    0  0.83216479600E+02  0.24198029874E+02  0.16151803740E+03  0.18329921858E+03  0.00000000000E+00 0. -1.
         13    1    4    4    0    0 -0.22323494701E+02 -0.65779613313E+01  0.11801303199E+03  0.12028584168E+03  0.00000000000E+00 0.  1.
         21    1    1    2  502  501 -0.14651801641E+02 -0.41956455272E+02 -0.51245591957E+02  0.67831630714E+02  0.00000000000E+00 0.  1.
<scales pt_clust_5="13000.00000" pt_clust_6="13000.00000" pt_clust_7="13000.00000" pt_clust_8="13000.00000" pt_clust_9="44.44119"></scales>
<clustering>
<clus scale="   44.441">  2  9  1 -1</clus>
<clus scale="   90.715">  5  6 -1 -1</clus>
<clus scale="  100.039">  7  8 -1 -1</clus>
<clus scale="  106.709">  2  5  1 -1</clus>
<clus scale="  114.740">  1  5  2 -1</clus>
</clustering>
</event>
<event>
 9    1  0.2423659E-006  0.1245536E+03  0.7546771E-02  0.1236680E+00
          1   -1    0    0  502    0  0.00000000000E+00  0.00000000000E+00  0.10033832178E+03  0.10033832178E+03  0.00000000000E+00 0. -1.
         -1   -1    0    0    0  501 -0.00000000000E+00 -0.00000000000E+00 -0.51674122917E+03  0.51674122917E+03  0.00000000000E+00 0.  1.
         23    2    1    2    0    0  0.30656054222E+01  0.91512364773E+02 -0.32823600154E+03  0.35297100057E+03  0.92009476116E+02 0.  0.
         23    2    1    2    0    0  0.49332141205E+02 -0.56065289617E+02 -0.13809285768E+03  0.18351934729E+03  0.95040710390E+02 0.  0.
        -11    1    4    4    0    0  0.57860140076E+02  0.28229920761E+01 -0.46442027463E+02  0.74247067341E+02  0.00000000000E+00 0.  1.
         11    1    4    4    0    0 -0.85279988709E+01 -0.58888281693E+02 -0.91650830219E+02  0.10927227995E+03  0.00000000000E+00 0. -1.
        -11    1    3    3    0    0  0.43309783522E+02  0.64799638108E+02 -0.24054179200E+03  0.25285387904E+03  0.00000000000E+00 0.  1.
         11    1    3    3    0    0 -0.40244178100E+02  0.26712726665E+02 -0.87694209542E+02  0.10011712153E+03  0.00000000000E+00 0. -1.
         21    1    1    2  502  501 -0.52397746627E+02 -0.35447075156E+02  0.49925951831E+02  0.80589203092E+02  0.00000000000E+00 0. -1.
<scales pt_clust_5="13000.00000" pt_clust_6="13000.00000" pt_clust_7="13000.00000" pt_clust_8="13000.00000" pt_clust_9="63.26151"></scales>
<clustering>
<clus scale="   63.262">  1  9  2 -1</clus>
<clus scale="   92.009">  7  8 -1 -1</clus>
<clus scale="   95.041">  5  6 -1 -1</clus>
<clus scale="  122.256">  2  7  1 -1</clus>
<clus scale="   63.262">  1  5  2 -1</clus>
</clustering>
</event>
<event>
 9    1  0.2423659E-006  0.1155156E+03  0.7546771E-02  0.1251189E+00
         -1   -1    0    0    0  501 -0.00000000000E+00  0.00000000000E+00  0.44756484942E+03  0.44756484942E+03  0.00000000000E+00 0.  1.
          1   -1    0    0  502    0  0.00000000000E+00 -0.00000000000E+00 -0.57902081034E+02  0.57902081034E+02  0.00000000000E+00 0. -1.
         23    2    1    2    0    0  0.77131476074E+01 -0.26798105718E+02  0.20680009734E+03  0.22827704519E+03  0.92555377932E+02 0.  0.
         23    2    1    2    0    0 -0.74223320183E+02  0.55940568405E+02  0.92815350433E+02  0.16151185737E+03  0.93983734461E+02 0.  0.
        -11    1    3    3    0    0  0.48824623405E+02 -0.25626147647E+01  0.10831667765E+03  0.11883986496E+03  0.00000000000E+00 0. -1.
         11    1    3    3    0    0 -0.41111475797E+02 -0.24235490953E+02  0.98483419686E+02  0.10943718023E+03  0.00000000000E+00 0.  1.
        -13    1    4    4    0    0 -0.75258825736E+02  0.13088035044E+00  0.42886907720E+02  0.86620983801E+02  0.00000000000E+00 0.  1.
         13    1    4    4    0    0  0.10355055532E+01  0.55809688055E+02  0.49928442713E+02  0.74890873571E+02  0.00000000000E+00 0. -1.
         21    1    1    2  502  501  0.66510172576E+02 -0.29142462687E+02  0.90047320609E+02  0.11567802789E+03  0.00000000000E+00 0. -1.
<scales pt_clust_5="13000.00000" pt_clust_6="13000.00000" pt_clust_7="13000.00000" pt_clust_8="13000.00000" pt_clust_9="72.61464"></scales>
<clustering>
<clus scale="   72.615">  1  9  2 -1</clus>
<clus scale="   92.555">  5  6 -1 -1</clus>
<clus scale="   93.984">  7  8 -1 -1</clus>
<clus scale="  114.357">  1  5  2 -1</clus>
<clus scale="  115.516">  2  5  1 -1</clus>
</clustering>
</event>
<event>
 9    1  0.2423659E-006  0.2307162E+03  0.7546771E-02  0.1126532E+00
         -1   -1    0    0    0  501 -0.00000000000E+00  0.00000000000E+00  0.38958114443E+03  0.38958114443E+03  0.00000000000E+00 0.  1.
          1   -1    0    0  502    0  0.00000000000E+00 -0.00000000000E+00 -0.55520058452E+03  0.55520058452E+03  0.00000000000E+00 0. -1.
         23    2    1    2    0    0  0.32285832819E+01  0.21183762153E+03  0.18422629997E+03  0.29706810826E+03  0.97080016980E+02 0.  0.
         23    2    1    2    0    0 -0.22391668002E+03 -0.17365646527E+03 -0.29047591445E+03  0.41601162905E+03  0.91619709161E+02 0.  0.
        -11    1    3    3    0    0 -0.11867615069E+02  0.16910864642E+03  0.18606735019E+03  0.25171339533E+03  0.00000000000E+00 0.  1.
         11    1    3    3    0    0  0.15096198350E+02  0.42728975114E+02 -0.18410502214E+01  0.45354712928E+02  0.00000000000E+00 0. -1.
        -13    1    4    4    0    0 -0.14472565238E+03 -0.16192778309E+03 -0.20051172286E+03  0.29558598140E+03  0.00000000000E+00 0. -1.
         13    1    4    4    0    0 -0.79191027642E+02 -0.11728682183E+02 -0.89964191586E+02  0.12042564765E+03  0.00000000000E+00 0.  1.
         21    1    1    2  502  501  0.22068809674E+03 -0.38181156260E+02 -0.59369825619E+02  0.23170199164E+03  0.00000000000E+00 0.  1.
<scales pt_clust_5="13000.00000" pt_clust_6="13000.00000" pt_clust_7="13000.00000" pt_clust_8="13000.00000" pt_clust_9="223.96660"></scales>
<clustering>
<clus scale="   91.620">  7  8 -1 -1</clus>
<clus scale="   97.080">  5  6 -1 -1</clus>
<clus scale="  223.967">  2  9  1 -1</clus>
<clus scale="  228.472">  2  7  1 -1</clus>
<clus scale="  223.967">  2  5  1 -1</clus>
</clustering>
</event>
<event>
 9    1  0.2423659E-006  0.1003616E+03  0.7546771E-02  0.1282125E+00
         -1   -1    0    0    0  501 -0.00000000000E+00  0.00000000000E+00  0.20308187654E+03  0.20308187654E+03  0.00000000000E+00 0.  1.
          1   -1    0    0  502    0  0.00000000000E+00 -0.00000000000E+00 -0.10896543105E+03  0.10896543105E+03  0.00000000000E+00 0. -1.
         23    2    1    2    0    0  0.20713481795E+02 -0.13864946083E+02  0.89434094597E+02  0.12993539453E+03  0.90903599589E+02 0.  0.
         23    2    1    2    0    0 -0.57121470636E+02 -0.36097597249E+02 -0.12299051248E+02  0.11800134134E+03  0.95953900190E+02 0.  0.
        -13    1    4    4    0    0 -0.76981051244E+02 -0.16474240429E+01 -0.24615240990E+01  0.77038012419E+02  0.00000000000E+00 0.  1.
         13    1    4    4    0    0  0.19859580608E+02 -0.34450173206E+02 -0.98375271488E+01  0.40963328921E+02  0.00000000000E+00 0. -1.
        -13    1    3    3    0    0  0.48417479402E+02  0.13160793460E+02  0.28370668172E+02  0.57639861283E+02  0.00000000000E+00 0.  1.
         13    1    3    3    0    0 -0.27703997607E+02 -0.27025739544E+02  0.61063426425E+02  0.72295533251E+02  0.00000000000E+00 0. -1.
         21    1    1    2  502  501  0.36407988841E+02  0.49962543332E+02  0.16981402139E+02  0.64110571720E+02  0.00000000000E+00 0.  1.
<scales pt_clust_5="13000.00000" pt_clust_6="13000.00000" pt_clust_7="13000.00000" pt_clust_8="13000.00000" pt_clust_9="61.82069"></scales>
<clustering>
<clus scale="   61.821">  2  9  1 -1</clus>
<clus scale="   90.904">  7  8 -1 -1</clus>
<clus scale="   95.545">  1  7  2 -1</clus>
<clus scale="   95.954">  5  6 -1 -1</clus>
<clus scale="   61.821">  2  5  1 -1</clus>
</clustering>
</event>
<event>
 9    1  0.2423659E-006  0.1037624E+03  0.7546771E-02  0.1274190E+00
         -1   -1    0    0    0  501 -0.00000000000E+00  0.00000000000E+00  0.85883195048E+02  0.85883195048E+02  0.00000000000E+00 0.  1.
          1   -1    0    0  502    0  0.00000000000E+00 -0.00000000000E+00 -0.26285906701E+03  0.26285906701E+03  0.00000000000E+00 0. -1.
         23    2    1    2    0    0 -0.68516989310E+02 -0.22251081254E+02 -0.17549775575E+02  0.11708365931E+03  0.90614017758E+02 0.  0.
         23    2    1    2    0    0  0.78684374132E+00 -0.65806595933E+01 -0.85369243136E+02  0.12724088676E+03  0.94119134000E+02 0.  0.
        -11    1    3    3    0    0 -0.29154307214E+02 -0.23862678040E+01  0.36856924800E+02  0.47054232635E+02  0.00000000000E+00 0.  1.
         11    1    3    3    0    0 -0.39362682097E+02 -0.19864813450E+02 -0.54406700375E+02  0.70029426678E+02  0.00000000000E+00 0. -1.
        -11    1    4    4    0    0 -0.23561901305E+02 -0.33795035006E+02 -0.83958401835E+01  0.42044710923E+02  0.00000000000E+00 0.  1.
         11    1    4    4    0    0  0.24348745046E+02  0.27214375413E+02 -0.76973402953E+02  0.85196175833E+02  0.00000000000E+00 0. -1.
         21    1    1    2  502  501  0.67730145569E+02  0.28831740847E+02 -0.74056853250E+02  0.10441771599E+03  0.00000000000E+00 0. -1.
<scales pt_clust_5="13000.00000" pt_clust_6="13000.00000" pt_clust_7="13000.00000" pt_clust_8="13000.00000" pt_clust_9="73.61143"></scales>
<clustering>
<clus scale="   73.611">  2  9  1 -1</clus>
<clus scale="   90.614">  5  6 -1 -1</clus>
<clus scale="   94.119">  7  8 -1 -1</clus>
<clus scale="  100.594">  1  5  2 -1</clus>
<clus scale="   73.611">  2  5  1 -1</clus>
</clustering>
</event>
<event>
 9    1  0.2423659E-006  0.1683803E+03  0.7546771E-02  0.1197829E+00
         -2   -1    0    0    0  501 -0.00000000000E+00  0.00000000000E+00  0.14978250816E+03  0.14978250816E+03  0.00000000000E+00 0.  1.
          2   -1    0    0  502    0  0.00000000000E+00 -0.00000000000E+00 -0.32081382058E+03  0.32081382058E+03  0.00000000000E+00 0. -1.
         23    2    1    2    0    0  0.65722680340E+02  0.12933660908E+01 -0.66329481639E+01  0.11251811963E+03  0.91077921236E+02 0.  0.
         23    2    1    2    0    0 -0.68901989344E+01 -0.13928573128E+03 -0.67062173672E+02  0.17925570573E+03  0.90483606908E+02 0.  0.
        -11    1    3    3    0    0  0.72285312648E+02 -0.24178965340E+02  0.15922904265E+02  0.77867372306E+02  0.00000000000E+00 0.  1.
         11    1    3    3    0    0 -0.65626323085E+01  0.25472331431E+02 -0.22555852429E+02  0.34650747324E+02  0.00000000000E+00 0. -1.
        -11    1    4    4    0    0  0.39614841757E+02 -0.88487293485E+02 -0.32923408161E+02  0.10238792703E+03  0.00000000000E+00 0.  1.
         11    1    4    4    0    0 -0.46505040691E+02 -0.50798437795E+02 -0.34138765512E+02  0.76867778703E+02  0.00000000000E+00 0. -1.
         21    1    1    2  502  501 -0.58832481406E+02  0.13799236519E+03 -0.97336190587E+02  0.17882250338E+03  0.00000000000E+00 0. -1.
<scales pt_clust_5="13000.00000" pt_clust_6="13000.00000" pt_clust_7="13000.00000" pt_clust_8="13000.00000" pt_clust_9="142.00223"></scales>
<clustering>
<clus scale="   90.484">  7  8 -1 -1</clus>
<clus scale="   91.078">  5  6 -1 -1</clus>
<clus scale="  112.322">  1  5  2 -1</clus>
<clus scale="  142.002">  2  9  1 -1</clus>
<clus scale="  142.002">  2  5  1 -1</clus>
</clustering>
</event>
<event>
 9    1  0.2423659E-006  0.1095534E+03  0.7546771E-02  0.1264678E+00
          1   -1    0    0  502    0  0.00000000000E+00  0.00000000000E+00  0.64086500791E+03  0.64086500791E+03  0.00000000000E+00 0. -1.
         -1   -1    0    0    0  501 -0.00000000000E+00 -0.00000000000E+00 -0.85425521672E+02  0.85425521672E+02  0.00000000000E+00 0.  1.
         23    2    1    2    0    0  0.15056628470E+02  0.33090083827E+02  0.88985879851E+01  0.93865605050E+02  0.86080841275E+02 0.  0.
         23    2    1    2    0    0 -0.47426405928E+02  0.45433242649E+02  0.53445541110E+03  0.54663579764E+03  0.94099231083E+02 0.  0.
        -11    1    4    4    0    0 -0.13943854946E+01 -0.27559011230E+02  0.10280638844E+03  0.10644527663E+03  0.00000000000E+00 0.  1.
         11    1    4    4    0    0 -0.46032020434E+02  0.72992253879E+02  0.43164902265E+03  0.44019052101E+03  0.00000000000E+00 0. -1.
        -13    1    3    3    0    0  0.22763711874E+02 -0.14776508311E+02 -0.23213228843E+02  0.35712543587E+02  0.00000000000E+00 0.  1.
         13    1    3    3    0    0 -0.77070834039E+01  0.47866592138E+02  0.32111816828E+02  0.58153061463E+02  0.00000000000E+00 0. -1.
         21    1    1    2  502  501  0.32369777459E+02 -0.78523326476E+02  0.12085487156E+02  0.85789126895E+02  0.00000000000E+00 0.  1.
<scales pt_clust_5="13000.00000" pt_clust_6="13000.00000" pt_clust_7="13000.00000" pt_clust_8="13000.00000" pt_clust_9="84.93359"></scales>
<clustering>
<clus scale="   84.934">  2  9  1 -1</clus>
<clus scale="   86.081">  7  8 -1 -1</clus>
<clus scale="   94.099">  5  6 -1 -1</clus>
<clus scale="  102.748">  2  7  1 -1</clus>
<clus scale="  109.553">  1  5  2 -1</clus>
</clustering>
</event>
<event>
 9    1  0.2423659E-006  0.1097501E+03  0.7546771E-02  0.1261292E+00
          2   -1    0    0  502    0  0.00000000000E+00  0.00000000000E+00  0.25791837623E+03  0.25791837623E+03  0.00000000000E+00 0. -1.
         -2   -1    0    0    0  501 -0.00000000000E+00 -0.00000000000E+00 -0.15486469039E+03  0.15486469039E+03  0.00000000000E+00 0.  1.
         23    2    1    2    0    0 -0.21014061306E+02  0.73382163975E+02 -0.81122635800E+02  0.14445295490E+03  0.91974134288E+02 0.  0.
         23    2    1    2    0    0 -0.46166461212E+02 -0.10887089160E+02  0.87820863944E+02  0.13527662168E+03  0.91309306087E+02 0.  0.
        -13    1    4    4    0    0 -0.68988979026E+02 -0.18250421594E+02  0.40070097794E+02  0.81842347550E+02  0.00000000000E+00 0.  1.
         13    1    4    4    0    0  0.22822517813E+02  0.73633324331E+01  0.47750766150E+02  0.53434274130E+02  0.00000000000E+00 0. -1.
        -13    1    3    3    0    0  0.24638266902E+02 -0.81208742189E+01 -0.14579423180E+02  0.29758232042E+02  0.00000000000E+00 0. -1.
         13    1    3    3    0    0 -0.45652328209E+02  0.81503038194E+02 -0.66543212620E+02  0.11469472286E+03  0.00000000000E+00 0.  1.
         21    1    1    2  502  501  0.67180522519E+02 -0.62495074815E+02  0.96355457702E+02  0.13305349004E+03  0.00000000000E+00 0. -1.
<scales pt_clust_5="13000.00000" pt_clust_6="13000.00000" pt_clust_7="13000.00000" pt_clust_8="13000.00000" pt_clust_9="91.75433"></scales>
<clustering>
<clus scale="   91.309">  5  6 -1 -1</clus>
<clus scale="   91.754">  1  9  2 -1</clus>
<clus scale="   91.974">  7  8 -1 -1</clus>
<clus scale="  109.194">  1  5  2 -1</clus>
<clus scale="   91.754">  1  5  2 -1</clus>
</clustering>
</event>
<event>
 9    1  0.2423659E-006  0.1158135E+03  0.7546771E-02  0.1250295E+00
         -1   -1    0    0    0  501 -0.00000000000E+00  0.00000000000E+00  0.14061418807E+03  0.14061418807E+03  0.00000000000E+00 0.  1.
          1   -1    0    0  502    0  0.00000000000E+00 -0.00000000000E+00 -0.37213158380E+03  0.37213158380E+03  0.00000000000E+00 0. -1.
         23    2    1    2    0    0  0.55765263916E+02  0.11193251283E+03 -0.59023528018E+01  0.15529560410E+03  0.91887076331E+02 0.  0.
         23    2    1    2    0    0  0.37271040605E+02 -0.58329995475E+02 -0.22213473042E+03  0.25002067274E+03  0.91514914076E+02 0.  0.
        -11    1    3    3    0    0 -0.15968270003E+02  0.70617969618E+02 -0.23444689061E+01  0.72438800476E+02  0.00000000000E+00 0. -1.
         11    1    3    3    0    0  0.71733533919E+02  0.41314543212E+02 -0.35578838957E+01  0.82856803626E+02  0.00000000000E+00 0.  1.
        -11    1    4    4    0    0 -0.16968867506E+02 -0.57943230864E+02 -0.12287710101E+03  0.13690924885E+03  0.00000000000E+00 0.  1.
         11    1    4    4    0    0  0.54239908111E+02 -0.38676461171E+00 -0.99257629403E+02  0.11311142389E+03  0.00000000000E+00 0. -1.
         21    1    1    2  502  501 -0.93036304521E+02 -0.53602517355E+02 -0.34803125108E+01  0.10742949502E+03  0.00000000000E+00 0.  1.
<scales pt_clust_5="13000.00000" pt_clust_6="13000.00000" pt_clust_7="13000.00000" pt_clust_8="13000.00000" pt_clust_9="107.37311"></scales>
<clustering>
<clus scale="   91.515">  7  8 -1 -1</clus>
<clus scale="   91.887">  5  6 -1 -1</clus>
<clus scale="  107.373">  1  9  2 -1</clus>
<clus scale="  115.518">  2  7  1 -1</clus>
<clus scale="  115.518">  2  5  1 -1</clus>
</clustering>
</event>
<event>
 9    1  0.2423659E-006  0.2591263E+03  0.7546771E-02  0.1143615E+00
          1   -1    0    0  502    0  0.00000000000E+00  0.00000000000E+00  0.12165067173E+04  0.12165067173E+04  0.00000000000E+00 0. -1.
         -1   -1    0    0    0  501 -0.00000000000E+00 -0.00000000000E+00 -0.97521461747E+02  0.97521461747E+02  0.00000000000E+00 0.  1.
         23    2    1    2    0    0 -0.22766537063E+03  0.18708170174E+02  0.20135732162E+03  0.31945278693E+03  0.96559802680E+02 0.  0.
         23    2    1    2    0    0 -0.35328830504E+02  0.39473157668E+02  0.35835621944E+03  0.37382111918E+03  0.92286470787E+02 0.  0.
        -11    1    4    4    0    0 -0.48863803690E+02 -0.80042404574E+01  0.11036432560E+03  0.12096290151E+03  0.00000000000E+00 0. -1.
         11    1    4    4    0    0  0.13534973186E+02  0.47477398126E+02  0.24799189384E+03  0.25285821767E+03  0.00000000000E+00 0.  1.
        -13    1    3    3    0    0 -0.10008950166E+03  0.56431418786E+02  0.96955341393E+02  0.15034211517E+03  0.00000000000E+00 0. -1.
         13    1    3    3    0    0 -0.12757586897E+03 -0.37723248611E+02  0.10440198023E+03  0.16911067176E+03  0.00000000000E+00 0.  1.
         21    1    1    2  502  501  0.26299420113E+03 -0.58181327843E+02  0.55927171449E+03  0.62075427294E+03  0.00000000000E+00 0. -1.
<scales pt_clust_5="13000.00000" pt_clust_6="13000.00000" pt_clust_7="13000.00000" pt_clust_8="13000.00000" pt_clust_9="240.46341"></scales>
<clustering>
<clus scale="   92.286">  5  6 -1 -1</clus>
<clus scale="   96.560">  7  8 -1 -1</clus>
<clus scale="  106.410">  1  5  2 -1</clus>
<clus scale="  240.463">  1  9  2 -1</clus>
<clus scale="  106.410">  1  5  2 -1</clus>
</clustering>
</event>
<event>
 9    1  0.2423659E-006  0.1038493E+03  0.7546771E-02  0.1273797E+00
         -2   -1    0    0    0  501 -0.00000000000E+00  0.00000000000E+00  0.74280767268E+02  0.74280767268E+02  0.00000000000E+00 0.  1.
          2   -1    0    0  502    0  0.00000000000E+00 -0.00000000000E+00 -0.23337949982E+03  0.23337949982E+03  0.00000000000E+00 0. -1.
         23    2    1    2    0    0  0.47270758448E+02 -0.18918409225E+02 -0.53037814540E+01  0.10508886743E+03  0.91777498046E+02 0.  0.
         23    2    1    2    0    0 -0.22159217340E+02 -0.21398869902E+01 -0.12820243937E+03  0.16098993753E+03  0.94796015189E+02 0.  0.
        -11    1    3    3    0    0  0.67372642641E+02 -0.33930745487E+02  0.93852683785E+01  0.76016128080E+02  0.00000000000E+00 0.  1.
         11    1    3    3    0    0 -0.20101884194E+02  0.15012336261E+02 -0.14689049833E+02  0.29072739347E+02  0.00000000000E+00 0. -1.
        -13    1    4    4    0    0  0.13916070745E+02 -0.25902667353E+02 -0.42300851898E+01  0.29706881723E+02  0.00000000000E+00 0.  1.
         13    1    4    4    0    0 -0.36075288085E+02  0.23762780363E+02 -0.12397235418E+03  0.13128305581E+03  0.00000000000E+00 0. -1.
         21    1    1    2  502  501 -0.25111541108E+02  0.21058296216E+02 -0.25592511726E+02  0.41581462129E+02  0.00000000000E+00 0. -1.
<scales pt_clust_5="13000.00000" pt_clust_6="13000.00000" pt_clust_7="13000.00000" pt_clust_8="13000.00000" pt_clust_9="32.77257"></scales>
<clustering>
<clus scale="   32.773">  2  9  1 -1</clus>
<clus scale="   91.777">  5  6 -1 -1</clus>
<clus scale="   94.796">  7  8 -1 -1</clus>
<clus scale="  101.101">  1  5  2 -1</clus>
<clus scale="   32.773">  2  5  1 -1</clus>
</clustering>
</event>
<event>
 9    1  0.2423659E-006  0.1038382E+03  0.7546771E-02  0.1273565E+00
         -1   -1    0    0    0  501 -0.00000000000E+00  0.00000000000E+00  0.30341583822E+02  0.30341583822E+02  0.00000000000E+00 0.  1.
          1   -1    0    0  502    0  0.00000000000E+00 -0.00000000000E+00 -0.51070858357E+03  0.51070858357E+03  0.00000000000E+00 0. -1.
         23    2    1    2    0    0  0.48285112446E+02  0.41221045594E+02 -0.18744976129E+03  0.21824696117E+03  0.91998349820E+02 0.  0.
         23    2    1    2    0    0 -0.20980799291E+02 -0.34557506349E+02 -0.26737768793E+03  0.28482693845E+03  0.89449101072E+02 0.  0.
        -13    1    4    4    0    0 -0.97336020614E+01  0.28516483612E+02 -0.51760206859E+02  0.59892001643E+02  0.00000000000E+00 0.  1.
         13    1    4    4    0    0 -0.11247197230E+02 -0.63073989961E+02 -0.21561748107E+03  0.22493493681E+03  0.00000000000E+00 0. -1.
        -13    1    3    3    0    0 -0.65053255503E+01  0.50030538593E+02 -0.54964821208E+02  0.74609018375E+02  0.00000000000E+00 0.  1.
         13    1    3    3    0    0  0.54790437996E+02 -0.88094929985E+01 -0.13248494008E+03  0.14363794280E+03  0.00000000000E+00 0. -1.
         21    1    1    2  502  501 -0.27304313155E+02 -0.66635392454E+01 -0.25539550527E+02  0.37976267764E+02  0.00000000000E+00 0.  1.
<scales pt_clust_5="13000.00000" pt_clust_6="13000.00000" pt_clust_7="13000.00000" pt_clust_8="13000.00000" pt_clust_9="28.10566"></scales>
<clustering>
<clus scale="   28.106">  1  9  2 -1</clus>
<clus scale="   89.449">  5  6 -1 -1</clus>
<clus scale="   91.998">  7  8 -1 -1</clus>
<clus scale="  101.587">  2  5  1 -1</clus>
<clus scale="  101.587">  2  5  1 -1</clus>
</clustering>
</event>
<event>
 9    1  0.2423659E-006  0.1363209E+03  0.7546771E-02  0.1229005E+00
          1   -1    0    0  502    0  0.00000000000E+00  0.00000000000E+00  0.26553810565E+03  0.26553810565E+03  0.00000000000E+00 0. -1.
         -1   -1    0    0    0  501 -0.00000000000E+00 -0.00000000000E+00 -0.16194278214E+03  0.16194278214E+03  0.00000000000E+00 0.  1.
         23    2    1    2    0    0  0.41044944661E+02 -0.43300099774E+02 -0.60678338117E+02  0.12491026492E+03  0.91439200807E+02 0.  0.
         23    2    1    2    0    0  0.20883581823E+02 -0.56464523843E+02  0.12562107932E+02  0.11072558633E+03  0.92075960320E+02 0.  0.
        -11    1    3    3    0    0  0.32430138792E+02 -0.72072309061E+02 -0.41375735819E+02  0.89208089039E+02  0.00000000000E+00 0.  1.
         11    1    3    3    0    0  0.86148058691E+01  0.28772209288E+02 -0.19302602298E+02  0.35702175885E+02  0.00000000000E+00 0. -1.
        -13    1    4    4    0    0  0.15389705470E+02  0.16013089637E+02  0.28680415153E+02  0.36274347513E+02  0.00000000000E+00 0. -1.
         13    1    4    4    0    0  0.54938763532E+01 -0.72477613480E+02 -0.16118307220E+02  0.74451238813E+02  0.00000000000E+00 0.  1.
         21    1    1    2  502  501 -0.61928526484E+02  0.99764623617E+02  0.15171155370E+03  0.19184503654E+03  0.00000000000E+00 0. -1.
<scales pt_clust_5="13000.00000" pt_clust_6="13000.00000" pt_clust_7="13000.00000" pt_clust_8="13000.00000" pt_clust_9="100.52566"></scales>
<clustering>
<clus scale="   91.439">  5  6 -1 -1</clus>
<clus scale="   92.076">  7  8 -1 -1</clus>
<clus scale="  109.182">  2  5  1 -1</clus>
<clus scale="  100.526">  1  9  2 -1</clus>
<clus scale="  100.526">  1  5  2 -1</clus>
</clustering>
</event>
<event>
 9    1  0.2423659E-006  0.1021022E+03  0.7546771E-02  0.1276576E+00
         -2   -1    0    0    0  501 -0.00000000000E+00  0.00000000000E+00  0.14127639658E+03  0.14127639658E+03  0.00000000000E+00 0.  1.
          2   -1    0    0  502    0  0.00000000000E+00 -0.00000000000E+00 -0.51008781664E+03  0.51008781664E+03  0.00000000000E+00 0. -1.
         23    2    1    2    0    0 -0.68263470870E+01  0.36265589385E+01  0.77513148466E+02  0.12012304763E+03  0.91441278651E+02 0.  0.
         23    2    1    2    0    0  0.38618230930E+02  0.28080005445E+02 -0.46969197586E+03  0.48062431238E+03  0.90051779495E+02 0.  0.
        -11    1    4    4    0    0  0.20548252105E+02 -0.32010599058E+02 -0.21332519151E+03  0.21668997773E+03  0.00000000000E+00 0.  1.
         11    1    4    4    0    0  0.18069978825E+02  0.60090604503E+02 -0.25636678436E+03  0.26393433465E+03  0.00000000000E+00 0. -1.
        -13    1    3    3    0    0 -0.37449439908E+02 -0.16353674743E+02  0.72490055261E+02  0.83214850470E+02  0.00000000000E+00 0. -1.
         13    1    3    3    0    0  0.30623092821E+02  0.19980233681E+02  0.50230932049E+01  0.36908197155E+02  0.00000000000E+00 0.  1.
         21    1    1    2  502  501 -0.31791883843E+02 -0.31706564384E+02  0.23367407343E+02  0.50616853213E+02  0.00000000000E+00 0.  1.
<scales pt_clust_5="13000.00000" pt_clust_6="13000.00000" pt_clust_7="13000.00000" pt_clust_8="13000.00000" pt_clust_9="44.90022"></scales>
<clustering>
<clus scale="   44.900">  1  9  2 -1</clus>
<clus scale="   90.052">  5  6 -1 -1</clus>
<clus scale="   91.441">  7  8 -1 -1</clus>
<clus scale="  100.860">  2  5  1 -1</clus>
<clus scale="  100.860">  2  5  1 -1</clus>
</clustering>
</event>
<event>
 9    1  0.2423659E-006  0.1404712E+03  0.7546771E-02  0.1233229E+00
          2   -1    0    0  502    0  0.00000000000E+00  0.00000000000E+00  0.68418116421E+03  0.68418116421E+03  0.00000000000E+00 0. -1.
         -2   -1    0    0    0  501 -0.00000000000E+00 -0.00000000000E+00 -0.62867664246E+02  0.62867664246E+02  0.00000000000E+00 0.  1.
         23    2    1    2    0    0  0.12498482095E+02 -0.54971324871E+01  0.25798657819E+02  0.95036767673E+02  0.90443274732E+02 0.  0.
         23    2    1    2    0    0  0.76420326263E+02 -0.60734743770E+02  0.19290025845E+03  0.23440971534E+03  0.90601487680E+02 0.  0.
        -11    1    4    4    0    0  0.74630105181E+02 -0.42291239252E+01  0.12898560649E+03  0.14907992746E+03  0.00000000000E+00 0. -1.
         11    1    4    4    0    0  0.17902210818E+01 -0.56505619845E+02  0.63914651954E+02  0.85329787882E+02  0.00000000000E+00 0.  1.
        -13    1    3    3    0    0 -0.85546860274E+01  0.30948419460E+02 -0.15864194827E+02  0.35814242944E+02  0.00000000000E+00 0.  1.
         13    1    3    3    0    0  0.21053168123E+02 -0.36445551947E+02  0.41662852646E+02  0.59222524729E+02  0.00000000000E+00 0. -1.
         21    1    1    2  502  501 -0.88918808358E+02  0.66231876257E+02  0.40261458370E+03  0.41760234544E+03  0.00000000000E+00 0.  1.
<scales pt_clust_5="13000.00000" pt_clust_6="13000.00000" pt_clust_7="13000.00000" pt_clust_8="13000.00000" pt_clust_9="107.34766"></scales>
<clustering>
<clus scale="   90.443">  7  8 -1 -1</clus>
<clus scale="   90.601">  5  6 -1 -1</clus>
<clus scale="   91.468">  2  7  1 -1</clus>
<clus scale="  107.348">  1  9  2 -1</clus>
<clus scale="  107.348">  1  5  2 -1</clus>
</clustering>
</event>
<event>
 9    1  0.2423659E-006  0.9584249E+02  0.7546771E-02  0.1289318E+00
         -1   -1    0    0    0  501 -0.00000000000E+00  0.00000000000E+00  0.20019991879E+03  0.20019991879E+03  0.00000000000E+00 0.  1.
          1   -1    0    0  502    0  0.00000000000E+00 -0.00000000000E+00 -0.14886076063E+03  0.14886076063E+03  0.00000000000E+00 0. -1.
         23    2    1    2    0    0 -0.34298867707E+02 -0.44957705632E+02  0.49767305607E+00  0.10747770186E+03  0.91398036610E+02 0.  0.
         23    2    1    2    0    0 -0.27790686700E+02  0.19112238406E+02 -0.58157906120E+02  0.11350500042E+03  0.91451862484E+02 0.  0.
        -11    1    4    4    0    0 -0.40950978015E+02 -0.23755617975E+02 -0.48217564616E+02  0.67574000349E+02  0.00000000000E+00 0. -1.
         11    1    4    4    0    0  0.13160291315E+02  0.42867856381E+02 -0.99403415040E+01  0.45931000070E+02  0.00000000000E+00 0.  1.
        -11    1    3    3    0    0 -0.58547817594E+02 -0.94267077882E+01  0.16542336082E+02  0.61565888671E+02  0.00000000000E+00 0. -1.
         11    1    3    3    0    0  0.24248949887E+02 -0.35530997844E+02 -0.16044663026E+02  0.45911813186E+02  0.00000000000E+00 0.  1.
         21    1    1    2  502  501  0.62089554407E+02  0.25845467226E+02  0.10899939122E+03  0.12807797715E+03  0.00000000000E+00 0.  1.
<scales pt_clust_5="13000.00000" pt_clust_6="13000.00000" pt_clust_7="13000.00000" pt_clust_8="13000.00000" pt_clust_9="67.25400"></scales>
<clustering>
<clus scale="   67.254">  1  9  2 -1</clus>
<clus scale="   91.398">  7  8 -1 -1</clus>
<clus scale="   91.452">  5  6 -1 -1</clus>
<clus scale="   95.791">  1  7  2 -1</clus>
<clus scale="   95.842">  2  5  1 -1</clus>
</clustering>
</event>
<event>
 9    1  0.2423659E-006  0.1428662E+03  0.7546771E-02  0.1222844E+00
          2   -1    0    0  502    0  0.00000000000E+00  0.00000000000E+00  0.73971091323E+03  0.73971091323E+03  0.00000000000E+00 0. -1.
         -2   -1    0    0    0  501 -0.00000000000E+00 -0.00000000000E+00 -0.13396399007E+03  0.13396399007E+03  0.00000000000E+00 0.  1.
         23    2    1    2    0    0 -0.89981352026E+02  0.35109731647E+02  0.12433488625E+03  0.18202214773E+03  0.91343096929E+02 0.  0.
         23    2    1    2    0    0 -0.23848819074E+02 -0.51949017070E+02  0.54813549796E+03  0.55863813367E+03  0.91414297092E+02 0.  0.
        -11    1    4    4    0    0 -0.44690723984E+01  0.26566677675E+02  0.13872980060E+03  0.14132133082E+03  0.00000000000E+00 0.  1.
         11    1    4    4    0    0 -0.19379746676E+02 -0.78515694745E+02  0.40940569736E+03  0.41731680284E+03  0.00000000000E+00 0. -1.
        -11    1    3    3    0    0  0.24223617747E+01 -0.22465911831E+02  0.32535545439E+02  0.39612456980E+02  0.00000000000E+00 0.  1.
         11    1    3    3    0    0 -0.92403713801E+02  0.57575643478E+02  0.91799340806E+02  0.14240969075E+03  0.00000000000E+00 0. -1.
         21    1    1    2  502  501  0.11383017110E+03  0.16839285423E+02 -0.66723461053E+02  0.13301462191E+03  0.00000000000E+00 0.  1.
<scales pt_clust_5="13000.00000" pt_clust_6="13000.00000" pt_clust_7="13000.00000" pt_clust_8="13000.00000" pt_clust_9="109.85073"></scales>
<clustering>
<clus scale="   91.343">  7  8 -1 -1</clus>
<clus scale="   91.414">  5  6 -1 -1</clus>
<clus scale="  107.815">  1  5  2 -1</clus>
<clus scale="  109.851">  2  9  1 -1</clus>
<clus scale="  107.815">  1  5  2 -1</clus>
</clustering>
</event>
<event>
 9    1  0.2423659E-006  0.1127740E+03  0.7546771E-02  0.1257090E+00
          2   -1    0    0  502    0  0.00000000000E+00  0.00000000000E+00  0.37629182658E+03  0.37629182658E+03  0.00000000000E+00 0. -1.
         -2   -1    0    0    0  501 -0.00000000000E+00 -0.00000000000E+00 -0.12882851953E+03  0.12882851953E+03  0.00000000000E+00 0.  1.
         23    2    1    2    0    0 -0.41421248910E+02 -0.50116622670E+02 -0.85805454648E+02  0.13968103549E+03  0.88998988189E+02 0.  0.
         23    2    1    2    0    0  0.46340988624E+02  0.20198880437E+02  0.30873876066E+03  0.32643936075E+03  0.93207037898E+02 0.  0.
        -11    1    4    4    0    0  0.69798639072E+02 -0.30559579203E+01  0.16945691121E+03  0.18329439067E+03  0.00000000000E+00 0. -1.
         11    1    4    4    0    0 -0.23457650448E+02  0.23254838358E+02  0.13928184945E+03  0.14314497008E+03  0.00000000000E+00 0.  1.
        -11    1    3    3    0    0 -0.12924661576E+02  0.24086926941E+02 -0.80721376634E+01  0.28502391703E+02  0.00000000000E+00 0. -1.
         11    1    3    3    0    0 -0.28496587333E+02 -0.74203549611E+02 -0.77733316985E+02  0.11117864379E+03  0.00000000000E+00 0.  1.
         21    1    1    2  502  501 -0.49197397144E+01  0.29917742233E+02  0.24530001044E+02  0.38999949877E+02  0.00000000000E+00 0. -1.
<scales pt_clust_5="13000.00000" pt_clust_6="13000.00000" pt_clust_7="13000.00000" pt_clust_8="13000.00000" pt_clust_9="30.31955"></scales>
<clustering>
<clus scale="   30.320">  1  9  2 -1</clus>
<clus scale="   88.999">  7  8 -1 -1</clus>
<clus scale="   93.207">  5  6 -1 -1</clus>
<clus scale="  109.322">  2  7  1 -1</clus>
<clus scale="   30.320">  1  5  2 -1</clus>
</clustering>
</event>
<event>
 9    1  0.2423659E-006  0.1468352E+03  0.7546771E-02  0.1206823E+00
         -1   -1    0    0    0  501 -0.00000000000E+00  0.00000000000E+00  0.10565037923E+03  0.10565037923E+03  0.00000000000E+00 0.  1.
          1   -1    0    0  502    0  0.00000000000E+00 -0.00000000000E+00 -0.64081409205E+03  0.64081409205E+03  0.00000000000E+00 0. -1.
         23    2    1    2    0    0 -0.44362654952E+02  0.51866854649E+02  0.35736641645E+02  0.11484995089E+03  0.85177390760E+02 0.  0.
         23    2    1    2    0    0  0.11558040168E+03 -0.25985088721E+02 -0.51555598402E+03  0.53778045091E+03  0.96828645717E+02 0.  0.
        -11    1    3    3    0    0 -0.33191632311E+02 -0.14455895404E+02 -0.44910971024E+01  0.36480506035E+02  0.00000000000E+00 0. -1.
         11    1    3    3    0    0 -0.11171022641E+02  0.66322750052E+02  0.40227738747E+02  0.78369444850E+02  0.00000000000E+00 0.  1.
        -13    1    4    4    0    0  0.34568751753E+02 -0.49374162493E+02 -0.30631433027E+03  0.31218788485E+03  0.00000000000E+00 0. -1.
         13    1    4    4    0    0  0.81011649923E+02  0.23389073772E+02 -0.20924165375E+03  0.22559256606E+03  0.00000000000E+00 0.  1.
         21    1    1    2  502  501 -0.71217746723E+02 -0.25881765927E+02 -0.55344370447E+02  0.93834069485E+02  0.00000000000E+00 0.  1.
<scales pt_clust_5="13000.00000" pt_clust_6="13000.00000" pt_clust_7="13000.00000" pt_clust_8="13000.00000" pt_clust_9="75.77489"></scales>
<clustering>
<clus scale="   75.775">  1  9  2 -1</clus>
<clus scale="   85.177">  5  6 -1 -1</clus>
<clus scale="   96.829">  7  8 -1 -1</clus>
<clus scale="  139.427">  1  5  2 -1</clus>
<clus scale="  146.835">  2  5  1 -1</clus>
</clustering>
</event>
<event>
 9    1  0.2423659E-006  0.1261235E+03  0.7546771E-02  0.1233843E+00
         -1   -1    0    0    0  501 -0.00000000000E+00  0.00000000000E+00  0.41530521364E+02  0.41530521364E+02  0.00000000000E+00 0.  1.
          1   -1    0    0  502    0  0.00000000000E+00 -0.00000000000E+00 -0.58811942876E+03  0.58811942876E+03  0.00000000000E+00 0. -1.
         23    2    1    2    0    0  0.56828660978E+01 -0.74061604874E+02 -0.13643693370E+03  0.18017287118E+03  0.91267794700E+02 0.  0.
         23    2    1    2    0    0 -0.42071201125E+01  0.11306225869E+03 -0.30677375034E+03  0.33897691654E+03  0.89411642722E+02 0.  0.
        -11    1    3    3    0    0  0.24461178156E+02  0.18506460444E+01 -0.19571487173E+01  0.24609034087E+02  0.00000000000E+00 0.  1.
         11    1    3    3    0    0 -0.18778312059E+02 -0.75912250919E+02 -0.13447978498E+03  0.15556383710E+03  0.00000000000E+00 0. -1.
        -13    1    4    4    0    0 -0.38049268955E+02  0.99723896448E+02 -0.24584399962E+03  0.26801469090E+03  0.00000000000E+00 0.  1.
         13    1    4    4    0    0  0.33842148842E+02  0.13338362246E+02 -0.60929750716E+02  0.70962225641E+02  0.00000000000E+00 0. -1.
         21    1    1    2  502  501 -0.14757459853E+01 -0.39000653820E+02 -0.10337822336E+03  0.11050016239E+03  0.00000000000E+00 0.  1.
<scales pt_clust_5="13000.00000" pt_clust_6="13000.00000" pt_clust_7="13000.00000" pt_clust_8="13000.00000" pt_clust_9="39.02856"></scales>
<clustering>
<clus scale="   39.029">  2  9  1 -1</clus>
<clus scale="   89.412">  7  8 -1 -1</clus>
<clus scale="   91.268">  5  6 -1 -1</clus>
<clus scale="  124.787">  2  7  1 -1</clus>
<clus scale="   39.029">  2  5  1 -1</clus>
</clustering>
</event>
<event>
 9    1  0.2423659E-006  0.1120279E+03  0.7546771E-02  0.1260834E+00
          2   -1    0    0  502    0  0.00000000000E+00  0.00000000000E+00  0.14305695046E+03  0.14305695046E+03  0.00000000000E+00 0.  1.
         -2   -1    0    0    0  501 -0.00000000000E+00 -0.00000000000E+00 -0.18362989447E+03  0.18362989447E+03  0.00000000000E+00 0. -1.
         23    2    1    2    0    0  0.75707807533E+02 -0.28923476138E+02 -0.77344257119E+01  0.12723445856E+03  0.97778047187E+02 0.  0.
         23    2    1    2    0    0 -0.34940136613E+02  0.25769057349E+02  0.47723051871E+02  0.10910793476E+03  0.87989739650E+02 0.  0.
        -11    1    4    4    0    0 -0.13848201699E+02  0.54404711009E+02  0.47505980260E+02  0.73542256089E+02  0.00000000000E+00 0.  1.
         11    1    4    4    0    0 -0.21091934915E+02 -0.28635653660E+02  0.21707161088E+00  0.35565678667E+02  0.00000000000E+00 0. -1.
        -13    1    3    3    0    0  0.15258951201E+02  0.35286815485E+02  0.20899484400E+01  0.38501465210E+02  0.00000000000E+00 0.  1.
         13    1    3    3    0    0  0.60448856332E+02 -0.64210291623E+02 -0.98243741519E+01  0.88732993354E+02  0.00000000000E+00 0. -1.
         21    1    1    2  502  501 -0.40767670920E+02  0.31544187890E+01 -0.80561570160E+02  0.90344451610E+02  0.00000000000E+00 0. -1.
<scales pt_clust_5="13000.00000" pt_clust_6="13000.00000" pt_clust_7="13000.00000" pt_clust_8="13000.00000" pt_clust_9="40.88953"></scales>
<clustering>
<clus scale="   40.890">  2  9  1 -1</clus>
<clus scale="   87.990">  5  6 -1 -1</clus>
<clus scale="   97.778">  7  8 -1 -1</clus>
<clus scale="  103.595">  1  5  2 -1</clus>
<clus scale="  103.595">  1  5  2 -1</clus>
</clustering>
</event>
<event>
 9    1  0.2423659E-006  0.1677571E+03  0.7546771E-02  0.1181777E+00
         -1   -1    0    0    0  501 -0.00000000000E+00  0.00000000000E+00  0.49564962880E+03  0.49564962880E+03  0.00000000000E+00 0.  1.
          1   -1    0    0  502    0  0.00000000000E+00 -0.00000000000E+00 -0.74527122631E+03  0.74527122631E+03  0.00000000000E+00 0. -1.
         23    2    1    2    0    0 -0.75817536384E+02  0.12204140135E+03  0.44192725681E+03  0.47343768079E+03  0.90560117134E+02 0.  0.
         23    2    1    2    0    0 -0.29893952303E+02 -0.14274476490E+03 -0.18059168427E+03  0.24529472393E+03  0.79287003148E+02 0.  0.
        -11    1    3    3    0    0 -0.55245337835E+02  0.86425527236E+02  0.40621947843E+03  0.41896978861E+03  0.00000000000E+00 0.  1.
         11    1    3    3    0    0 -0.20572198548E+02  0.35615874113E+02  0.35707778376E+02  0.54467892179E+02  0.00000000000E+00 0. -1.
        -13    1    4    4    0    0 -0.13240428662E+01 -0.13599553307E+03 -0.13982204573E+03  0.19505574222E+03  0.00000000000E+00 0. -1.
         13    1    4    4    0    0 -0.28569909437E+02 -0.67492318346E+01 -0.40769638544E+02  0.50238981703E+02  0.00000000000E+00 0.  1.
         21    1    1    2  502  501  0.10571148869E+03  0.20703363552E+02 -0.51095717004E+03  0.52218845039E+03  0.00000000000E+00 0. -1.
<scales pt_clust_5="13000.00000" pt_clust_6="13000.00000" pt_clust_7="13000.00000" pt_clust_8="13000.00000" pt_clust_9="107.71977"></scales>
<clustering>
<clus scale="   79.287">  7  8 -1 -1</clus>
<clus scale="   90.560">  5  6 -1 -1</clus>
<clus scale="  107.720">  2  9  1 -1</clus>
<clus scale="  161.950">  2  7  1 -1</clus>
<clus scale="  107.720">  2  5  1 -1</clus>
</clustering>
</event>
<event>
 9    1  0.2423659E-006  0.1310920E+03  0.7546771E-02  0.1226849E+00
         -1   -1    0    0    0  501 -0.00000000000E+00  0.00000000000E+00  0.73212351801E+02  0.73212351801E+02  0.00000000000E+00 0.  1.
          1   -1    0    0  502    0  0.00000000000E+00 -0.00000000000E+00 -0.37404101766E+03  0.37404101766E+03  0.00000000000E+00 0. -1.
         23    2    1    2    0    0  0.92338944572E+02 -0.26458970447E+02 -0.24926990988E+02  0.13509958560E+03  0.91673253181E+02 0.  0.
         23    2    1    2    0    0 -0.77198896531E+02  0.41582173188E+02 -0.24422315082E+03  0.27392472159E+03  0.87755677585E+02 0.  0.
        -13    1    3    3    0    0  0.11001461991E+03 -0.13530676694E+02 -0.22000271402E+02  0.11300578635E+03  0.00000000000E+00 0. -1.
         13    1    3    3    0    0 -0.17675675340E+02 -0.12928293752E+02 -0.29267195857E+01  0.22093799257E+02  0.00000000000E+00 0.  1.
        -13    1    4    4    0    0 -0.10351174329E+02  0.43478110885E+02 -0.16139810396E+03  0.16747191077E+03  0.00000000000E+00 0. -1.
         13    1    4    4    0    0 -0.66847722201E+02 -0.18959376965E+01 -0.82825046862E+02  0.10645281082E+03  0.00000000000E+00 0.  1.
         21    1    1    2  502  501 -0.15140048041E+02 -0.15123202742E+02 -0.31678524045E+02  0.38229062263E+02  0.00000000000E+00 0. -1.
<scales pt_clust_5="13000.00000" pt_clust_6="13000.00000" pt_clust_7="13000.00000" pt_clust_8="13000.00000" pt_clust_9="21.39935"></scales>
<clustering>
<clus scale="   21.399">  2  9  1 -1</clus>
<clus scale="   87.756">  7  8 -1 -1</clus>
<clus scale="   91.673">  5  6 -1 -1</clus>
<clus scale="  128.383">  2  7  1 -1</clus>
<clus scale="   21.399">  2  5  1 -1</clus>
</clustering>
</event>
<event>
 9    1  0.2423659E-006  0.1050761E+03  0.7546771E-02  0.1270748E+00
          2   -1    0    0  502    0  0.00000000000E+00  0.00000000000E+00  0.51542734882E+03  0.51542734882E+03  0.00000000000E+00 0. -1.
         -2   -1    0    0    0  501 -0.00000000000E+00 -0.00000000000E+00 -0.63302697863E+02  0.63302697863E+02  0.00000000000E+00 0.  1.
         23    2    1    2    0    0  0.51845004110E+02  0.42577007693E+01  0.67361443655E+02  0.12714565836E+03  0.94458572298E+02 0.  0.
         23    2    1    2    0    0 -0.92001580109E+01 -0.66410022576E+02  0.85110775372E+02  0.14259721389E+03  0.92710233085E+02 0.  0.
        -11    1    4    4    0    0 -0.17303193755E+02 -0.86307737485E+02  0.49448177765E+02  0.10096310390E+03  0.00000000000E+00 0. -1.
         11    1    4    4    0    0  0.81030357438E+01  0.19897714909E+02  0.35662597607E+02  0.41634109994E+02  0.00000000000E+00 0.  1.
        -13    1    3    3    0    0 -0.21108225046E+02  0.13097683462E+02 -0.34665422935E+01  0.25082332270E+02  0.00000000000E+00 0. -1.
         13    1    3    3    0    0  0.72953229155E+02 -0.88399826928E+01  0.70827985949E+02  0.10206332609E+03  0.00000000000E+00 0.  1.
         21    1    1    2  502  501 -0.42644846099E+02  0.62152321807E+02  0.29965243193E+03  0.30898717444E+03  0.00000000000E+00 0. -1.
<scales pt_clust_5="13000.00000" pt_clust_6="13000.00000" pt_clust_7="13000.00000" pt_clust_8="13000.00000" pt_clust_9="75.37569"></scales>
<clustering>
<clus scale="   75.376">  1  9  2 -1</clus>
<clus scale="   92.710">  5  6 -1 -1</clus>
<clus scale="   94.459">  7  8 -1 -1</clus>
<clus scale="  103.507">  1  5  2 -1</clus>
<clus scale="   75.376">  1  5  2 -1</clus>
</clustering>
</event>
<event>
 9    1  0.2423659E-006  0.1305328E+03  0.7546771E-02  0.1240599E+00
          2   -1    0    0  502    0  0.00000000000E+00  0.00000000000E+00  0.20980134687E+03  0.20980134687E+03  0.00000000000E+00 0. -1.
         -2   -1    0    0    0  501 -0.00000000000E+00 -0.00000000000E+00 -0.13564705335E+03  0.13564705335E+03  0.00000000000E+00 0.  1.
         23    2    1    2    0    0  0.46574756101E+02 -0.41062474320E+01 -0.29464231948E+02  0.10239986855E+03  0.86206281330E+02 0.  0.
         23    2    1    2    0    0  0.52496797437E+02 -0.10034885254E+02  0.26334307371E+02  0.11660488920E+03  0.10023268817E+03 0.  0.
        -11    1    3    3    0    0  0.53266124362E+02  0.28437719167E+02 -0.33298054727E+02  0.68954654118E+02  0.00000000000E+00 0. -1.
         11    1    3    3    0    0 -0.66913682612E+01 -0.32543966599E+02  0.38338227786E+01  0.33445214431E+02  0.00000000000E+00 0.  1.
        -13    1    4    4    0    0  0.15841111609E+02  0.37101051108E+02 -0.16011160840E+02  0.43402604551E+02  0.00000000000E+00 0. -1.
         13    1    4    4    0    0  0.36655685827E+02 -0.47135936362E+02  0.42345468211E+02  0.73202284651E+02  0.00000000000E+00 0.  1.
         21    1    1    2  502  501 -0.99071553537E+02  0.14141132686E+02  0.77284218094E+02  0.12644364247E+03  0.00000000000E+00 0.  1.
<scales pt_clust_5="13000.00000" pt_clust_6="13000.00000" pt_clust_7="13000.00000" pt_clust_8="13000.00000" pt_clust_9="83.61953"></scales>
<clustering>
<clus scale="   86.206">  5  6 -1 -1</clus>
<clus scale="   98.069">  2  5  1 -1</clus>
<clus scale="   83.620">  1  9  2 -1</clus>
<clus scale="  100.233">  7  8 -1 -1</clus>
<clus scale="   83.620">  1  5  2 -1</clus>
</clustering>
</event>
<event>
 9    1  0.2423659E-006  0.1152432E+03  0.7546771E-02  0.1251542E+00
         -1   -1    0    0    0  501 -0.00000000000E+00  0.00000000000E+00  0.80726702682E+03  0.80726702682E+03  0.00000000000E+00 0.  1.
          1   -1    0    0  502    0  0.00000000000E+00 -0.00000000000E+00 -0.25625087385E+02  0.25625087385E+02  0.00000000000E+00 0. -1.
         23    2    1    2    0    0 -0.37968041184E+02 -0.41197402594E+02  0.36048168263E+03  0.37592191261E+03  0.90727298747E+02 0.  0.
         23    2    1    2    0    0  0.60202455018E+02  0.68154225857E+02  0.38924161693E+03  0.40964326370E+03  0.89605987822E+02 0.  0.
        -11    1    3    3    0    0 -0.63382798312E+02 -0.39318681425E+02  0.31575099231E+03  0.32444109939E+03  0.00000000000E+00 0.  1.
         11    1    3    3    0    0  0.25414757128E+02 -0.18787211691E+01  0.44730690319E+02  0.51480813217E+02  0.00000000000E+00 0. -1.
        -13    1    4    4    0    0 -0.11703551317E+01 -0.19975176757E+02  0.71255404577E+02  0.74011553821E+02  0.00000000000E+00 0.  1.
         13    1    4    4    0    0  0.61372810149E+02  0.88129402614E+02  0.31798621235E+03  0.33563170988E+03  0.00000000000E+00 0. -1.
         21    1    1    2  502  501 -0.22234413833E+02 -0.26956823264E+02  0.31918639881E+02  0.47326937898E+02  0.00000000000E+00 0.  1.
<scales pt_clust_5="13000.00000" pt_clust_6="13000.00000" pt_clust_7="13000.00000" pt_clust_8="13000.00000" pt_clust_9="34.94338"></scales>
<clustering>
<clus scale="   34.943">  2  9  1 -1</clus>
<clus scale="   89.606">  7  8 -1 -1</clus>
<clus scale="   90.727">  5  6 -1 -1</clus>
<clus scale="  114.363">  2  7  1 -1</clus>
<clus scale="   34.943">  2  5  1 -1</clus>
</clustering>
</event>
<event>
 9    1  0.2423659E-006  0.9513527E+02  0.7546771E-02  0.1291775E+00
         -1   -1    0    0    0  501 -0.00000000000E+00  0.00000000000E+00  0.13674542180E+03  0.13674542180E+03  0.00000000000E+00 0.  1.
          1   -1    0    0  502    0  0.00000000000E+00 -0.00000000000E+00 -0.12111265513E+03  0.12111265513E+03  0.00000000000E+00 0. -1.
         23    2    1    2    0    0 -0.13649263655E+01  0.13612753386E+02  0.53505600096E+02  0.10749589648E+03  0.92224445999E+02 0.  0.
         23    2    1    2    0    0 -0.14259649126E+02 -0.49662405652E+02 -0.38235968092E+02  0.11107049361E+03  0.90581306936E+02 0.  0.
        -11    1    3    3    0    0 -0.55817664626E+01 -0.35679033855E+02  0.44334343913E+02  0.57181147452E+02  0.00000000000E+00 0.  1.
         11    1    3    3    0    0  0.42168400971E+01  0.49291787241E+02  0.91712561829E+01  0.50314749029E+02  0.00000000000E+00 0. -1.
        -11    1    4    4    0    0  0.16982409234E+02 -0.61634443030E+02 -0.43324524478E+02  0.77228370514E+02  0.00000000000E+00 0.  1.
         11    1    4    4    0    0 -0.31242058360E+02  0.11972037377E+02  0.50885563857E+01  0.33842123095E+02  0.00000000000E+00 0. -1.
         21    1    1    2  502  501  0.15624575491E+02  0.36049652266E+02  0.36313466497E+00  0.39291686838E+02  0.00000000000E+00 0. -1.
<scales pt_clust_5="13000.00000" pt_clust_6="13000.00000" pt_clust_7="13000.00000" pt_clust_8="13000.00000" pt_clust_9="39.29001"></scales>
<clustering>
<clus scale="   39.290">  2  9  1 -1</clus>
<clus scale="   90.581">  7  8 -1 -1</clus>
<clus scale="   92.224">  5  6 -1 -1</clus>
<clus scale="   93.543">  2  7  1 -1</clus>
<clus scale="   39.290">  2  5  1 -1</clus>
</clustering>
</event>
<event>
 9    1  0.2423659E-006  0.9209702E+02  0.7546771E-02  0.1300359E+00
         -1   -1    0    0    0  501 -0.00000000000E+00  0.00000000000E+00  0.48871497276E+03  0.48871497276E+03  0.00000000000E+00 0.  1.
          1   -1    0    0  502    0  0.00000000000E+00 -0.00000000000E+00 -0.60512082862E+02  0.60512082862E+02  0.00000000000E+00 0. -1.
         23    2    1    2    0    0  0.46993306048E+02 -0.25107410111E+02  0.12005297563E+03  0.16013729728E+03  0.91610502500E+02 0.  0.
         23    2    1    2    0    0  0.13018840515E+02  0.26717089900E+01  0.15830835430E+02  0.89831905853E+02  0.87421551814E+02 0.  0.
        -11    1    3    3    0    0 -0.26695069712E+01 -0.48998816099E+02  0.71315387980E+02  0.86567284868E+02  0.00000000000E+00 0.  1.
         11    1    3    3    0    0  0.49662813019E+02  0.23891405988E+02  0.48737587647E+02  0.73570012415E+02  0.00000000000E+00 0. -1.
        -11    1    4    4    0    0  0.17978028637E+02  0.30850310743E+02  0.39101514131E+02  0.52951672248E+02  0.00000000000E+00 0.  1.
         11    1    4    4    0    0 -0.49591881216E+01 -0.28178601753E+02 -0.23270678701E+02  0.36880233605E+02  0.00000000000E+00 0. -1.
         21    1    1    2  502  501 -0.60012146563E+02  0.22435701121E+02  0.29231907885E+03  0.29925785249E+03  0.00000000000E+00 0.  1.
<scales pt_clust_5="13000.00000" pt_clust_6="13000.00000" pt_clust_7="13000.00000" pt_clust_8="13000.00000" pt_clust_9="64.06886"></scales>
<clustering>
<clus scale="   64.069">  1  9  2 -1</clus>
<clus scale="   87.422">  7  8 -1 -1</clus>
<clus scale="   87.931">  2  7  1 -1</clus>
<clus scale="   91.611">  5  6 -1 -1</clus>
<clus scale="   87.931">  2  5  1 -1</clus>
</clustering>
</event>
<event>
 9    1  0.2423659E-006  0.9346220E+02  0.7546771E-02  0.1295666E+00
          1   -1    0    0  502    0  0.00000000000E+00  0.00000000000E+00  0.70057412290E+02  0.70057412290E+02  0.00000000000E+00 0. -1.
         -1   -1    0    0    0  501 -0.00000000000E+00 -0.00000000000E+00 -0.19894808731E+03  0.19894808731E+03  0.00000000000E+00 0.  1.
         23    2    1    2    0    0  0.25015568682E+01  0.24952588934E+02 -0.74123663508E+02  0.11872019563E+03  0.89282013184E+02 0.  0.
         23    2    1    2    0    0 -0.32078196555E+02  0.55758267216E+01 -0.30675590235E+02  0.10142674938E+03  0.91029078403E+02 0.  0.
        -11    1    4    4    0    0 -0.63069944029E+02  0.28089779305E+01 -0.30949363382E+02  0.70310534705E+02  0.00000000000E+00 0.  1.
         11    1    4    4    0    0  0.30991747474E+02  0.27668487910E+01  0.27377314685E+00  0.31116214671E+02  0.00000000000E+00 0. -1.
        -13    1    3    3    0    0 -0.41417451051E+02  0.75325617697E+00 -0.42971027403E+02  0.59686529825E+02  0.00000000000E+00 0.  1.
         13    1    3    3    0    0  0.43919007920E+02  0.24199332757E+02 -0.31152636105E+02  0.59033665809E+02  0.00000000000E+00 0. -1.
         21    1    1    2  502  501  0.29576639687E+02 -0.30528415655E+02 -0.24091421279E+02  0.48858554592E+02  0.00000000000E+00 0. -1.
<scales pt_clust_5="13000.00000" pt_clust_6="13000.00000" pt_clust_7="13000.00000" pt_clust_8="13000.00000" pt_clust_9="42.50602"></scales>
<clustering>
<clus scale="   42.506">  2  9  1 -1</clus>
<clus scale="   89.282">  7  8 -1 -1</clus>
<clus scale="   91.029">  5  6 -1 -1</clus>
<clus scale="   91.761">  2  7  1 -1</clus>
<clus scale="   93.462">  1  5  2 -1</clus>
</clustering>
</event>
<event>
 9    1  0.2423659E-006  0.1508929E+03  0.7546771E-02  0.1199479E+00
          1   -1    0    0  502    0  0.00000000000E+00  0.00000000000E+00  0.37541431561E+03  0.37541431561E+03  0.00000000000E+00 0. -1.
         -1   -1    0    0    0  501 -0.00000000000E+00 -0.00000000000E+00 -0.11130326047E+03  0.11130326047E+03  0.00000000000E+00 0.  1.
         23    2    1    2    0    0  0.12212902389E+03  0.12423045103E+02  0.95574431557E+01  0.15316972020E+03  0.91103171947E+02 0.  0.
         23    2    1    2    0    0 -0.10553087424E+03 -0.63171082746E+02  0.14014298459E+03  0.20729155483E+03  0.90566999833E+02 0.  0.
        -11    1    3    3    0    0  0.12406665266E+03  0.34234014376E+02 -0.13419942468E+01  0.12871015108E+03  0.00000000000E+00 0.  1.
         11    1    3    3    0    0 -0.19376287628E+01 -0.21810969274E+02  0.10899437402E+02  0.24459569121E+02  0.00000000000E+00 0. -1.
        -11    1    4    4    0    0 -0.69628168250E+02 -0.82696211568E+02  0.79615488626E+02  0.13425859842E+03  0.00000000000E+00 0. -1.
         11    1    4    4    0    0 -0.35902705990E+02  0.19525128822E+02  0.60527495969E+02  0.73032956405E+02  0.00000000000E+00 0.  1.
         21    1    1    2  502  501 -0.16598149654E+02  0.50748037643E+02  0.11441062739E+03  0.12625630106E+03  0.00000000000E+00 0.  1.
<scales pt_clust_5="13000.00000" pt_clust_6="13000.00000" pt_clust_7="13000.00000" pt_clust_8="13000.00000" pt_clust_9="53.39346"></scales>
<clustering>
<clus scale="   53.393">  1  9  2 -1</clus>
<clus scale="   90.567">  7  8 -1 -1</clus>
<clus scale="   91.103">  5  6 -1 -1</clus>
<clus scale="  150.570">  1  7  2 -1</clus>
<clus scale="   53.393">  1  5  2 -1</clus>
</clustering>
</event>
<event>
 9    1  0.2423659E-006  0.1114117E+03  0.7546771E-02  0.1258917E+00
         -1   -1    0    0    0  501 -0.00000000000E+00  0.00000000000E+00  0.96029276564E+03  0.96029276564E+03  0.00000000000E+00 0.  1.
          1   -1    0    0  502    0  0.00000000000E+00 -0.00000000000E+00 -0.35339095312E+02  0.35339095312E+02  0.00000000000E+00 0. -1.
         23    2    1    2    0    0 -0.30043816795E+02 -0.77143626950E+02  0.39522994730E+03  0.41333768696E+03  0.88247164926E+02 0.  0.
         23    2    1    2    0    0  0.78663620310E+02 -0.20824458191E+02  0.19700634428E+03  0.23206212930E+03  0.91758972050E+02 0.  0.
        -13    1    4    4    0    0  0.33876953119E+02 -0.24348375804E+01  0.17606678938E+03  0.17931282918E+03  0.00000000000E+00 0.  1.
         13    1    4    4    0    0  0.44786667191E+02 -0.18389620610E+02  0.20939554904E+02  0.52749300126E+02  0.00000000000E+00 0. -1.
        -13    1    3    3    0    0 -0.47368584422E+02 -0.88031618561E+01  0.12227700219E+03  0.13142657156E+03  0.00000000000E+00 0.  1.
         13    1    3    3    0    0  0.17324767627E+02 -0.68340465094E+02  0.27295294511E+03  0.28191111540E+03  0.00000000000E+00 0. -1.
         21    1    1    2  502  501 -0.48619803515E+02  0.97968085141E+02  0.33271737875E+03  0.35023204468E+03  0.00000000000E+00 0.  1.
<scales pt_clust_5="13000.00000" pt_clust_6="13000.00000" pt_clust_7="13000.00000" pt_clust_8="13000.00000" pt_clust_9="109.36924"></scales>
<clustering>
<clus scale="   88.247">  7  8 -1 -1</clus>
<clus scale="   91.759">  5  6 -1 -1</clus>
<clus scale="  109.369">  1  9  2 -1</clus>
<clus scale="  109.369">  1  7  2 -1</clus>
<clus scale="  111.412">  2  5  1 -1</clus>
</clustering>
</event>
<event>
 9    1  0.2423659E-006  0.2377658E+03  0.7546771E-02  0.1157128E+00
         -1   -1    0    0    0  501 -0.00000000000E+00  0.00000000000E+00  0.17191737578E+03  0.17191737578E+03  0.00000000000E+00 0.  1.
          1   -1    0    0  502    0  0.00000000000E+00 -0.00000000000E+00 -0.47821365397E+03  0.47821365397E+03  0.00000000000E+00 0. -1.
         23    2    1    2    0    0  0.21578924385E+02  0.33916618575E+02 -0.43849950039E+02  0.10921348612E+03  0.91590285727E+02 0.  0.
         23    2    1    2    0    0  0.26570224249E+02 -0.23242503041E+03 -0.21944040500E+03  0.33217502398E+03  0.86364249763E+02 0.  0.
        -11    1    3    3    0    0  0.23345673276E+02 -0.28892461890E+02 -0.17867554645E+02  0.41219465350E+02  0.00000000000E+00 0. -1.
         11    1    3    3    0    0 -0.17667488908E+01  0.62809080464E+02 -0.25982395394E+02  0.67994020772E+02  0.00000000000E+00 0.  1.
        -11    1    4    4    0    0 -0.15459456551E+02 -0.55912723725E+02 -0.17282615534E+02  0.60530292176E+02  0.00000000000E+00 0.  1.
         11    1    4    4    0    0  0.42029680799E+02 -0.17651230668E+03 -0.20215778946E+03  0.27164473181E+03  0.00000000000E+00 0. -1.
         21    1    1    2  502  501 -0.48149148634E+02  0.19850841183E+03 -0.43005923158E+02  0.20874251965E+03  0.00000000000E+00 0.  1.
<scales pt_clust_5="13000.00000" pt_clust_6="13000.00000" pt_clust_7="13000.00000" pt_clust_8="13000.00000" pt_clust_9="221.52601"></scales>
<clustering>
<clus scale="   86.364">  7  8 -1 -1</clus>
<clus scale="   91.590">  5  6 -1 -1</clus>
<clus scale="  100.024">  1  5  2 -1</clus>
<clus scale="  221.526">  1  9  2 -1</clus>
<clus scale="  237.766">  2  5  1 -1</clus>
</clustering>
</event>
<event>
 9    1  0.2423659E-006  0.9922288E+02  0.7546771E-02  0.1284908E+00
         -2   -1    0    0    0  501 -0.00000000000E+00  0.00000000000E+00  0.30692878575E+02  0.30692878575E+02  0.00000000000E+00 0.  1.
          2   -1    0    0  502    0  0.00000000000E+00 -0.00000000000E+00 -0.54685309342E+03  0.54685309342E+03  0.00000000000E+00 0. -1.
         23    2    1    2    0    0  0.74101662089E+01  0.12413730885E+02 -0.12291660135E+03  0.15408430843E+03  0.91784922185E+02 0.  0.
         23    2    1    2    0    0 -0.80126649793E+01  0.32888233459E+02 -0.32966220199E+03  0.34538972963E+03  0.97319367110E+02 0.  0.
        -11    1    4    4    0    0 -0.51130916229E+02  0.16386941137E+02 -0.13405296684E+03  0.14440602603E+03  0.00000000000E+00 0.  1.
         11    1    4    4    0    0  0.43118251250E+02  0.16501292322E+02 -0.19560923515E+03  0.20098370360E+03  0.00000000000E+00 0. -1.
        -13    1    3    3    0    0 -0.34516694366E+02  0.28094353740E+02 -0.82670781374E+02  0.93889046193E+02  0.00000000000E+00 0.  1.
         13    1    3    3    0    0  0.41926860574E+02 -0.15680622855E+02 -0.40245819973E+02  0.60195262239E+02  0.00000000000E+00 0. -1.
         21    1    1    2  502  501  0.60249877041E+00 -0.45301964344E+02 -0.63581411506E+02  0.78071933928E+02  0.00000000000E+00 0.  1.
<scales pt_clust_5="13000.00000" pt_clust_6="13000.00000" pt_clust_7="13000.00000" pt_clust_8="13000.00000" pt_clust_9="45.30597"></scales>
<clustering>
<clus scale="   45.306">  1  9  2 -1</clus>
<clus scale="   91.785">  7  8 -1 -1</clus>
<clus scale="   93.801">  1  7  2 -1</clus>
<clus scale="   97.319">  5  6 -1 -1</clus>
<clus scale="   99.223">  2  5  1 -1</clus>
</clustering>
</event>
<event>
 9    1  0.2423659E-006  0.1265534E+03  0.7546771E-02  0.1232769E+00
         -2   -1    0    0    0  501 -0.00000000000E+00  0.00000000000E+00  0.15644564813E+03  0.15644564813E+03  0.00000000000E+00 0.  1.
          2   -1    0    0  502    0  0.00000000000E+00 -0.00000000000E+00 -0.27296596731E+03  0.27296596731E+03  0.00000000000E+00 0. -1.
         23    2    1    2    0    0  0.71547179586E+02 -0.45330252186E+02 -0.39632308836E+02  0.13079276083E+03  0.91445042025E+02 0.  0.
         23    2    1    2    0    0 -0.99616492676E+02 -0.67898368680E+02 -0.97981631034E+02  0.18007119435E+03  0.91058228250E+02 0.  0.
        -11    1    3    3    0    0  0.77293033136E+02 -0.33691601492E+01 -0.42630406231E+02  0.88334114287E+02  0.00000000000E+00 0.  1.
         11    1    3    3    0    0 -0.57458535495E+01 -0.41961092037E+02  0.29980973953E+01  0.42458646539E+02  0.00000000000E+00 0. -1.
        -13    1    4    4    0    0 -0.69927411425E+02  0.70458477703E+01 -0.50126377870E+02  0.86325781767E+02  0.00000000000E+00 0.  1.
         13    1    4    4    0    0 -0.29689081251E+02 -0.74944216450E+02 -0.47855253164E+02  0.93745412582E+02  0.00000000000E+00 0. -1.
         21    1    1    2  502  501  0.28069313090E+02  0.11322862087E+03  0.21093620696E+02  0.11854766027E+03  0.00000000000E+00 0.  1.
<scales pt_clust_5="13000.00000" pt_clust_6="13000.00000" pt_clust_7="13000.00000" pt_clust_8="13000.00000" pt_clust_9="116.65593"></scales>
<clustering>
<clus scale="   91.058">  7  8 -1 -1</clus>
<clus scale="   91.445">  5  6 -1 -1</clus>
<clus scale="  116.656">  1  9  2 -1</clus>
<clus scale="  126.274">  2  7  1 -1</clus>
<clus scale="  126.274">  2  5  1 -1</clus>
</clustering>
</event>
<event>
 9    1  0.2423659E-006  0.3338380E+03  0.7546771E-02  0.1118816E+00
          4   -1    0    0  502    0  0.00000000000E+00  0.00000000000E+00  0.42423111491E+03  0.42423111491E+03  0.00000000000E+00 0. -1.
         -4   -1    0    0    0  501 -0.00000000000E+00 -0.00000000000E+00 -0.41089450115E+03  0.41089450115E+03  0.00000000000E+00 0.  1.
         23    2    1    2    0    0  0.94066938098E+01  0.64352721585E+01 -0.12260037307E+03  0.15291062520E+03  0.90669229646E+02 0.  0.
         23    2    1    2    0    0 -0.31404485296E+03  0.81057002660E+02  0.14129050409E+03  0.36521662130E+03  0.90696011912E+02 0.  0.
        -13    1    3    3    0    0 -0.16684885566E+02 -0.17282860283E+02 -0.11415144486E+03  0.11665176823E+03  0.00000000000E+00 0.  1.
         13    1    3    3    0    0  0.26091579376E+02  0.23718132442E+02 -0.84489282067E+01  0.36258856969E+02  0.00000000000E+00 0. -1.
        -13    1    4    4    0    0 -0.21098651156E+03  0.34771175835E+02  0.49093276870E+02  0.21939574418E+03  0.00000000000E+00 0.  1.
         13    1    4    4    0    0 -0.10305834139E+03  0.46285826826E+02  0.92197227223E+02  0.14582087712E+03  0.00000000000E+00 0. -1.
         21    1    1    2  502  501  0.30463815915E+03 -0.87492274819E+02 -0.53535172573E+01  0.31699836957E+03  0.00000000000E+00 0. -1.
<scales pt_clust_5="13000.00000" pt_clust_6="13000.00000" pt_clust_7="13000.00000" pt_clust_8="13000.00000" pt_clust_9="321.28182"></scales>
<clustering>
<clus scale="   90.669">  5  6 -1 -1</clus>
<clus scale="   90.696">  7  8 -1 -1</clus>
<clus scale="   91.383">  2  5  1 -1</clus>
<clus scale="  321.282">  2  9  1 -1</clus>
<clus scale="  333.838">  1  5  2 -1</clus>
</clustering>
</event>
<event>
 9    1  0.2423659E-006  0.2892947E+03  0.7546771E-02  0.1127970E+00
         -3   -1    0    0    0  501 -0.00000000000E+00  0.00000000000E+00  0.30176653744E+03  0.30176653744E+03  0.00000000000E+00 0.  1.
          3   -1    0    0  502    0  0.00000000000E+00 -0.00000000000E+00 -0.58846368221E+03  0.58846368221E+03  0.00000000000E+00 0. -1.
         23    2    1    2    0    0  0.24835251041E+03 -0.66116536051E+02 -0.33555847442E+03  0.43243493826E+03  0.91378992686E+02 0.  0.
         23    2    1    2    0    0  0.31042405727E+02  0.55696400691E+02 -0.91908904045E+02  0.14476755566E+03  0.91894931990E+02 0.  0.
        -13    1    4    4    0    0 -0.30188619247E+02  0.70550588630E+01 -0.41216750622E+02  0.51574675176E+02  0.00000000000E+00 0.  1.
         13    1    4    4    0    0  0.61231024974E+02  0.48641341828E+02 -0.50692153423E+02  0.93192880483E+02  0.00000000000E+00 0. -1.
        -13    1    3    3    0    0  0.12847663398E+03  0.88037869813E+01 -0.19000226577E+03  0.22953129011E+03  0.00000000000E+00 0.  1.
         13    1    3    3    0    0  0.11987587644E+03 -0.74920323032E+02 -0.14555620865E+03  0.20290364815E+03  0.00000000000E+00 0. -1.
         21    1    1    2  502  501 -0.27939491614E+03  0.10420135360E+02  0.14077023369E+03  0.31302772574E+03  0.00000000000E+00 0.  1.
<scales pt_clust_5="13000.00000" pt_clust_6="13000.00000" pt_clust_7="13000.00000" pt_clust_8="13000.00000" pt_clust_9="274.48374"></scales>
<clustering>
<clus scale="   91.379">  7  8 -1 -1</clus>
<clus scale="   91.895">  5  6 -1 -1</clus>
<clus scale="  111.850">  2  5  1 -1</clus>
<clus scale="  274.484">  1  9  2 -1</clus>
<clus scale="  111.850">  2  5  1 -1</clus>
</clustering>
</event>
<event>
 9    1  0.2423659E-006  0.1107482E+03  0.7546771E-02  0.1259225E+00
         -2   -1    0    0    0  501 -0.00000000000E+00  0.00000000000E+00  0.15480911785E+03  0.15480911785E+03  0.00000000000E+00 0.  1.
          2   -1    0    0  502    0  0.00000000000E+00 -0.00000000000E+00 -0.18526532124E+03  0.18526532124E+03  0.00000000000E+00 0. -1.
         23    2    1    2    0    0  0.37299143731E+02 -0.33352131960E+02  0.43992521342E+02  0.11271234446E+03  0.90912814440E+02 0.  0.
         23    2    1    2    0    0 -0.70132452947E+02  0.45673780864E+02  0.21360054495E+02  0.12533674776E+03  0.90820665032E+02 0.  0.
        -13    1    4    4    0    0 -0.34618324839E+02  0.53918352423E+02  0.48102747835E+02  0.80121729212E+02  0.00000000000E+00 0.  1.
         13    1    4    4    0    0 -0.35514128108E+02 -0.82445715593E+01 -0.26742693340E+02  0.45215018550E+02  0.00000000000E+00 0. -1.
        -13    1    3    3    0    0  0.65858782108E+02 -0.19474234508E+02  0.16312670650E+02  0.70588442497E+02  0.00000000000E+00 0.  1.
         13    1    3    3    0    0 -0.28559638377E+02 -0.13877897452E+02  0.27679850692E+02  0.42123901959E+02  0.00000000000E+00 0. -1.
         21    1    1    2  502  501  0.32833309216E+02 -0.12321648903E+02 -0.95808779235E+02  0.10202534687E+03  0.00000000000E+00 0. -1.
<scales pt_clust_5="13000.00000" pt_clust_6="13000.00000" pt_clust_7="13000.00000" pt_clust_8="13000.00000" pt_clust_9="35.06921"></scales>
<clustering>
<clus scale="   35.069">  2  9  1 -1</clus>
<clus scale="   90.821">  5  6 -1 -1</clus>
<clus scale="   90.913">  7  8 -1 -1</clus>
<clus scale="  110.673">  2  5  1 -1</clus>
<clus scale="   35.069">  2  5  1 -1</clus>
</clustering>
</event>
<event>
 9    1  0.4638243E-006  0.1173978E+03  0.7546771E-02  0.1247606E+00
          1   -1    0    0  502    0  0.00000000000E+00  0.00000000000E+00  0.21804967681E+03  0.21804967681E+03  0.00000000000E+00 0. -1.
         -1   -1    0    0    0  501 -0.00000000000E+00 -0.00000000000E+00 -0.50467669743E+03  0.50467669743E+03  0.00000000000E+00 0.  1.
         23    2    1    2    0    0 -0.74458712965E+02  0.18624918693E+02 -0.46596616730E+03  0.48112350613E+03  0.92002019294E+02 0.  0.
         23    2    1    2    0    0  0.59099302202E+01 -0.93630503735E+01  0.11190012477E+03  0.14499676325E+03  0.91541408347E+02 0.  0.
        -11    1    3    3    0    0 -0.94574865780E+02  0.12196378948E+02 -0.41757897359E+03  0.42832856090E+03  0.00000000000E+00 0.  1.
         11    1    3    3    0    0  0.20116152815E+02  0.64285397449E+01 -0.48387193704E+02  0.52794945230E+02  0.00000000000E+00 0. -1.
        -13    1    4    4    0    0  0.26035456947E+02 -0.41546125385E+02  0.38412830806E+02  0.62285400565E+02  0.00000000000E+00 0. -1.
         13    1    4    4    0    0 -0.20125526727E+02  0.32183075011E+02  0.73487293964E+02  0.82711362686E+02  0.00000000000E+00 0.  1.
         21    1    1    2  502  501  0.68548782745E+02 -0.92618683193E+01  0.67439021902E+02  0.96606104858E+02  0.00000000000E+00 0. -1.
<scales pt_clust_5="13000.00000" pt_clust_6="13000.00000" pt_clust_7="13000.00000" pt_clust_8="13000.00000" pt_clust_9="69.17165"></scales>
<clustering>
<clus scale="   69.172">  1  9  2 -1</clus>
<clus scale="   91.541">  7  8 -1 -1</clus>
<clus scale="   92.002">  5  6 -1 -1</clus>
<clus scale="  117.037">  1  7  2 -1</clus>
<clus scale="   69.172">  1  5  2 -1</clus>
</clustering>
</event>
<event>
 9    1  0.2423659E-006  0.2306841E+03  0.7546771E-02  0.1126583E+00
         -1   -1    0    0    0  501 -0.00000000000E+00  0.00000000000E+00  0.38770964946E+03  0.38770964946E+03  0.00000000000E+00 0.  1.
          1   -1    0    0  502    0  0.00000000000E+00 -0.00000000000E+00 -0.50760856933E+03  0.50760856933E+03  0.00000000000E+00 0. -1.
         23    2    1    2    0    0  0.20913809377E+03  0.25192487346E+01  0.26905482617E+03  0.35412302552E+03  0.96268005258E+02 0.  0.
         23    2    1    2    0    0 -0.21097651444E+03  0.11601048738E+03 -0.28018164515E+03  0.38030999175E+03  0.90357139814E+02 0.  0.
        -11    1    4    4    0    0 -0.98476471255E+02  0.59529886071E+02 -0.68184603214E+02  0.13375560864E+03  0.00000000000E+00 0.  1.
         11    1    4    4    0    0 -0.11250004319E+03  0.56480601312E+02 -0.21199704193E+03  0.24655438311E+03  0.00000000000E+00 0. -1.
        -13    1    3    3    0    0  0.38861784494E+02 -0.38520623911E+02  0.55672872767E+02  0.78061165266E+02  0.00000000000E+00 0. -1.
         13    1    3    3    0    0  0.17027630928E+03  0.41039872646E+02  0.21338195340E+03  0.27606186025E+03  0.00000000000E+00 0.  1.
         21    1    1    2  502  501  0.18384206747E+01 -0.11852973612E+03 -0.10877210090E+03  0.16088520152E+03  0.00000000000E+00 0. -1.
<scales pt_clust_5="13000.00000" pt_clust_6="13000.00000" pt_clust_7="13000.00000" pt_clust_8="13000.00000" pt_clust_9="118.54399"></scales>
<clustering>
<clus scale="   90.357">  5  6 -1 -1</clus>
<clus scale="   96.268">  7  8 -1 -1</clus>
<clus scale="  118.544">  2  9  1 -1</clus>
<clus scale="  228.281">  2  5  1 -1</clus>
<clus scale="  118.544">  2  5  1 -1</clus>
</clustering>
</event>
<event>
 9    1  0.2423659E-006  0.1050973E+03  0.7546771E-02  0.1271105E+00
          3   -1    0    0  502    0  0.00000000000E+00  0.00000000000E+00  0.24502807146E+03  0.24502807146E+03  0.00000000000E+00 0. -1.
         -3   -1    0    0    0  501 -0.00000000000E+00 -0.00000000000E+00 -0.64458406091E+02  0.64458406091E+02  0.00000000000E+00 0.  1.
         23    2    1    2    0    0  0.54866399583E+02  0.19096483426E+02  0.69928881277E+02  0.12333664722E+03  0.83347961155E+02 0.  0.
         23    2    1    2    0    0 -0.64610260789E+02  0.15149260523E+02  0.10278305133E+03  0.14968810007E+03  0.86244917346E+02 0.  0.
        -11    1    4    4    0    0 -0.63952652022E+00 -0.24769550586E+02  0.35103783224E+01  0.25025234992E+02  0.00000000000E+00 0.  1.
         11    1    4    4    0    0 -0.63970734268E+02  0.39918811109E+02  0.99272673005E+02  0.12466286508E+03  0.00000000000E+00 0. -1.
        -13    1    3    3    0    0  0.18789673308E+01 -0.25784775378E+02  0.40209448614E+02  0.47803607786E+02  0.00000000000E+00 0. -1.
         13    1    3    3    0    0  0.52987432253E+02  0.44881258804E+02  0.29719432663E+02  0.75533039435E+02  0.00000000000E+00 0.  1.
         21    1    1    2  502  501  0.97438612053E+01 -0.34245743949E+02  0.78577327698E+01  0.36461730267E+02  0.00000000000E+00 0.  1.
<scales pt_clust_5="13000.00000" pt_clust_6="13000.00000" pt_clust_7="13000.00000" pt_clust_8="13000.00000" pt_clust_9="35.60497"></scales>
<clustering>
<clus scale="   35.605">  2  9  1 -1</clus>
<clus scale="   83.348">  7  8 -1 -1</clus>
<clus scale="   86.245">  5  6 -1 -1</clus>
<clus scale="  102.733">  2  7  1 -1</clus>
<clus scale="  105.097">  1  5  2 -1</clus>
</clustering>
</event>
<event>
 9    1  0.2423659E-006  0.2769079E+03  0.7546771E-02  0.1119665E+00
         -2   -1    0    0    0  501 -0.00000000000E+00  0.00000000000E+00  0.77237571461E+03  0.77237571461E+03  0.00000000000E+00 0.  1.
          2   -1    0    0  502    0  0.00000000000E+00 -0.00000000000E+00 -0.26002600453E+03  0.26002600453E+03  0.00000000000E+00 0. -1.
         23    2    1    2    0    0  0.17327587934E+03  0.10320990215E+03  0.15438117787E+03  0.26999468604E+03  0.91579299754E+02 0.  0.
         23    2    1    2    0    0  0.12207112420E+03 -0.30478145722E+01 -0.11601950440E+03  0.19502096070E+03  0.98295478914E+02 0.  0.
        -11    1    4    4    0    0  0.12398585632E+03  0.18872286516E+02 -0.11891492959E+03  0.17282770682E+03  0.00000000000E+00 0. -1.
         11    1    4    4    0    0 -0.19147321144E+01 -0.21920101089E+02  0.28954251943E+01  0.22193253882E+02  0.00000000000E+00 0.  1.
        -11    1    3    3    0    0  0.76340569754E+02  0.71117827569E+02  0.12683698525E+03  0.16423534582E+03  0.00000000000E+00 0. -1.
         11    1    3    3    0    0  0.96935309589E+02  0.32092074586E+02  0.27544192615E+02  0.10575934022E+03  0.00000000000E+00 0.  1.
         21    1    1    2  502  501 -0.29534700355E+03 -0.10016208758E+03  0.47398803661E+03  0.56738607239E+03  0.00000000000E+00 0.  1.
<scales pt_clust_5="13000.00000" pt_clust_6="13000.00000" pt_clust_7="13000.00000" pt_clust_8="13000.00000" pt_clust_9="261.32583"></scales>
<clustering>
<clus scale="   91.579">  7  8 -1 -1</clus>
<clus scale="   98.295">  5  6 -1 -1</clus>
<clus scale="  156.757">  2  5  1 -1</clus>
<clus scale="  261.326">  1  9  2 -1</clus>
<clus scale="  156.757">  2  5  1 -1</clus>
</clustering>
</event>
<event>
 9    1  0.2423659E-006  0.1424395E+03  0.7546771E-02  0.1211869E+00
         -2   -1    0    0    0  501 -0.00000000000E+00  0.00000000000E+00  0.40646463684E+03  0.40646463684E+03  0.00000000000E+00 0.  1.
          2   -1    0    0  502    0  0.00000000000E+00 -0.00000000000E+00 -0.15181537360E+03  0.15181537360E+03  0.00000000000E+00 0. -1.
         23    2    1    2    0    0 -0.48797669186E+02 -0.90756808414E+02  0.19455207959E+03  0.23819361374E+03  0.90926757115E+02 0.  0.
         23    2    1    2    0    0  0.14157513719E+03  0.16230723460E+02  0.92821667079E+02  0.19666562161E+03  0.98765120297E+02 0.  0.
        -13    1    3    3    0    0 -0.51515279927E+02 -0.56020689696E+01  0.82616045417E+02  0.97522398468E+02  0.00000000000E+00 0.  1.
         13    1    3    3    0    0  0.27176107409E+01 -0.85154739444E+02  0.11193603418E+03  0.14067121527E+03  0.00000000000E+00 0. -1.
        -13    1    4    4    0    0  0.13230574755E+02 -0.27463917011E+02  0.41951123531E+02  0.51857609003E+02  0.00000000000E+00 0. -1.
         13    1    4    4    0    0  0.12834456244E+03  0.43694640471E+02  0.50870543548E+02  0.14480801261E+03  0.00000000000E+00 0.  1.
         21    1    1    2  502  501 -0.92777468009E+02  0.74526084953E+02 -0.32724483441E+02  0.12342077510E+03  0.00000000000E+00 0.  1.
<scales pt_clust_5="13000.00000" pt_clust_6="13000.00000" pt_clust_7="13000.00000" pt_clust_8="13000.00000" pt_clust_9="119.00334"></scales>
<clustering>
<clus scale="   90.927">  5  6 -1 -1</clus>
<clus scale="   98.765">  7  8 -1 -1</clus>
<clus scale="  119.003">  2  9  1 -1</clus>
<clus scale="  137.121">  1  5  2 -1</clus>
<clus scale="  119.003">  2  5  1 -1</clus>
</clustering>
</event>
<event>
 9    1  0.2423659E-006  0.1075707E+03  0.7546771E-02  0.1265702E+00
         -2   -1    0    0    0  501 -0.00000000000E+00  0.00000000000E+00  0.11847320867E+03  0.11847320867E+03  0.00000000000E+00 0.  1.
          2   -1    0    0  502    0  0.00000000000E+00 -0.00000000000E+00 -0.29101584195E+03  0.29101584195E+03  0.00000000000E+00 0. -1.
         23    2    1    2    0    0  0.36869711302E+02 -0.39431362809E+02  0.55690541435E+02  0.11982519514E+03  0.91336920246E+02 0.  0.
         23    2    1    2    0    0 -0.17052380560E+02  0.84151978604E+02 -0.19217158378E+03  0.22889298734E+03  0.89942997806E+02 0.  0.
        -13    1    4    4    0    0 -0.21542162074E+01  0.32219676972E+02 -0.33159761316E+01  0.32461422170E+02  0.00000000000E+00 0.  1.
         13    1    4    4    0    0 -0.14898164352E+02  0.51932301632E+02 -0.18885560765E+03  0.19643156517E+03  0.00000000000E+00 0. -1.
        -13    1    3    3    0    0  0.67250989554E+01  0.28973851897E+02  0.25599095400E+02  0.39243148893E+02  0.00000000000E+00 0. -1.
         13    1    3    3    0    0  0.30144612347E+02 -0.68405214707E+02  0.30091446035E+02  0.80582046245E+02  0.00000000000E+00 0.  1.
         21    1    1    2  502  501 -0.19817330742E+02 -0.44720615795E+02 -0.36061590930E+02  0.60770868146E+02  0.00000000000E+00 0. -1.
<scales pt_clust_5="13000.00000" pt_clust_6="13000.00000" pt_clust_7="13000.00000" pt_clust_8="13000.00000" pt_clust_9="48.91482"></scales>
<clustering>
<clus scale="   48.915">  2  9  1 -1</clus>
<clus scale="   89.943">  5  6 -1 -1</clus>
<clus scale="   91.337">  7  8 -1 -1</clus>
<clus scale="  106.390">  2  5  1 -1</clus>
<clus scale="   48.915">  2  5  1 -1</clus>
</clustering>
</event>
<event>
 9    1  0.2423659E-006  0.1205861E+03  0.7546771E-02  0.1242874E+00
         -2   -1    0    0    0  501 -0.00000000000E+00  0.00000000000E+00  0.40588303915E+02  0.40588303915E+02  0.00000000000E+00 0.  1.
          2   -1    0    0  502    0  0.00000000000E+00 -0.00000000000E+00 -0.65756218930E+03  0.65756218930E+03  0.00000000000E+00 0. -1.
         23    2    1    2    0    0 -0.11338131091E+02 -0.90687404486E+02 -0.12109637018E+03  0.17633264157E+03  0.89867185694E+02 0.  0.
         23    2    1    2    0    0 -0.21655089876E+02  0.45772868619E+02 -0.35684562972E+03  0.37203222702E+03  0.92222969323E+02 0.  0.
        -11    1    3    3    0    0  0.34040571636E+02 -0.15110289362E+02 -0.53773354788E+02  0.65411429025E+02  0.00000000000E+00 0. -1.
         11    1    3    3    0    0 -0.45378702728E+02 -0.75577115125E+02 -0.67323015389E+02  0.11092121255E+03  0.00000000000E+00 0.  1.
        -13    1    4    4    0    0 -0.56668995648E+02  0.15250256442E+02 -0.19218256039E+03  0.20094298173E+03  0.00000000000E+00 0.  1.
         13    1    4    4    0    0  0.35013905771E+02  0.30522612177E+02 -0.16466306934E+03  0.17108924529E+03  0.00000000000E+00 0. -1.
         21    1    1    2  502  501  0.32993220968E+02  0.44914535867E+02 -0.13903188549E+03  0.14978562462E+03  0.00000000000E+00 0.  1.
<scales pt_clust_5="13000.00000" pt_clust_6="13000.00000" pt_clust_7="13000.00000" pt_clust_8="13000.00000" pt_clust_9="55.73032"></scales>
<clustering>
<clus scale="   55.730">  2  9  1 -1</clus>
<clus scale="   89.867">  5  6 -1 -1</clus>
<clus scale="   92.223">  7  8 -1 -1</clus>
<clus scale="  118.794">  1  5  2 -1</clus>
<clus scale="   55.730">  2  5  1 -1</clus>
</clustering>
</event>
<event>
 9    1  0.2423659E-006  0.1049329E+03  0.7546771E-02  0.1270546E+00
         -1   -1    0    0    0  501 -0.00000000000E+00  0.00000000000E+00  0.38789086146E+02  0.38789086146E+02  0.00000000000E+00 0.  1.
          1   -1    0    0  502    0  0.00000000000E+00 -0.00000000000E+00 -0.65588634994E+03  0.65588634994E+03  0.00000000000E+00 0. -1.
         23    2    1    2    0    0  0.55937363843E+01 -0.67639594665E+02 -0.20491432141E+03  0.23414252251E+03  0.90699708250E+02 0.  0.
         23    2    1    2    0    0  0.43387270603E+02  0.32024756123E+02 -0.37441714858E+03  0.38916197445E+03  0.91382716916E+02 0.  0.
        -11    1    4    4    0    0 -0.19658726563E+02  0.28480575225E+02 -0.67925421500E+02  0.76233008475E+02  0.00000000000E+00 0.  1.
         11    1    4    4    0    0  0.63045997166E+02  0.35441808980E+01 -0.30649172708E+03  0.31292896597E+03  0.00000000000E+00 0. -1.
        -11    1    3    3    0    0 -0.30694560735E+02 -0.31217771642E+02 -0.33337713597E+02  0.55028251589E+02  0.00000000000E+00 0.  1.
         11    1    3    3    0    0  0.36288297120E+02 -0.36421823023E+02 -0.17157660781E+03  0.17911427092E+03  0.00000000000E+00 0. -1.
         21    1    1    2  502  501 -0.48981006987E+02  0.35614838542E+02 -0.37765793805E+02  0.71370939125E+02  0.00000000000E+00 0.  1.
<scales pt_clust_5="13000.00000" pt_clust_6="13000.00000" pt_clust_7="13000.00000" pt_clust_8="13000.00000" pt_clust_9="60.56035"></scales>
<clustering>
<clus scale="   60.560">  1  9  2 -1</clus>
<clus scale="   90.700">  7  8 -1 -1</clus>
<clus scale="   91.383">  5  6 -1 -1</clus>
<clus scale="  104.339">  1  7  2 -1</clus>
<clus scale="  104.933">  2  5  1 -1</clus>
</clustering>
</event>
<event>
 9    1  0.2423659E-006  0.1041680E+03  0.7546771E-02  0.1279438E+00
          2   -1    0    0  502    0  0.00000000000E+00  0.00000000000E+00  0.32592894955E+03  0.32592894955E+03  0.00000000000E+00 0. -1.
         -2   -1    0    0    0  501 -0.00000000000E+00 -0.00000000000E+00 -0.11712630632E+03  0.11712630632E+03  0.00000000000E+00 0.  1.
         23    2    1    2    0    0 -0.13009533947E+02  0.78139724882E+01  0.83410439943E+01  0.72641709981E+02  0.70547422876E+02 0.  0.
         23    2    1    2    0    0  0.68992602706E+02 -0.15298564465E+02  0.26297356302E+03  0.28616469593E+03  0.87983595331E+02 0.  0.
        -13    1    4    4    0    0  0.67771847445E+02  0.24082621045E+02  0.14641004110E+03  0.16312233470E+03  0.00000000000E+00 0. -1.
         13    1    4    4    0    0  0.12207552613E+01 -0.39381185510E+02  0.11656352191E+03  0.12304236123E+03  0.00000000000E+00 0.  1.
        -13    1    3    3    0    0 -0.31381355813E+02  0.27662193427E+02 -0.56140074219E+01  0.42207860846E+02  0.00000000000E+00 0.  1.
         13    1    3    3    0    0  0.18371821867E+02 -0.19848220939E+02  0.13955051416E+02  0.30433849135E+02  0.00000000000E+00 0. -1.
         21    1    1    2  502  501 -0.55983068759E+02  0.74845919764E+01 -0.62511963776E+02  0.84248849962E+02  0.00000000000E+00 0.  1.
<scales pt_clust_5="13000.00000" pt_clust_6="13000.00000" pt_clust_7="13000.00000" pt_clust_8="13000.00000" pt_clust_9="56.48117"></scales>
<clustering>
<clus scale="   56.481">  2  9  1 -1</clus>
<clus scale="   70.547">  7  8 -1 -1</clus>
<clus scale="   87.984">  5  6 -1 -1</clus>
<clus scale="   89.927">  2  7  1 -1</clus>
<clus scale="  104.168">  1  5  2 -1</clus>
</clustering>
</event>
<event>
 9    1  0.2423659E-006  0.1192454E+03  0.7546771E-02  0.1253384E+00
         -1   -1    0    0    0  501 -0.00000000000E+00  0.00000000000E+00  0.24379563260E+03  0.24379563260E+03  0.00000000000E+00 0.  1.
          1   -1    0    0  502    0  0.00000000000E+00 -0.00000000000E+00 -0.18236511932E+03  0.18236511932E+03  0.00000000000E+00 0. -1.
         23    2    1    2    0    0  0.58332116172E+01  0.38475268522E+02  0.14774557701E+02  0.10060509460E+03  0.91589982308E+02 0.  0.
         23    2    1    2    0    0  0.69818603745E+02  0.29585767861E+02 -0.95217566923E+02  0.15096012981E+03  0.89289532714E+02 0.  0.
        -13    1    4    4    0    0  0.64577384159E+01 -0.27192144615E+02 -0.42521545799E+02  0.50884152458E+02  0.00000000000E+00 0.  1.
         13    1    4    4    0    0  0.63360865329E+02  0.56777912476E+02 -0.52696021124E+02  0.10007597735E+03  0.00000000000E+00 0. -1.
        -13    1    3    3    0    0 -0.13538762691E+01 -0.29284516480E+02  0.13937013831E+02  0.32460071487E+02  0.00000000000E+00 0.  1.
         13    1    3    3    0    0  0.71870878864E+01  0.67759785001E+02  0.83754386934E+00  0.68145023116E+02  0.00000000000E+00 0. -1.
         21    1    1    2  502  501 -0.75651815363E+02 -0.68061036383E+02  0.14187352250E+03  0.17459552751E+03  0.00000000000E+00 0.  1.
<scales pt_clust_5="13000.00000" pt_clust_6="13000.00000" pt_clust_7="13000.00000" pt_clust_8="13000.00000" pt_clust_9="79.03705"></scales>
<clustering>
<clus scale="   89.290">  5  6 -1 -1</clus>
<clus scale="   91.590">  7  8 -1 -1</clus>
<clus scale="   99.514">  1  7  2 -1</clus>
<clus scale="   79.037">  1  9  2 -1</clus>
<clus scale="  119.245">  2  5  1 -1</clus>
</clustering>
</event>
<event>
 9    1  0.2423659E-006  0.1013794E+03  0.7546771E-02  0.1281656E+00
         -1   -1    0    0    0  501 -0.00000000000E+00  0.00000000000E+00  0.23311948475E+02  0.23311948475E+02  0.00000000000E+00 0.  1.
          1   -1    0    0  502    0  0.00000000000E+00 -0.00000000000E+00 -0.11473415548E+04  0.11473415548E+04  0.00000000000E+00 0. -1.
         23    2    1    2    0    0  0.17286567090E+02 -0.44115207285E+02 -0.23782658255E+03  0.25883675608E+03  0.90498652015E+02 0.  0.
         23    2    1    2    0    0 -0.26455666386E+02 -0.56848655406E+02 -0.53234238823E+03  0.54372012491E+03  0.91167340719E+02 0.  0.
        -11    1    4    4    0    0 -0.15545743045E+02 -0.80981445851E+02 -0.43975161530E+03  0.44741607912E+03  0.00000000000E+00 0.  1.
         11    1    4    4    0    0 -0.10909923341E+02  0.24132790446E+02 -0.92590772937E+02  0.96304045788E+02  0.00000000000E+00 0. -1.
        -13    1    3    3    0    0 -0.25770897130E+02  0.10364386283E+02 -0.10903798652E+03  0.11252040769E+03  0.00000000000E+00 0. -1.
         13    1    3    3    0    0  0.43057464219E+02 -0.54479593567E+02 -0.12878859603E+03  0.14631634839E+03  0.00000000000E+00 0.  1.
         21    1    1    2  502  501  0.91690992965E+01  0.10096386269E+03 -0.35386063556E+03  0.36809662230E+03  0.00000000000E+00 0. -1.
<scales pt_clust_5="13000.00000" pt_clust_6="13000.00000" pt_clust_7="13000.00000" pt_clust_8="13000.00000" pt_clust_9="101.37936"></scales>
<clustering>
<clus scale="   90.499">  7  8 -1 -1</clus>
<clus scale="   91.167">  5  6 -1 -1</clus>
<clus scale="  101.379">  2  9  1 -1</clus>
<clus scale="   93.525">  1  7  2 -1</clus>
<clus scale="  101.379">  2  5  1 -1</clus>
</clustering>
</event>
<event>
 9    1  0.2423659E-006  0.1541640E+03  0.7546771E-02  0.1206442E+00
          1   -1    0    0  502    0  0.00000000000E+00  0.00000000000E+00  0.33232903090E+03  0.33232903090E+03  0.00000000000E+00 0. -1.
         -1   -1    0    0    0  501 -0.00000000000E+00 -0.00000000000E+00 -0.21245731672E+03  0.21245731672E+03  0.00000000000E+00 0.  1.
         23    2    1    2    0    0  0.79928697475E+02  0.10220088233E+02 -0.33464707862E+02  0.12598921231E+03  0.90886456982E+02 0.  0.
         23    2    1    2    0    0  0.44796446010E+02  0.10072830505E+03  0.19699603115E+03  0.24625128964E+03  0.98383679268E+02 0.  0.
        -13    1    4    4    0    0  0.41869717131E+02  0.17337789935E+02  0.17999333065E+02  0.48761133736E+02  0.00000000000E+00 0.  1.
         13    1    4    4    0    0  0.29267288794E+01  0.83390515116E+02  0.17899669809E+03  0.19749015591E+03  0.00000000000E+00 0. -1.
        -13    1    3    3    0    0  0.18715876561E+02  0.39450530419E+02  0.10812376016E+02  0.44983728846E+02  0.00000000000E+00 0. -1.
         13    1    3    3    0    0  0.61212820913E+02 -0.29230442185E+02 -0.44277083878E+02  0.81005483464E+02  0.00000000000E+00 0.  1.
         21    1    1    2  502  501 -0.12472514348E+03 -0.11094839328E+03 -0.43659609110E+02  0.17254584567E+03  0.00000000000E+00 0.  1.
<scales pt_clust_5="13000.00000" pt_clust_6="13000.00000" pt_clust_7="13000.00000" pt_clust_8="13000.00000" pt_clust_9="118.68942"></scales>
<clustering>
<clus scale="   90.886">  7  8 -1 -1</clus>
<clus scale="   98.384">  5  6 -1 -1</clus>
<clus scale="  121.464">  2  7  1 -1</clus>
<clus scale="  118.689">  2  9  1 -1</clus>
<clus scale="  154.164">  1  5  2 -1</clus>
</clustering>
</event>
<event>
 9    1  0.2423659E-006  0.9222141E+02  0.7546771E-02  0.1299923E+00
         -1   -1    0    0    0  501 -0.00000000000E+00  0.00000000000E+00  0.29532292233E+03  0.29532292233E+03  0.00000000000E+00 0.  1.
          1   -1    0    0  502    0  0.00000000000E+00 -0.00000000000E+00 -0.77132030156E+02  0.77132030156E+02  0.00000000000E+00 0. -1.
         23    2    1    2    0    0  0.17662732350E+02  0.15193422564E+02  0.18260511469E+03  0.20515455063E+03  0.90559094115E+02 0.  0.
         23    2    1    2    0    0 -0.15506594671E+02  0.15912095407E+02  0.75272152159E+02  0.11683050476E+03  0.86543750165E+02 0.  0.
        -11    1    3    3    0    0  0.53902576949E+02  0.16441033335E+02  0.12454316952E+03  0.13669965784E+03  0.00000000000E+00 0.  1.
         11    1    3    3    0    0 -0.36239844600E+02 -0.12476107712E+01  0.58061945174E+02  0.68454892788E+02  0.00000000000E+00 0. -1.
        -13    1    4    4    0    0  0.31320702322E+02 -0.98490968310E+01  0.14476161275E+02  0.35882451806E+02  0.00000000000E+00 0.  1.
         13    1    4    4    0    0 -0.46827296993E+02  0.25761192238E+02  0.60795990883E+02  0.80948052951E+02  0.00000000000E+00 0. -1.
         21    1    1    2  502  501 -0.21561376790E+01 -0.31105517971E+02 -0.39686374682E+02  0.50469897100E+02  0.00000000000E+00 0. -1.
<scales pt_clust_5="13000.00000" pt_clust_6="13000.00000" pt_clust_7="13000.00000" pt_clust_8="13000.00000" pt_clust_9="31.18016"></scales>
<clustering>
<clus scale="   31.180">  2  9  1 -1</clus>
<clus scale="   86.544">  7  8 -1 -1</clus>
<clus scale="   88.282">  2  7  1 -1</clus>
<clus scale="   90.559">  5  6 -1 -1</clus>
<clus scale="   31.180">  2  5  1 -1</clus>
</clustering>
</event>
<event>
 9    1  0.2423659E-006  0.9833963E+02  0.7546771E-02  0.1287139E+00
          2   -1    0    0  502    0  0.00000000000E+00  0.00000000000E+00  0.19785487433E+03  0.19785487433E+03  0.00000000000E+00 0. -1.
         -2   -1    0    0    0  501 -0.00000000000E+00 -0.00000000000E+00 -0.76214777072E+02  0.76214777072E+02  0.00000000000E+00 0.  1.
         23    2    1    2    0    0 -0.48001381905E+01  0.19305728739E+02 -0.49985554431E+01  0.91240537008E+02  0.88904991694E+02 0.  0.
         23    2    1    2    0    0 -0.11336163743E+02 -0.40265779485E+02  0.88783991980E+02  0.13664817346E+03  0.95080410558E+02 0.  0.
        -11    1    3    3    0    0 -0.21374748584E+02 -0.20575012894E+02  0.24883968761E+02  0.38722382854E+02  0.00000000000E+00 0. -1.
         11    1    3    3    0    0  0.16574610393E+02  0.39880741633E+02 -0.29882524204E+02  0.52518154154E+02  0.00000000000E+00 0.  1.
        -11    1    4    4    0    0  0.19892488869E+02  0.38925309663E+01 -0.11064090889E+02  0.23092791471E+02  0.00000000000E+00 0.  1.
         11    1    4    4    0    0 -0.31228652613E+02 -0.44158310451E+02  0.99848082869E+02  0.11355538199E+03  0.00000000000E+00 0. -1.
         21    1    1    2  502  501  0.16136301934E+02  0.20960050746E+02  0.37854660722E+02  0.46180940936E+02  0.00000000000E+00 0. -1.
<scales pt_clust_5="13000.00000" pt_clust_6="13000.00000" pt_clust_7="13000.00000" pt_clust_8="13000.00000" pt_clust_9="26.45192"></scales>
<clustering>
<clus scale="   26.452">  1  9  2 -1</clus>
<clus scale="   88.905">  5  6 -1 -1</clus>
<clus scale="   92.382">  2  5  1 -1</clus>
<clus scale="   95.080">  7  8 -1 -1</clus>
<clus scale="   26.452">  1  5  2 -1</clus>
</clustering>
</event>
<event>
 9    1  0.2423659E-006  0.1936821E+03  0.7546771E-02  0.1155290E+00
         -2   -1    0    0    0  501 -0.00000000000E+00  0.00000000000E+00  0.61287518864E+02  0.61287518864E+02  0.00000000000E+00 0.  1.
          2   -1    0    0  502    0  0.00000000000E+00 -0.00000000000E+00 -0.23233890835E+04  0.23233890835E+04  0.00000000000E+00 0. -1.
         23    2    1    2    0    0 -0.10558025001E+02  0.17308794456E+03 -0.18344416961E+03  0.26823684610E+03  0.90710163682E+02 0.  0.
         23    2    1    2    0    0 -0.13880548238E+03 -0.15499894384E+03 -0.90291621583E+03  0.93111111418E+03  0.91752818046E+02 0.  0.
        -11    1    3    3    0    0 -0.43589946105E+02  0.43682807002E+02 -0.49800109521E+02  0.79298940329E+02  0.00000000000E+00 0.  1.
         11    1    3    3    0    0  0.33031921104E+02  0.12940513756E+03 -0.13364406009E+03  0.18893790577E+03  0.00000000000E+00 0. -1.
        -11    1    4    4    0    0 -0.63675667768E+02 -0.11544580191E+02 -0.29317924901E+03  0.30023647355E+03  0.00000000000E+00 0. -1.
         11    1    4    4    0    0 -0.75129814615E+02 -0.14345436365E+03 -0.60973696681E+03  0.63087464063E+03  0.00000000000E+00 0.  1.
         21    1    1    2  502  501  0.14936350738E+03 -0.18089000716E+02 -0.11757411792E+04  0.11853286421E+04  0.00000000000E+00 0. -1.
<scales pt_clust_5="13000.00000" pt_clust_6="13000.00000" pt_clust_7="13000.00000" pt_clust_8="13000.00000" pt_clust_9="150.45487"></scales>
<clustering>
<clus scale="   90.710">  5  6 -1 -1</clus>
<clus scale="   91.753">  7  8 -1 -1</clus>
<clus scale="  150.455">  2  9  1 -1</clus>
<clus scale="  193.190">  1  5  2 -1</clus>
<clus scale="  150.455">  2  5  1 -1</clus>
</clustering>
</event>
<event>
 9    1  0.2423659E-006  0.9730324E+02  0.7546771E-02  0.1286585E+00
          3   -1    0    0  502    0  0.00000000000E+00  0.00000000000E+00  0.61704161285E+02  0.61704161285E+02  0.00000000000E+00 0. -1.
         -3   -1    0    0    0  501 -0.00000000000E+00 -0.00000000000E+00 -0.32461308378E+03  0.32461308378E+03  0.00000000000E+00 0.  1.
         23    2    1    2    0    0  0.13943137907E+02  0.42666867628E+02 -0.15491780561E+03  0.18564551773E+03  0.91923114994E+02 0.  0.
         23    2    1    2    0    0 -0.31003620181E+02 -0.46971038337E+00 -0.17661182748E+02  0.99522544757E+02  0.92905190634E+02 0.  0.
        -13    1    4    4    0    0 -0.36581294431E+01  0.30492059547E+02  0.25398231463E+02  0.39852449960E+02  0.00000000000E+00 0. -1.
         13    1    4    4    0    0 -0.27345490738E+02 -0.30961769930E+02 -0.43059414210E+02  0.59670094797E+02  0.00000000000E+00 0.  1.
        -13    1    3    3    0    0 -0.34769572204E+02  0.39362181403E+01 -0.30030795995E+02  0.46111448389E+02  0.00000000000E+00 0. -1.
         13    1    3    3    0    0  0.48712710111E+02  0.38730649488E+02 -0.12488700961E+03  0.13953406934E+03  0.00000000000E+00 0.  1.
         21    1    1    2  502  501  0.17060482275E+02 -0.42197157245E+02 -0.90329934144E+02  0.10114918258E+03  0.00000000000E+00 0.  1.
<scales pt_clust_5="13000.00000" pt_clust_6="13000.00000" pt_clust_7="13000.00000" pt_clust_8="13000.00000" pt_clust_9="45.51549"></scales>
<clustering>
<clus scale="   45.515">  2  9  1 -1</clus>
<clus scale="   91.923">  7  8 -1 -1</clus>
<clus scale="   92.905">  5  6 -1 -1</clus>
<clus scale="   96.366">  2  7  1 -1</clus>
<clus scale="   97.303">  1  5  2 -1</clus>
</clustering>
</event>
<event>
 9    1  0.2423659E-006  0.2099479E+03  0.7546771E-02  0.1170798E+00
         -1   -1    0    0    0  501 -0.00000000000E+00  0.00000000000E+00  0.59541358284E+02  0.59541358284E+02  0.00000000000E+00 0.  1.
          1   -1    0    0  502    0  0.00000000000E+00 -0.00000000000E+00 -0.13452152135E+04  0.13452152135E+04  0.00000000000E+00 0. -1.
         23    2    1    2    0    0  0.12640431921E+03  0.11950833759E+03 -0.81348558859E+03  0.83688511052E+03  0.91419859375E+02 0.  0.
         23    2    1    2    0    0 -0.28348854843E+02  0.49540972383E+02 -0.25263173688E+03  0.27393675246E+03  0.89222106868E+02 0.  0.
        -13    1    3    3    0    0  0.86750485499E+02  0.94499526393E+02 -0.72956899926E+03  0.74076091413E+03  0.00000000000E+00 0. -1.
         13    1    3    3    0    0  0.39653833715E+02  0.25008811196E+02 -0.83916589334E+02  0.96124196388E+02  0.00000000000E+00 0.  1.
        -13    1    4    4    0    0  0.20675866544E+02 -0.11340242076E+02 -0.31170678903E+02  0.39085851289E+02  0.00000000000E+00 0.  1.
         13    1    4    4    0    0 -0.49024721387E+02  0.60881214459E+02 -0.22146105797E+03  0.23485090117E+03  0.00000000000E+00 0. -1.
         21    1    1    2  502  501 -0.98055464370E+02 -0.16904930997E+03 -0.21955652979E+03  0.29393470885E+03  0.00000000000E+00 0.  1.
<scales pt_clust_5="13000.00000" pt_clust_6="13000.00000" pt_clust_7="13000.00000" pt_clust_8="13000.00000" pt_clust_9="188.99877"></scales>
<clustering>
<clus scale="   89.222">  7  8 -1 -1</clus>
<clus scale="   91.420">  5  6 -1 -1</clus>
<clus scale="  105.918">  2  7  1 -1</clus>
<clus scale="  188.999">  1  9  2 -1</clus>
<clus scale="  105.918">  2  5  1 -1</clus>
</clustering>
</event>
<event>
 9    1  0.3102964E-006  0.6534740E+03  0.7546771E-02  0.1019321E+00
         -1   -1    0    0    0  501 -0.00000000000E+00  0.00000000000E+00  0.52559084111E+03  0.52559084111E+03  0.00000000000E+00 0.  1.
          1   -1    0    0  502    0  0.00000000000E+00 -0.00000000000E+00 -0.22001302707E+04  0.22001302707E+04  0.00000000000E+00 0. -1.
         23    2    1    2    0    0 -0.52953515941E+03 -0.34165994763E+03  0.15801423108E+03  0.65626881123E+03  0.92635039286E+02 0.  0.
         23    2    1    2    0    0 -0.56376607621E+02 -0.14697478014E+03 -0.25922156976E+03  0.32090136789E+03  0.10489021786E+03 0.  0.
        -11    1    4    4    0    0 -0.49244892519E+01 -0.10551597029E+03 -0.22004066088E+03  0.24408146800E+03  0.00000000000E+00 0.  1.
         11    1    4    4    0    0 -0.51452118369E+02 -0.41458809852E+02 -0.39180908884E+02  0.76819899896E+02  0.00000000000E+00 0. -1.
        -13    1    3    3    0    0 -0.72089534777E+02 -0.14624599547E+02  0.62399182288E+01  0.73822195278E+02  0.00000000000E+00 0. -1.
         13    1    3    3    0    0 -0.45744562463E+03 -0.32703534808E+03  0.15177431286E+03  0.58244661595E+03  0.00000000000E+00 0.  1.
         21    1    1    2  502  501  0.58591176703E+03  0.48863472776E+03 -0.15733320909E+04  0.17485509327E+04  0.00000000000E+00 0. -1.
<scales pt_clust_5="13000.00000" pt_clust_6="13000.00000" pt_clust_7="13000.00000" pt_clust_8="13000.00000" pt_clust_9="646.87483"></scales>
<clustering>
<clus scale="   92.635">  7  8 -1 -1</clus>
<clus scale="  104.890">  5  6 -1 -1</clus>
<clus scale="  189.161">  2  5  1 -1</clus>
<clus scale="  646.875">  2  9  1 -1</clus>
<clus scale="  189.161">  2  5  1 -1</clus>
</clustering>
</event>
<event>
 9    1  0.2423659E-006  0.1779609E+03  0.7546771E-02  0.1187520E+00
          1   -1    0    0  502    0  0.00000000000E+00  0.00000000000E+00  0.48916049567E+03  0.48916049567E+03  0.00000000000E+00 0. -1.
         -1   -1    0    0    0  501 -0.00000000000E+00 -0.00000000000E+00 -0.20712256130E+03  0.20712256130E+03  0.00000000000E+00 0.  1.
         23    2    1    2    0    0  0.64055264772E+02 -0.82385452941E+02  0.10020809095E+03  0.17017335728E+03  0.89592802367E+02 0.  0.
         23    2    1    2    0    0  0.71437392732E+02 -0.22580499753E+02  0.29668333172E+03  0.31979092876E+03  0.92908873352E+02 0.  0.
        -11    1    4    4    0    0  0.42922059584E+02 -0.52936656278E+02  0.11752720546E+03  0.13585741349E+03  0.00000000000E+00 0.  1.
         11    1    4    4    0    0  0.28515333148E+02  0.30356156525E+02  0.17915612626E+03  0.18393351527E+03  0.00000000000E+00 0. -1.
        -13    1    3    3    0    0 -0.19770842679E+02 -0.18417595880E+02  0.41400978754E+02  0.49438194748E+02  0.00000000000E+00 0.  1.
         13    1    3    3    0    0  0.83826107451E+02 -0.63967857061E+02  0.58807112196E+02  0.12073516253E+03  0.00000000000E+00 0. -1.
         21    1    1    2  502  501 -0.13549265750E+03  0.10496595269E+03 -0.11485348830E+03  0.20631877093E+03  0.00000000000E+00 0.  1.
<scales pt_clust_5="13000.00000" pt_clust_6="13000.00000" pt_clust_7="13000.00000" pt_clust_8="13000.00000" pt_clust_9="153.76349"></scales>
<clustering>
<clus scale="   89.593">  7  8 -1 -1</clus>
<clus scale="   92.909">  5  6 -1 -1</clus>
<clus scale="  119.353">  1  5  2 -1</clus>
<clus scale="  153.763">  2  9  1 -1</clus>
<clus scale="  119.353">  1  5  2 -1</clus>
</clustering>
</event>
<event>
 9    1  0.2423659E-006  0.9865290E+02  0.7546771E-02  0.1284836E+00
          3   -1    0    0  502    0  0.00000000000E+00  0.00000000000E+00  0.52385901246E+03  0.52385901246E+03  0.00000000000E+00 0. -1.
         -3   -1    0    0    0  501 -0.00000000000E+00 -0.00000000000E+00 -0.24691995359E+02  0.24691995359E+02  0.00000000000E+00 0.  1.
         23    2    1    2    0    0  0.20925702096E+02  0.26981503257E+02  0.15120068277E+03  0.17817610440E+03  0.87858927747E+02 0.  0.
         23    2    1    2    0    0 -0.43383339554E+02 -0.18738945860E+02  0.29055629952E+03  0.30818006979E+03  0.91207071990E+02 0.  0.
        -11    1    4    4    0    0  0.15720507570E+02 -0.37466894671E+02  0.12144692566E+03  0.12806349326E+03  0.00000000000E+00 0.  1.
         11    1    4    4    0    0 -0.59103847125E+02  0.18727948811E+02  0.16910937386E+03  0.18011657653E+03  0.00000000000E+00 0. -1.
        -13    1    3    3    0    0  0.46183452257E+02 -0.10512239018E+01  0.41254000629E+02  0.61934714837E+02  0.00000000000E+00 0.  1.
         13    1    3    3    0    0 -0.25257750161E+02  0.28032727159E+02  0.10994668214E+03  0.11624138956E+03  0.00000000000E+00 0. -1.
         21    1    1    2  502  501  0.22457637459E+02 -0.82425573973E+01  0.57410034813E+02  0.62194833627E+02  0.00000000000E+00 0.  1.
<scales pt_clust_5="13000.00000" pt_clust_6="13000.00000" pt_clust_7="13000.00000" pt_clust_8="13000.00000" pt_clust_9="23.92248"></scales>
<clustering>
<clus scale="   23.922">  1  9  2 -1</clus>
<clus scale="   87.859">  7  8 -1 -1</clus>
<clus scale="   91.207">  5  6 -1 -1</clus>
<clus scale="   95.566">  2  7  1 -1</clus>
<clus scale="   23.922">  1  5  2 -1</clus>
</clustering>
</event>
<event>
 9    1  0.2423659E-006  0.1053059E+03  0.7546771E-02  0.1273017E+00
         -2   -1    0    0    0  501 -0.00000000000E+00  0.00000000000E+00  0.30597061924E+02  0.30597061924E+02  0.00000000000E+00 0.  1.
          2   -1    0    0  502    0  0.00000000000E+00 -0.00000000000E+00 -0.10700831439E+04  0.10700831439E+04  0.00000000000E+00 0. -1.
         23    2    1    2    0    0 -0.37174319340E+02 -0.67581798441E+00 -0.13959532005E+03  0.17243485422E+03  0.94151679871E+02 0.  0.
         23    2    1    2    0    0  0.47812558974E+02  0.83588558452E+02 -0.37378217885E+03  0.39553723653E+03  0.86391552585E+02 0.  0.
        -11    1    3    3    0    0  0.81468503120E+01 -0.32889135503E+02 -0.95922854273E+02  0.10173131463E+03  0.00000000000E+00 0. -1.
         11    1    3    3    0    0 -0.45321169652E+02  0.32213317518E+02 -0.43672465778E+02  0.70703539595E+02  0.00000000000E+00 0.  1.
        -13    1    4    4    0    0  0.29654355388E+02 -0.84950023927E+01 -0.53178488131E+02  0.61477617545E+02  0.00000000000E+00 0. -1.
         13    1    4    4    0    0  0.18158203586E+02  0.92083560844E+02 -0.32060369072E+03  0.33405961898E+03  0.00000000000E+00 0.  1.
         21    1    1    2  502  501 -0.10638239635E+02 -0.82912740467E+02 -0.52610858308E+03  0.53270811507E+03  0.00000000000E+00 0. -1.
<scales pt_clust_5="13000.00000" pt_clust_6="13000.00000" pt_clust_7="13000.00000" pt_clust_8="13000.00000" pt_clust_9="83.59243"></scales>
<clustering>
<clus scale="   83.592">  2  9  1 -1</clus>
<clus scale="   86.392">  7  8 -1 -1</clus>
<clus scale="   94.152">  5  6 -1 -1</clus>
<clus scale="   98.429">  2  7  1 -1</clus>
<clus scale="   83.592">  2  5  1 -1</clus>
</clustering>
</event>
<event>
 9    1  0.2423659E-006  0.1161191E+03  0.7546771E-02  0.1250808E+00
         -2   -1    0    0    0  501 -0.00000000000E+00  0.00000000000E+00  0.44868548616E+02  0.44868548616E+02  0.00000000000E+00 0.  1.
          2   -1    0    0  502    0  0.00000000000E+00 -0.00000000000E+00 -0.67922787405E+03  0.67922787405E+03  0.00000000000E+00 0. -1.
         23    2    1    2    0    0  0.15830169495E+02 -0.64887994865E+02 -0.78913861432E+02  0.13888296901E+03  0.92736375882E+02 0.  0.
         23    2    1    2    0    0 -0.66324757803E+02  0.60724804820E+02 -0.31631046295E+03  0.34077003621E+03  0.89361251074E+02 0.  0.
        -11    1    3    3    0    0 -0.99356730320E+01 -0.75411092395E+02 -0.80822503452E+02  0.11098570863E+03  0.00000000000E+00 0.  1.
         11    1    3    3    0    0  0.25765842527E+02  0.10523097530E+02  0.19086420201E+01  0.27897260387E+02  0.00000000000E+00 0. -1.
        -11    1    4    4    0    0 -0.94894582792E+01  0.24319965410E+02 -0.11413442524E+02  0.28491704165E+02  0.00000000000E+00 0.  1.
         11    1    4    4    0    0 -0.56835299524E+02  0.36404839411E+02 -0.30489702042E+03  0.31227833205E+03  0.00000000000E+00 0. -1.
         21    1    1    2  502  501  0.50494588308E+02  0.41631900448E+01 -0.23913500106E+03  0.24444341744E+03  0.00000000000E+00 0.  1.
<scales pt_clust_5="13000.00000" pt_clust_6="13000.00000" pt_clust_7="13000.00000" pt_clust_8="13000.00000" pt_clust_9="50.66592"></scales>
<clustering>
<clus scale="   50.666">  2  9  1 -1</clus>
<clus scale="   89.361">  7  8 -1 -1</clus>
<clus scale="   92.736">  5  6 -1 -1</clus>
<clus scale="  113.442">  2  7  1 -1</clus>
<clus scale="   50.666">  2  5  1 -1</clus>
</clustering>
</event>
<event>
 9    1  0.2423659E-006  0.9726046E+02  0.7546771E-02  0.1286363E+00
         -1   -1    0    0    0  501 -0.00000000000E+00  0.00000000000E+00  0.12263580077E+03  0.12263580077E+03  0.00000000000E+00 0.  1.
          1   -1    0    0  502    0  0.00000000000E+00 -0.00000000000E+00 -0.15757149170E+03  0.15757149170E+03  0.00000000000E+00 0. -1.
         23    2    1    2    0    0 -0.24740189365E+01 -0.53083298924E+02  0.14572683813E+02  0.10681715558E+03  0.91507290517E+02 0.  0.
         23    2    1    2    0    0 -0.36339339192E+02 -0.27896312460E+01 -0.29149404175E+02  0.10237782262E+03  0.91121902889E+02 0.  0.
        -11    1    3    3    0    0 -0.43984891347E+02 -0.42157947781E+02  0.18605900476E+02  0.63703553750E+02  0.00000000000E+00 0.  1.
         11    1    3    3    0    0  0.41510872410E+02 -0.10925351143E+02 -0.40332166620E+01  0.43113601827E+02  0.00000000000E+00 0. -1.
        -13    1    4    4    0    0 -0.40626765724E+02  0.36956526161E+02 -0.38233213423E+01  0.55053943593E+02  0.00000000000E+00 0. -1.
         13    1    4    4    0    0  0.42874265313E+01 -0.39746157407E+02 -0.25326082833E+02  0.47323879031E+02  0.00000000000E+00 0.  1.
         21    1    1    2  502  501  0.38813358129E+02  0.55872930170E+02 -0.20358970577E+02  0.71012314270E+02  0.00000000000E+00 0. -1.
<scales pt_clust_5="13000.00000" pt_clust_6="13000.00000" pt_clust_7="13000.00000" pt_clust_8="13000.00000" pt_clust_9="68.03132"></scales>
<clustering>
<clus scale="   68.031">  2  9  1 -1</clus>
<clus scale="   91.122">  7  8 -1 -1</clus>
<clus scale="   91.507">  5  6 -1 -1</clus>
<clus scale="   96.898">  2  7  1 -1</clus>
<clus scale="   68.031">  2  5  1 -1</clus>
</clustering>
</event>
<event>
 9    1  0.2423659E-006  0.1092552E+03  0.7546771E-02  0.1263424E+00
         -1   -1    0    0    0  501 -0.00000000000E+00  0.00000000000E+00  0.70898831724E+02  0.70898831724E+02  0.00000000000E+00 0.  1.
          1   -1    0    0  502    0  0.00000000000E+00 -0.00000000000E+00 -0.28688411918E+03  0.28688411918E+03  0.00000000000E+00 0. -1.
         23    2    1    2    0    0  0.69494813103E+02 -0.19112240579E+02 -0.98647110467E+02  0.15272434394E+03  0.91644236267E+02 0.  0.
         23    2    1    2    0    0 -0.37053244020E+02 -0.32214027205E+02 -0.80936241177E+02  0.13426353580E+03  0.95212055275E+02 0.  0.
        -11    1    3    3    0    0 -0.16987757837E+02  0.13608724809E+02 -0.78670705909E+01  0.23144591310E+02  0.00000000000E+00 0.  1.
         11    1    3    3    0    0  0.86482570940E+02 -0.32720965388E+02 -0.90780039876E+02  0.12957975263E+03  0.00000000000E+00 0. -1.
        -11    1    4    4    0    0  0.83864015947E+01 -0.36271575038E+02 -0.80443563277E+02  0.88640429603E+02  0.00000000000E+00 0. -1.
         11    1    4    4    0    0 -0.45439645614E+02  0.40575478336E+01 -0.49267790046E+00  0.45623106202E+02  0.00000000000E+00 0.  1.
         21    1    1    2  502  501 -0.32441569084E+02  0.51326267783E+02 -0.36401935808E+02  0.70795071155E+02  0.00000000000E+00 0.  1.
<scales pt_clust_5="13000.00000" pt_clust_6="13000.00000" pt_clust_7="13000.00000" pt_clust_8="13000.00000" pt_clust_9="60.71936"></scales>
<clustering>
<clus scale="   60.719">  1  9  2 -1</clus>
<clus scale="   91.644">  5  6 -1 -1</clus>
<clus scale="   95.212">  7  8 -1 -1</clus>
<clus scale="  106.160">  1  5  2 -1</clus>
<clus scale="  109.255">  2  5  1 -1</clus>
</clustering>
</event>
<event>
 9    1  0.2423659E-006  0.1535093E+03  0.7546771E-02  0.1215450E+00
         -1   -1    0    0    0  501 -0.00000000000E+00  0.00000000000E+00  0.42084337746E+03  0.42084337746E+03  0.00000000000E+00 0.  1.
          1   -1    0    0  502    0  0.00000000000E+00 -0.00000000000E+00 -0.11849071585E+03  0.11849071585E+03  0.00000000000E+00 0. -1.
         23    2    1    2    0    0  0.47379459186E+02  0.31067758060E+00  0.80464899223E+02  0.12954720231E+03  0.89794030677E+02 0.  0.
         23    2    1    2    0    0  0.81431298036E+02  0.75677591904E+02  0.57313597922E+01  0.14693708853E+03  0.95914051553E+02 0.  0.
        -11    1    3    3    0    0  0.43167247151E+02 -0.30390058167E+02  0.11628485650E+02  0.54057270931E+02  0.00000000000E+00 0. -1.
         11    1    3    3    0    0  0.42122120357E+01  0.30700735747E+02  0.68836413573E+02  0.75489931376E+02  0.00000000000E+00 0.  1.
        -13    1    4    4    0    0  0.56002058469E+02  0.32856705116E+02  0.48697638914E+02  0.81161897832E+02  0.00000000000E+00 0.  1.
         13    1    4    4    0    0  0.25429239567E+02  0.42820886788E+02 -0.42966279122E+02  0.65775190702E+02  0.00000000000E+00 0. -1.
         21    1    1    2  502  501 -0.12881075722E+03 -0.75988269484E+02  0.21615640259E+03  0.26284980247E+03  0.00000000000E+00 0.  1.
<scales pt_clust_5="13000.00000" pt_clust_6="13000.00000" pt_clust_7="13000.00000" pt_clust_8="13000.00000" pt_clust_9="119.85659"></scales>
<clustering>
<clus scale="   89.794">  5  6 -1 -1</clus>
<clus scale="   95.914">  7  8 -1 -1</clus>
<clus scale="  101.528">  1  5  2 -1</clus>
<clus scale="  119.857">  1  9  2 -1</clus>
<clus scale="  153.509">  2  5  1 -1</clus>
</clustering>
</event>
<event>
 9    1  0.2423659E-006  0.1031707E+03  0.7546771E-02  0.1274688E+00
          1   -1    0    0  502    0  0.00000000000E+00  0.00000000000E+00  0.34551731323E+03  0.34551731323E+03  0.00000000000E+00 0. -1.
         -1   -1    0    0    0  501 -0.00000000000E+00 -0.00000000000E+00 -0.33235105137E+03  0.33235105137E+03  0.00000000000E+00 0.  1.
         23    2    1    2    0    0  0.69295737628E+02  0.66627617766E+02  0.20084200874E+02  0.13314976185E+03  0.89912987131E+02 0.  0.
         23    2    1    2    0    0 -0.39393556150E+02 -0.83295242402E+01  0.25536002827E+03  0.27438077652E+03  0.91950167191E+02 0.  0.
        -11    1    4    4    0    0 -0.61229593575E+02  0.13688390085E+02  0.11886188483E+03  0.13440454910E+03  0.00000000000E+00 0. -1.
         11    1    4    4    0    0  0.21836037425E+02 -0.22017914325E+02  0.13649814344E+03  0.13997622743E+03  0.00000000000E+00 0.  1.
        -13    1    3    3    0    0  0.78423268215E+02  0.17170271381E+02  0.41291630374E+01  0.80387046247E+02  0.00000000000E+00 0.  1.
         13    1    3    3    0    0 -0.91275305876E+01  0.49457346384E+02  0.15955037836E+02  0.52762715608E+02  0.00000000000E+00 0. -1.
         21    1    1    2  502  501 -0.29902181478E+02 -0.58298093525E+02 -0.26227796729E+03  0.27033782623E+03  0.00000000000E+00 0.  1.
<scales pt_clust_5="13000.00000" pt_clust_6="13000.00000" pt_clust_7="13000.00000" pt_clust_8="13000.00000" pt_clust_9="65.51953"></scales>
<clustering>
<clus scale="   65.520">  2  9  1 -1</clus>
<clus scale="   89.913">  7  8 -1 -1</clus>
<clus scale="   91.950">  5  6 -1 -1</clus>
<clus scale="  101.359">  2  7  1 -1</clus>
<clus scale="  103.171">  1  5  2 -1</clus>
</clustering>
</event>
<event>
 9    1  0.2423659E-006  0.9670571E+02  0.7546771E-02  0.1287884E+00
          1   -1    0    0  502    0  0.00000000000E+00  0.00000000000E+00  0.35624765641E+02  0.35624765641E+02  0.00000000000E+00 0. -1.
         -1   -1    0    0    0  501 -0.00000000000E+00 -0.00000000000E+00 -0.38800907918E+03  0.38800907918E+03  0.00000000000E+00 0.  1.
         23    2    1    2    0    0 -0.10934580782E+02  0.13815363797E+02 -0.15092537126E+03  0.17735074816E+03  0.91457043730E+02 0.  0.
         23    2    1    2    0    0  0.47170394291E+02 -0.27965210285E+01 -0.14713594261E+03  0.18006046179E+03  0.92411674939E+02 0.  0.
        -13    1    4    4    0    0 -0.27205758819E+02 -0.10099278373E+02 -0.43376671777E+02  0.52188929775E+02  0.00000000000E+00 0. -1.
         13    1    4    4    0    0  0.74376153110E+02  0.73027573443E+01 -0.10375927083E+03  0.12787153201E+03  0.00000000000E+00 0.  1.
        -13    1    3    3    0    0 -0.43957389509E+02 -0.78470857269E+01 -0.11719474747E+03  0.12541306822E+03  0.00000000000E+00 0. -1.
         13    1    3    3    0    0  0.33022808727E+02  0.21662449524E+02 -0.33730623796E+02  0.51937679938E+02  0.00000000000E+00 0.  1.
         21    1    1    2  502  501 -0.36235813509E+02 -0.11018842768E+02 -0.54322999672E+02  0.66222634877E+02  0.00000000000E+00 0. -1.
<scales pt_clust_5="13000.00000" pt_clust_6="13000.00000" pt_clust_7="13000.00000" pt_clust_8="13000.00000" pt_clust_9="37.87412"></scales>
<clustering>
<clus scale="   37.874">  1  9  2 -1</clus>
<clus scale="   91.457">  7  8 -1 -1</clus>
<clus scale="   92.412">  5  6 -1 -1</clus>
<clus scale="   95.794">  2  7  1 -1</clus>
<clus scale="   37.874">  1  5  2 -1</clus>
</clustering>
</event>
<event>
 9    1  0.2423659E-006  0.9717823E+02  0.7546771E-02  0.1287820E+00
         -2   -1    0    0    0  501 -0.00000000000E+00  0.00000000000E+00  0.62474261920E+02  0.62474261920E+02  0.00000000000E+00 0.  1.
          2   -1    0    0  502    0  0.00000000000E+00 -0.00000000000E+00 -0.38078772371E+03  0.38078772371E+03  0.00000000000E+00 0. -1.
         23    2    1    2    0    0 -0.32583819419E+02 -0.11209378191E+02  0.43354205697E+01  0.98513724846E+02  0.92188950879E+02 0.  0.
         23    2    1    2    0    0  0.81020332599E+01  0.42850244406E+00 -0.28323539824E+03  0.29711415676E+03  0.89379554575E+02 0.  0.
        -11    1    3    3    0    0 -0.27472964242E+02 -0.50524845196E+02 -0.51727810974E+01  0.57743236925E+02  0.00000000000E+00 0.  1.
         11    1    3    3    0    0 -0.51108551776E+01  0.39315467004E+02  0.95082016671E+01  0.40770487922E+02  0.00000000000E+00 0. -1.
        -13    1    4    4    0    0 -0.27480356708E+02  0.19974234330E+02 -0.50494956440E+02  0.60859515836E+02  0.00000000000E+00 0.  1.
         13    1    4    4    0    0  0.35582389968E+02 -0.19545731886E+02 -0.23274044180E+03  0.23625464092E+03  0.00000000000E+00 0. -1.
         21    1    1    2  502  501  0.24481786159E+02  0.10780875747E+02 -0.39413484126E+02  0.47634104026E+02  0.00000000000E+00 0.  1.
<scales pt_clust_5="13000.00000" pt_clust_6="13000.00000" pt_clust_7="13000.00000" pt_clust_8="13000.00000" pt_clust_9="26.75042"></scales>
<clustering>
<clus scale="   26.750">  2  9  1 -1</clus>
<clus scale="   89.380">  7  8 -1 -1</clus>
<clus scale="   92.189">  5  6 -1 -1</clus>
<clus scale="   94.517">  2  7  1 -1</clus>
<clus scale="   26.750">  2  5  1 -1</clus>
</clustering>
</event>
<event>
 9    1  0.2423659E-006  0.9623736E+02  0.7546771E-02  0.1291647E+00
         -4   -1    0    0    0  501 -0.00000000000E+00  0.00000000000E+00  0.97619552709E+02  0.97619552709E+02  0.00000000000E+00 0.  1.
          4   -1    0    0  502    0  0.00000000000E+00 -0.00000000000E+00 -0.19171532552E+03  0.19171532552E+03  0.00000000000E+00 0. -1.
         23    2    1    2    0    0  0.18990700319E+02  0.21358048309E+01  0.31205473353E+02  0.96243975389E+02  0.89016362938E+02 0.  0.
         23    2    1    2    0    0 -0.29816588327E+01  0.36309394448E+02 -0.67767540437E+02  0.12206661086E+03  0.94765793062E+02 0.  0.
        -11    1    3    3    0    0  0.24036504550E+02  0.41757124653E+02  0.49248908087E+01  0.48432071603E+02  0.00000000000E+00 0.  1.
         11    1    3    3    0    0 -0.50458042311E+01 -0.39621319822E+02  0.26280582544E+02  0.47811903786E+02  0.00000000000E+00 0. -1.
        -13    1    4    4    0    0 -0.18013456078E+02  0.63846123676E+02 -0.60677330330E+02  0.89903006203E+02  0.00000000000E+00 0.  1.
         13    1    4    4    0    0  0.15031797246E+02 -0.27536729228E+02 -0.70902101069E+01  0.32163604654E+02  0.00000000000E+00 0. -1.
         21    1    1    2  502  501 -0.16009041486E+02 -0.38445199279E+02 -0.57533705724E+02  0.71024291980E+02  0.00000000000E+00 0.  1.
<scales pt_clust_5="13000.00000" pt_clust_6="13000.00000" pt_clust_7="13000.00000" pt_clust_8="13000.00000" pt_clust_9="41.64520"></scales>
<clustering>
<clus scale="   41.645">  2  9  1 -1</clus>
<clus scale="   89.016">  5  6 -1 -1</clus>
<clus scale="   90.581">  1  5  2 -1</clus>
<clus scale="   94.766">  7  8 -1 -1</clus>
<clus scale="   41.645">  2  5  1 -1</clus>
</clustering>
</event>
<event>
 9    1  0.2423659E-006  0.9173409E+02  0.7546771E-02  0.1301040E+00
          1   -1    0    0  502    0  0.00000000000E+00  0.00000000000E+00  0.12192120226E+03  0.12192120226E+03  0.00000000000E+00 0. -1.
         -1   -1    0    0    0  501 -0.00000000000E+00 -0.00000000000E+00 -0.44737974849E+03  0.44737974849E+03  0.00000000000E+00 0.  1.
         23    2    1    2    0    0  0.92460302883E+01 -0.30008534807E+02 -0.38510266504E+03  0.39706673197E+03  0.91498228281E+02 0.  0.
         23    2    1    2    0    0 -0.38203128741E+01  0.40802638741E+01  0.94147072738E+02  0.12873516738E+03  0.87623219935E+02 0.  0.
        -11    1    3    3    0    0  0.38760019393E+01  0.32453004636E+02 -0.16520672531E+03  0.16840867848E+03  0.00000000000E+00 0. -1.
         11    1    3    3    0    0  0.53700283490E+01 -0.62461539443E+02 -0.21989593973E+03  0.22865805349E+03  0.00000000000E+00 0.  1.
        -11    1    4    4    0    0  0.60103345673E+01  0.29690165514E+02 -0.39373429390E+00  0.30294967842E+02  0.00000000000E+00 0.  1.
         11    1    4    4    0    0 -0.98306474413E+01 -0.25609901640E+02  0.94540807031E+02  0.98440199539E+02  0.00000000000E+00 0. -1.
         21    1    1    2  502  501 -0.54257174143E+01  0.25928270933E+02 -0.34502953931E+02  0.43499051403E+02  0.00000000000E+00 0. -1.
<scales pt_clust_5="13000.00000" pt_clust_6="13000.00000" pt_clust_7="13000.00000" pt_clust_8="13000.00000" pt_clust_9="26.48988"></scales>
<clustering>
<clus scale="   26.490">  2  9  1 -1</clus>
<clus scale="   87.623">  7  8 -1 -1</clus>
<clus scale="   87.869">  1  7  2 -1</clus>
<clus scale="   91.498">  5  6 -1 -1</clus>
<clus scale="   87.869">  1  5  2 -1</clus>
</clustering>
</event>
<event>
 9    1  0.2423659E-006  0.1379987E+03  0.7546771E-02  0.1216378E+00
         -2   -1    0    0    0  501 -0.00000000000E+00  0.00000000000E+00  0.25108109255E+02  0.25108109255E+02  0.00000000000E+00 0.  1.
          2   -1    0    0  502    0  0.00000000000E+00 -0.00000000000E+00 -0.11876009314E+04  0.11876009314E+04  0.00000000000E+00 0. -1.
         23    2    1    2    0    0 -0.49309113627E+02  0.91382861133E+02 -0.44725597372E+03  0.46774123744E+03  0.89228600647E+02 0.  0.
         23    2    1    2    0    0  0.31039530814E+02 -0.10020115324E+03 -0.71080182902E+03  0.72420222285E+03  0.90696724658E+02 0.  0.
        -13    1    3    3    0    0 -0.20002333667E+02  0.95129695145E+02 -0.40279064976E+03  0.41435499247E+03  0.00000000000E+00 0. -1.
         13    1    3    3    0    0 -0.29306779960E+02 -0.37468340120E+01 -0.44465323968E+02  0.53386244973E+02  0.00000000000E+00 0.  1.
        -13    1    4    4    0    0 -0.31471692128E+02 -0.24967478880E+02 -0.17574282727E+03  0.18027585458E+03  0.00000000000E+00 0.  1.
         13    1    4    4    0    0  0.62511222942E+02 -0.75233674355E+02 -0.53505900174E+03  0.54392636827E+03  0.00000000000E+00 0. -1.
         21    1    1    2  502  501  0.18269582813E+02  0.88182921027E+01 -0.44350194328E+01  0.20765580395E+02  0.00000000000E+00 0.  1.
<scales pt_clust_5="13000.00000" pt_clust_6="13000.00000" pt_clust_7="13000.00000" pt_clust_8="13000.00000" pt_clust_9="20.28645"></scales>
<clustering>
<clus scale="   20.286">  1  9  2 -1</clus>
<clus scale="   89.229">  5  6 -1 -1</clus>
<clus scale="   90.697">  7  8 -1 -1</clus>
<clus scale="  137.038">  1  5  2 -1</clus>
<clus scale="  137.999">  2  5  1 -1</clus>
</clustering>
</event>
<event>
 9    1  0.2423659E-006  0.1165609E+03  0.7546771E-02  0.1253088E+00
         -2   -1    0    0    0  501 -0.00000000000E+00  0.00000000000E+00  0.18770860660E+03  0.18770860660E+03  0.00000000000E+00 0.  1.
          2   -1    0    0  502    0  0.00000000000E+00 -0.00000000000E+00 -0.26118228991E+03  0.26118228991E+03  0.00000000000E+00 0. -1.
         23    2    1    2    0    0  0.64769151369E+02 -0.87954236768E+01  0.11035241586E+03  0.15695963321E+03  0.90477999110E+02 0.  0.
         23    2    1    2    0    0  0.54605297135E+02  0.15730988802E+02 -0.84419015901E+02  0.13643165166E+03  0.90872563757E+02 0.  0.
        -11    1    4    4    0    0 -0.22649318691E+01  0.42438962072E+02 -0.21954572248E+02  0.47835119533E+02  0.00000000000E+00 0. -1.
         11    1    4    4    0    0  0.56870229005E+02 -0.26707973270E+02 -0.62464443653E+02  0.88596532123E+02  0.00000000000E+00 0.  1.
        -13    1    3    3    0    0  0.13884460063E+02  0.22346653143E+02 -0.52902962510E+01  0.26835394023E+02  0.00000000000E+00 0. -1.
         13    1    3    3    0    0  0.50884691306E+02 -0.31142076820E+02  0.11564271212E+03  0.13012423918E+03  0.00000000000E+00 0.  1.
         21    1    1    2  502  501 -0.11937444850E+03 -0.69355651252E+01 -0.99407083268E+02  0.15549961165E+03  0.00000000000E+00 0. -1.
<scales pt_clust_5="13000.00000" pt_clust_6="13000.00000" pt_clust_7="13000.00000" pt_clust_8="13000.00000" pt_clust_9="73.48596"></scales>
<clustering>
<clus scale="   90.478">  7  8 -1 -1</clus>
<clus scale="   90.873">  5  6 -1 -1</clus>
<clus scale="  107.178">  2  5  1 -1</clus>
<clus scale="   73.486">  2  9  1 -1</clus>
<clus scale="  107.178">  2  5  1 -1</clus>
</clustering>
</event>
<event>
 9    1  0.2423659E-006  0.1410200E+03  0.7546771E-02  0.1230891E+00
         -1   -1    0    0    0  501 -0.00000000000E+00  0.00000000000E+00  0.60088242088E+03  0.60088242088E+03  0.00000000000E+00 0.  1.
          1   -1    0    0  502    0  0.00000000000E+00 -0.00000000000E+00 -0.71237531766E+02  0.71237531766E+02  0.00000000000E+00 0. -1.
         23    2    1    2    0    0 -0.35436035960E+02 -0.88845459561E+02  0.13487801317E+03  0.18611368350E+03  0.85422458531E+02 0.  0.
         23    2    1    2    0    0 -0.42544677975E+00 -0.23821469365E+02  0.25435157354E+02  0.98210187193E+02  0.91818572366E+02 0.  0.
        -13    1    3    3    0    0 -0.53092104737E+02 -0.72855424957E+02  0.13495311232E+03  0.16229302837E+03  0.00000000000E+00 0.  1.
         13    1    3    3    0    0  0.17656068777E+02 -0.15990034604E+02 -0.75099152140E-01  0.23820655137E+02  0.00000000000E+00 0. -1.
        -13    1    4    4    0    0  0.34259302271E+02 -0.16157959568E+02  0.44058658257E+02  0.58102881313E+02  0.00000000000E+00 0. -1.
         13    1    4    4    0    0 -0.34684749050E+02 -0.76635097970E+01 -0.18623500903E+02  0.40107305880E+02  0.00000000000E+00 0.  1.
         21    1    1    2  502  501  0.35861482740E+02  0.11266692893E+03  0.36933171859E+03  0.38779608195E+03  0.00000000000E+00 0.  1.
<scales pt_clust_5="13000.00000" pt_clust_6="13000.00000" pt_clust_7="13000.00000" pt_clust_8="13000.00000" pt_clust_9="112.20359"></scales>
<clustering>
<clus scale="   85.422">  5  6 -1 -1</clus>
<clus scale="   91.819">  7  8 -1 -1</clus>
<clus scale="   94.859">  2  7  1 -1</clus>
<clus scale="  112.204">  1  9  2 -1</clus>
<clus scale="   94.859">  2  5  1 -1</clus>
</clustering>
</event>
<event>
 9    1  0.2423659E-006  0.1000023E+03  0.7546771E-02  0.1280294E+00
          2   -1    0    0  502    0  0.00000000000E+00  0.00000000000E+00  0.32274484907E+03  0.32274484907E+03  0.00000000000E+00 0. -1.
         -2   -1    0    0    0  501 -0.00000000000E+00 -0.00000000000E+00 -0.13183503761E+03  0.13183503761E+03  0.00000000000E+00 0.  1.
         23    2    1    2    0    0 -0.63093165996E+02 -0.40341249773E+02  0.13847221615E+02  0.11982731566E+03  0.92513112601E+02 0.  0.
         23    2    1    2    0    0 -0.80038119223E+01  0.37271132147E+02  0.22682796986E+03  0.24791479732E+03  0.92507407948E+02 0.  0.
        -11    1    3    3    0    0 -0.21133927500E+02 -0.10470923937E+02 -0.39289454971E+02  0.45825150426E+02  0.00000000000E+00 0.  1.
         11    1    3    3    0    0 -0.41959238496E+02 -0.29870325836E+02  0.53136676585E+02  0.74002165234E+02  0.00000000000E+00 0. -1.
        -13    1    4    4    0    0  0.21957067586E+02 -0.17490583312E+02  0.28533827211E+02  0.40027648156E+02  0.00000000000E+00 0.  1.
         13    1    4    4    0    0 -0.29960879509E+02  0.54761715459E+02  0.19829414265E+03  0.20788714917E+03  0.00000000000E+00 0. -1.
         21    1    1    2  502  501  0.71096977918E+02  0.30701176261E+01 -0.49765380015E+02  0.86837773690E+02  0.00000000000E+00 0.  1.
<scales pt_clust_5="13000.00000" pt_clust_6="13000.00000" pt_clust_7="13000.00000" pt_clust_8="13000.00000" pt_clust_9="71.16323"></scales>
<clustering>
<clus scale="   71.163">  2  9  1 -1</clus>
<clus scale="   92.507">  7  8 -1 -1</clus>
<clus scale="   92.513">  5  6 -1 -1</clus>
<clus scale="   99.997">  1  7  2 -1</clus>
<clus scale="   99.997">  1  5  2 -1</clus>
</clustering>
</event>
<event>
 9    1  0.2423659E-006  0.1870360E+03  0.7546771E-02  0.1182646E+00
         -2   -1    0    0    0  501 -0.00000000000E+00  0.00000000000E+00  0.30901073227E+03  0.30901073227E+03  0.00000000000E+00 0.  1.
          2   -1    0    0  502    0  0.00000000000E+00 -0.00000000000E+00 -0.37697137809E+03  0.37697137809E+03  0.00000000000E+00 0. -1.
         23    2    1    2    0    0  0.40524242103E+01  0.71672677005E+02  0.97361233234E+02  0.15037693309E+03  0.89334301902E+02 0.  0.
         23    2    1    2    0    0  0.56455161065E+02  0.13965290050E+03 -0.24413817284E+03  0.30208499453E+03  0.94666671262E+02 0.  0.
        -13    1    4    4    0    0  0.15828692111E+02  0.10261329317E+03 -0.86509305752E+02  0.13514398030E+03  0.00000000000E+00 0.  1.
         13    1    4    4    0    0  0.40626468954E+02  0.37039607337E+02 -0.15762886709E+03  0.16694101423E+03  0.00000000000E+00 0. -1.
        -13    1    3    3    0    0  0.40496972101E+02  0.63509295916E+02  0.51561677509E+02  0.91280019745E+02  0.00000000000E+00 0.  1.
         13    1    3    3    0    0 -0.36444547891E+02  0.81633810889E+01  0.45799555725E+02  0.59096913341E+02  0.00000000000E+00 0. -1.
         21    1    1    2  502  501 -0.60507585275E+02 -0.21132557751E+03  0.78816293788E+02  0.23352018275E+03  0.00000000000E+00 0.  1.
<scales pt_clust_5="13000.00000" pt_clust_6="13000.00000" pt_clust_7="13000.00000" pt_clust_8="13000.00000" pt_clust_9="161.30934"></scales>
<clustering>
<clus scale="   89.334">  7  8 -1 -1</clus>
<clus scale="   94.667">  5  6 -1 -1</clus>
<clus scale="  114.604">  1  7  2 -1</clus>
<clus scale="  161.309">  1  9  2 -1</clus>
<clus scale="  187.036">  2  5  1 -1</clus>
</clustering>
</event>
<event>
 9    1  0.2423659E-006  0.1650148E+03  0.7546771E-02  0.1201491E+00
          1   -1    0    0  502    0  0.00000000000E+00  0.00000000000E+00  0.67826642302E+03  0.67826642302E+03  0.00000000000E+00 0. -1.
         -1   -1    0    0    0  501 -0.00000000000E+00 -0.00000000000E+00 -0.92221033655E+02  0.92221033655E+02  0.00000000000E+00 0.  1.
         23    2    1    2    0    0 -0.32552261846E+02  0.52507820051E+02  0.83113508822E+01  0.11051955262E+03  0.91262106269E+02 0.  0.
         23    2    1    2    0    0 -0.53570424651E+02 -0.15079677485E+03  0.28104717101E+03  0.33577516339E+03  0.90266219121E+02 0.  0.
        -11    1    3    3    0    0 -0.11871547014E+02  0.64877579107E+02  0.34913449384E+02  0.74625617901E+02  0.00000000000E+00 0. -1.
         11    1    3    3    0    0 -0.20680714833E+02 -0.12369759056E+02 -0.26602098502E+02  0.35893934721E+02  0.00000000000E+00 0.  1.
        -13    1    4    4    0    0 -0.47164220490E+02 -0.39570735524E+02  0.50154929779E+02  0.79409217257E+02  0.00000000000E+00 0.  1.
         13    1    4    4    0    0 -0.64062041617E+01 -0.11122603933E+03  0.23089224123E+03  0.25636594613E+03  0.00000000000E+00 0. -1.
         21    1    1    2  502  501  0.86122686498E+02  0.98288954803E+02  0.29668686747E+03  0.32419274066E+03  0.00000000000E+00 0.  1.
<scales pt_clust_5="13000.00000" pt_clust_6="13000.00000" pt_clust_7="13000.00000" pt_clust_8="13000.00000" pt_clust_9="138.13727"></scales>
<clustering>
<clus scale="   90.266">  7  8 -1 -1</clus>
<clus scale="   91.262">  5  6 -1 -1</clus>
<clus scale="  110.207">  2  5  1 -1</clus>
<clus scale="  138.137">  1  9  2 -1</clus>
<clus scale="  138.137">  1  5  2 -1</clus>
</clustering>
</event>
<event>
 9    1  0.2423659E-006  0.9583155E+02  0.7546771E-02  0.1292091E+00
          1   -1    0    0  502    0  0.00000000000E+00  0.00000000000E+00  0.32667227288E+03  0.32667227288E+03  0.00000000000E+00 0. -1.
         -1   -1    0    0    0  501 -0.00000000000E+00 -0.00000000000E+00 -0.96733057391E+02  0.96733057391E+02  0.00000000000E+00 0.  1.
         23    2    1    2    0    0  0.53588345015E+01  0.25171832773E+02 -0.10268946495E+02  0.97154311390E+02  0.93119120953E+02 0.  0.
         23    2    1    2    0    0 -0.29781848606E+02 -0.39675748497E+01  0.98338573733E+01  0.93617348926E+02  0.88118120228E+02 0.  0.
        -11    1    4    4    0    0 -0.31375850258E+02 -0.43136256357E+02  0.10717450045E+02  0.54406289410E+02  0.00000000000E+00 0.  1.
         11    1    4    4    0    0  0.15940016520E+01  0.39168681508E+02 -0.88359267197E+00  0.39211059516E+02  0.00000000000E+00 0. -1.
        -13    1    3    3    0    0 -0.27453220638E+02 -0.15098967610E+02  0.19867516866E+02  0.37099546800E+02  0.00000000000E+00 0.  1.
         13    1    3    3    0    0  0.32812055140E+02  0.40270800383E+02 -0.30136463362E+02  0.60054764590E+02  0.00000000000E+00 0. -1.
         21    1    1    2  502  501  0.24423014104E+02 -0.21204257924E+02  0.23037430461E+03  0.23263366995E+03  0.00000000000E+00 0. -1.
<scales pt_clust_5="13000.00000" pt_clust_6="13000.00000" pt_clust_7="13000.00000" pt_clust_8="13000.00000" pt_clust_9="32.34353"></scales>
<clustering>
<clus scale="   32.344">  1  9  2 -1</clus>
<clus scale="   88.118">  5  6 -1 -1</clus>
<clus scale="   90.980">  1  5  2 -1</clus>
<clus scale="   93.119">  7  8 -1 -1</clus>
<clus scale="   32.344">  1  5  2 -1</clus>
</clustering>
</event>
<event>
 9    1  0.2423659E-006  0.3193387E+03  0.7546771E-02  0.1119556E+00
         -2   -1    0    0    0  501 -0.00000000000E+00  0.00000000000E+00  0.70221987618E+03  0.70221987618E+03  0.00000000000E+00 0.  1.
          2   -1    0    0  502    0  0.00000000000E+00 -0.00000000000E+00 -0.30228812394E+03  0.30228812394E+03  0.00000000000E+00 0. -1.
         23    2    1    2    0    0  0.17411821303E+03 -0.23355337046E+03 -0.66095298079E+02  0.31229311526E+03  0.91071798334E+02 0.  0.
         23    2    1    2    0    0 -0.34442847868E+02 -0.43645091931E+02 -0.30253123655E+02  0.10685840692E+03  0.86094505164E+02 0.  0.
        -11    1    4    4    0    0 -0.57955622314E+02 -0.26391938939E+02  0.15594194398E+01  0.63701023444E+02  0.00000000000E+00 0. -1.
         11    1    4    4    0    0  0.23512774446E+02 -0.17253152992E+02 -0.31812543095E+02  0.43157383476E+02  0.00000000000E+00 0.  1.
        -13    1    3    3    0    0  0.15256517765E+02 -0.28281639210E+02  0.21137122871E+02  0.38462844591E+02  0.00000000000E+00 0.  1.
         13    1    3    3    0    0  0.15886169527E+03 -0.20527173125E+03 -0.87232420950E+02  0.27383027067E+03  0.00000000000E+00 0. -1.
         21    1    1    2  502  501 -0.13967536516E+03  0.27719846239E+03  0.49628017398E+03  0.58535647794E+03  0.00000000000E+00 0.  1.
<scales pt_clust_5="13000.00000" pt_clust_6="13000.00000" pt_clust_7="13000.00000" pt_clust_8="13000.00000" pt_clust_9="306.07700"></scales>
<clustering>
<clus scale="   86.095">  5  6 -1 -1</clus>
<clus scale="   91.072">  7  8 -1 -1</clus>
<clus scale="  102.486">  2  5  1 -1</clus>
<clus scale="  306.077">  1  9  2 -1</clus>
<clus scale="  102.486">  2  5  1 -1</clus>
</clustering>
</event>
<event>
 9    1  0.2423659E-006  0.1720833E+03  0.7546771E-02  0.1175812E+00
          2   -1    0    0  502    0  0.00000000000E+00  0.00000000000E+00  0.91694757936E+03  0.91694757936E+03  0.00000000000E+00 0. -1.
         -2   -1    0    0    0  501 -0.00000000000E+00 -0.00000000000E+00 -0.92205441756E+02  0.92205441756E+02  0.00000000000E+00 0.  1.
         23    2    1    2    0    0 -0.57968158698E+02 -0.55050703383E+02  0.46175839811E+02  0.13013260818E+03  0.91713685803E+02 0.  0.
         23    2    1    2    0    0  0.86007104915E+02  0.13950825766E+03  0.76667229871E+03  0.78923885473E+03  0.90839309537E+02 0.  0.
        -13    1    3    3    0    0 -0.29951338700E+02  0.21675246185E+02  0.28194936909E+02  0.46495735874E+02  0.00000000000E+00 0.  1.
         13    1    3    3    0    0 -0.28016819997E+02 -0.76725949568E+02  0.17980902902E+02  0.83636872305E+02  0.00000000000E+00 0. -1.
        -13    1    4    4    0    0  0.67324842826E+02  0.12439763061E+03  0.73975676750E+03  0.75315833663E+03  0.00000000000E+00 0. -1.
         13    1    4    4    0    0  0.18682262089E+02  0.15110627048E+02  0.26915531207E+02  0.36080518105E+02  0.00000000000E+00 0.  1.
         21    1    1    2  502  501 -0.28038946218E+02 -0.84457554275E+02  0.11893999080E+02  0.89781558203E+02  0.00000000000E+00 0. -1.
<scales pt_clust_5="13000.00000" pt_clust_6="13000.00000" pt_clust_7="13000.00000" pt_clust_8="13000.00000" pt_clust_9="88.99023"></scales>
<clustering>
<clus scale="   88.990">  2  9  1 -1</clus>
<clus scale="   90.839">  7  8 -1 -1</clus>
<clus scale="   91.714">  5  6 -1 -1</clus>
<clus scale="  171.619">  1  7  2 -1</clus>
<clus scale="  171.619">  1  5  2 -1</clus>
</clustering>
</event>
<event>
 9    1  0.2423659E-006  0.1266877E+03  0.7546771E-02  0.1232664E+00
          2   -1    0    0  502    0  0.00000000000E+00  0.00000000000E+00  0.53329728493E+03  0.53329728493E+03  0.00000000000E+00 0. -1.
         -2   -1    0    0    0  501 -0.00000000000E+00 -0.00000000000E+00 -0.76432456306E+02  0.76432456306E+02  0.00000000000E+00 0.  1.
         23    2    1    2    0    0 -0.12109926559E+03  0.99091723004E+01  0.16470358850E+03  0.22428741689E+03  0.91729763383E+02 0.  0.
         23    2    1    2    0    0  0.63152090152E+02  0.52027429452E+02  0.27200914116E+03  0.29826362930E+03  0.90979007345E+02 0.  0.
        -11    1    3    3    0    0 -0.86760092012E+02  0.29564714467E+02  0.16006333587E+03  0.18444960666E+03  0.00000000000E+00 0. -1.
         11    1    3    3    0    0 -0.34339173578E+02 -0.19655542167E+02  0.46402526314E+01  0.39837810235E+02  0.00000000000E+00 0.  1.
        -13    1    4    4    0    0  0.13038164653E+02  0.62256905776E+02  0.20048376601E+03  0.21033225261E+03  0.00000000000E+00 0. -1.
         13    1    4    4    0    0  0.50113925499E+02 -0.10229476325E+02  0.71525375153E+02  0.87931376685E+02  0.00000000000E+00 0.  1.
         21    1    1    2  502  501  0.57947175438E+02 -0.61936601752E+02  0.20152098962E+02  0.87178695048E+02  0.00000000000E+00 0.  1.
<scales pt_clust_5="13000.00000" pt_clust_6="13000.00000" pt_clust_7="13000.00000" pt_clust_8="13000.00000" pt_clust_9="84.81756"></scales>
<clustering>
<clus scale="   84.818">  2  9  1 -1</clus>
<clus scale="   90.979">  7  8 -1 -1</clus>
<clus scale="   91.730">  5  6 -1 -1</clus>
<clus scale="  126.145">  1  7  2 -1</clus>
<clus scale="  126.145">  1  5  2 -1</clus>
</clustering>
</event>
<event>
 9    1  0.2423659E-006  0.1627822E+03  0.7546771E-02  0.1185924E+00
         -1   -1    0    0    0  501 -0.00000000000E+00  0.00000000000E+00  0.45398645619E+02  0.45398645619E+02  0.00000000000E+00 0.  1.
          1   -1    0    0  502    0  0.00000000000E+00 -0.00000000000E+00 -0.10578752660E+04  0.10578752660E+04  0.00000000000E+00 0. -1.
         23    2    1    2    0    0 -0.33402448586E+02  0.15520987810E+03 -0.30762094924E+03  0.35810580588E+03  0.91669460342E+02 0.  0.
         23    2    1    2    0    0 -0.35210402131E+02 -0.12453585527E+03 -0.56368558061E+03  0.58523807911E+03  0.89516611789E+02 0.  0.
        -11    1    3    3    0    0 -0.21872281774E+02  0.48903941029E+02 -0.19739732187E+03  0.20453775896E+03  0.00000000000E+00 0.  1.
         11    1    3    3    0    0 -0.11530166811E+02  0.10630593707E+03 -0.11022362737E+03  0.15356804691E+03  0.00000000000E+00 0. -1.
        -11    1    4    4    0    0 -0.18016133804E+02 -0.13521193738E+03 -0.50774513118E+03  0.52574895846E+03  0.00000000000E+00 0. -1.
         11    1    4    4    0    0 -0.17194268328E+02  0.10676082118E+02 -0.55940449429E+02  0.59489120644E+02  0.00000000000E+00 0.  1.
         21    1    1    2  502  501  0.68612850717E+02 -0.30674022833E+02 -0.14117009056E+03  0.15993002667E+03  0.00000000000E+00 0.  1.
<scales pt_clust_5="13000.00000" pt_clust_6="13000.00000" pt_clust_7="13000.00000" pt_clust_8="13000.00000" pt_clust_9="75.15729"></scales>
<clustering>
<clus scale="   75.157">  1  9  2 -1</clus>
<clus scale="   89.517">  7  8 -1 -1</clus>
<clus scale="   91.669">  5  6 -1 -1</clus>
<clus scale="  161.580">  2  7  1 -1</clus>
<clus scale="  161.580">  2  5  1 -1</clus>
</clustering>
</event>
<event>
 9    1  0.2423659E-006  0.1850124E+03  0.7546771E-02  0.1163450E+00
         -1   -1    0    0    0  501 -0.00000000000E+00  0.00000000000E+00  0.11531572478E+03  0.11531572478E+03  0.00000000000E+00 0.  1.
          1   -1    0    0  502    0  0.00000000000E+00 -0.00000000000E+00 -0.59968982977E+03  0.59968982977E+03  0.00000000000E+00 0. -1.
         23    2    1    2    0    0 -0.11070299127E+03  0.71132619892E+02 -0.92980504986E+02  0.18655675186E+03  0.94037468425E+02 0.  0.
         23    2    1    2    0    0  0.13983667759E+03 -0.99755318271E+02 -0.43027598982E+03  0.47205845973E+03  0.90533651542E+02 0.  0.
        -11    1    3    3    0    0 -0.13420842772E+02  0.43925283051E+02 -0.68742305957E+02  0.82674386239E+02  0.00000000000E+00 0. -1.
         11    1    3    3    0    0 -0.97282148498E+02  0.27207336842E+02 -0.24238199029E+02  0.10388236562E+03  0.00000000000E+00 0.  1.
        -11    1    4    4    0    0  0.79097501748E+02 -0.13914365264E+02 -0.11955505926E+03  0.14402581900E+03  0.00000000000E+00 0. -1.
         11    1    4    4    0    0  0.60739175840E+02 -0.85840953007E+02 -0.31072093056E+03  0.32803264073E+03  0.00000000000E+00 0.  1.
         21    1    1    2  502  501 -0.29133686318E+02  0.28622698379E+02  0.38882389826E+02  0.56390342964E+02  0.00000000000E+00 0. -1.
<scales pt_clust_5="13000.00000" pt_clust_6="13000.00000" pt_clust_7="13000.00000" pt_clust_8="13000.00000" pt_clust_9="40.84153"></scales>
<clustering>
<clus scale="   40.842">  1  9  2 -1</clus>
<clus scale="   90.534">  7  8 -1 -1</clus>
<clus scale="   94.037">  5  6 -1 -1</clus>
<clus scale="  183.256">  2  7  1 -1</clus>
<clus scale="  183.256">  2  5  1 -1</clus>
</clustering>
</event>
<event>
 9    1  0.2423659E-006  0.9692031E+02  0.7546771E-02  0.1287064E+00
         -1   -1    0    0    0  501 -0.00000000000E+00  0.00000000000E+00  0.99818964794E+02  0.99818964794E+02  0.00000000000E+00 0.  1.
          1   -1    0    0  502    0  0.00000000000E+00 -0.00000000000E+00 -0.16776928675E+03  0.16776928675E+03  0.00000000000E+00 0. -1.
         23    2    1    2    0    0  0.30853847895E+02  0.52401757935E+02 -0.29040598138E+02  0.11333619094E+03  0.91125362394E+02 0.  0.
         23    2    1    2    0    0  0.63943567667E+01 -0.17578433355E+02 -0.44684169424E+02  0.10293503704E+03  0.90824323479E+02 0.  0.
        -11    1    3    3    0    0  0.37295633771E+02 -0.22680744867E+01  0.17491658753E+02  0.41256109683E+02  0.00000000000E+00 0.  1.
         11    1    3    3    0    0 -0.64417858753E+01  0.54669832422E+02 -0.46532256891E+02  0.72080081255E+02  0.00000000000E+00 0. -1.
        -11    1    4    4    0    0  0.40174309256E+02  0.47213453537E+01  0.27911469342E+01  0.40546969398E+02  0.00000000000E+00 0.  1.
         11    1    4    4    0    0 -0.33779952489E+02 -0.22299778709E+02 -0.47475316358E+02  0.62388067641E+02  0.00000000000E+00 0. -1.
         21    1    1    2  502  501 -0.37248204662E+02 -0.34823324580E+02  0.57744456108E+01  0.51317023564E+02  0.00000000000E+00 0. -1.
<scales pt_clust_5="13000.00000" pt_clust_6="13000.00000" pt_clust_7="13000.00000" pt_clust_8="13000.00000" pt_clust_9="50.99110"></scales>
<clustering>
<clus scale="   50.991">  1  9  2 -1</clus>
<clus scale="   90.824">  7  8 -1 -1</clus>
<clus scale="   91.125">  5  6 -1 -1</clus>
<clus scale="   96.637">  2  7  1 -1</clus>
<clus scale="   96.637">  2  5  1 -1</clus>
</clustering>
</event>
<event>
 9    1  0.2423659E-006  0.1164238E+03  0.7546771E-02  0.1249349E+00
          2   -1    0    0  502    0  0.00000000000E+00  0.00000000000E+00  0.15687564952E+03  0.15687564952E+03  0.00000000000E+00 0. -1.
         -2   -1    0    0    0  501 -0.00000000000E+00 -0.00000000000E+00 -0.55752258864E+03  0.55752258864E+03  0.00000000000E+00 0.  1.
         23    2    1    2    0    0  0.11054238911E+02 -0.56319402759E+02 -0.26393795900E+03  0.28498223898E+03  0.90871112044E+02 0.  0.
         23    2    1    2    0    0 -0.47128418312E+02  0.56720264602E+02  0.12128477450E+03  0.16891209417E+03  0.91558848853E+02 0.  0.
        -11    1    4    4    0    0 -0.30076632525E+02 -0.61143980406E+01 -0.63351908188E+00  0.30698388132E+02  0.00000000000E+00 0.  1.
         11    1    4    4    0    0 -0.17051785786E+02  0.62834662643E+02  0.12191829358E+03  0.13821370604E+03  0.00000000000E+00 0. -1.
        -13    1    3    3    0    0  0.11359331344E+02 -0.79044072006E+02 -0.23493271139E+03  0.24813379175E+03  0.00000000000E+00 0.  1.
         13    1    3    3    0    0 -0.30509243295E+00  0.22724669247E+02 -0.29005247615E+02  0.36848447227E+02  0.00000000000E+00 0. -1.
         21    1    1    2  502  501  0.36074179401E+02 -0.40086184363E+00 -0.25799375461E+03  0.26050390501E+03  0.00000000000E+00 0.  1.
<scales pt_clust_5="13000.00000" pt_clust_6="13000.00000" pt_clust_7="13000.00000" pt_clust_8="13000.00000" pt_clust_9="36.07641"></scales>
<clustering>
<clus scale="   36.076">  2  9  1 -1</clus>
<clus scale="   90.871">  7  8 -1 -1</clus>
<clus scale="   91.559">  5  6 -1 -1</clus>
<clus scale="  115.884">  2  7  1 -1</clus>
<clus scale="  116.424">  1  5  2 -1</clus>
</clustering>
</event>
<event>
 9    1  0.2423659E-006  0.9938564E+02  0.7546771E-02  0.1282641E+00
          2   -1    0    0  502    0  0.00000000000E+00  0.00000000000E+00  0.14709617194E+03  0.14709617194E+03  0.00000000000E+00 0. -1.
         -2   -1    0    0    0  501 -0.00000000000E+00 -0.00000000000E+00 -0.97110873446E+02  0.97110873446E+02  0.00000000000E+00 0.  1.
         23    2    1    2    0    0  0.46978810090E+02 -0.30331234438E+02  0.98843332652E+01  0.10705370755E+03  0.90751329883E+02 0.  0.
         23    2    1    2    0    0 -0.14295086370E+02  0.16269481777E+02  0.32850085859E+02  0.10084171524E+03  0.92848682599E+02 0.  0.
        -11    1    4    4    0    0  0.17197970649E+02  0.46989798160E+02  0.25758716429E+02  0.56278972962E+02  0.00000000000E+00 0.  1.
         11    1    4    4    0    0 -0.31493057019E+02 -0.30720316384E+02  0.70913694298E+01  0.44562742280E+02  0.00000000000E+00 0. -1.
        -13    1    3    3    0    0 -0.27227857751E+02 -0.47790644067E+01 -0.18156180155E+01  0.27703648913E+02  0.00000000000E+00 0. -1.
         13    1    3    3    0    0  0.74206667841E+02 -0.25552170031E+02  0.11699951281E+02  0.79350058634E+02  0.00000000000E+00 0.  1.
         21    1    1    2  502  501 -0.32683723720E+02  0.14061752661E+02  0.72508793726E+01  0.36311622599E+02  0.00000000000E+00 0. -1.
<scales pt_clust_5="13000.00000" pt_clust_6="13000.00000" pt_clust_7="13000.00000" pt_clust_8="13000.00000" pt_clust_9="35.58031"></scales>
<clustering>
<clus scale="   35.580">  2  9  1 -1</clus>
<clus scale="   90.751">  7  8 -1 -1</clus>
<clus scale="   92.849">  5  6 -1 -1</clus>
<clus scale="   97.429">  2  7  1 -1</clus>
<clus scale="   99.386">  1  5  2 -1</clus>
</clustering>
</event>
<event>
 9    1  0.2423659E-006  0.1581161E+03  0.7546771E-02  0.1210857E+00
         -1   -1    0    0    0  501 -0.00000000000E+00  0.00000000000E+00  0.54189564751E+02  0.54189564751E+02  0.00000000000E+00 0.  1.
          1   -1    0    0  502    0  0.00000000000E+00 -0.00000000000E+00 -0.93800037020E+03  0.93800037020E+03  0.00000000000E+00 0. -1.
         23    2    1    2    0    0  0.22474636308E+02  0.39772662322E+02 -0.17168153481E+03  0.19991615268E+03  0.91678485810E+02 0.  0.
         23    2    1    2    0    0  0.40722243689E+02  0.10982549038E+03 -0.51931168815E+03  0.54017841728E+03  0.91586863577E+02 0.  0.
        -11    1    3    3    0    0  0.25225507675E+01 -0.29043836675E+02 -0.34648877462E+02  0.45281921564E+02  0.00000000000E+00 0.  1.
         11    1    3    3    0    0  0.19952085541E+02  0.68816498996E+02 -0.13703265735E+03  0.15463423111E+03  0.00000000000E+00 0. -1.
        -13    1    4    4    0    0 -0.46257167031E+01  0.88087485266E+02 -0.41635405065E+03  0.42559546263E+03  0.00000000000E+00 0. -1.
         13    1    4    4    0    0  0.45347960392E+02  0.21738005117E+02 -0.10295763750E+03  0.11458295466E+03  0.00000000000E+00 0.  1.
         21    1    1    2  502  501 -0.63196879997E+02 -0.14959815270E+03 -0.19281758249E+03  0.25209536499E+03  0.00000000000E+00 0.  1.
<scales pt_clust_5="13000.00000" pt_clust_6="13000.00000" pt_clust_7="13000.00000" pt_clust_8="13000.00000" pt_clust_9="128.88971"></scales>
<clustering>
<clus scale="   91.587">  7  8 -1 -1</clus>
<clus scale="   91.678">  5  6 -1 -1</clus>
<clus scale="  102.430">  1  5  2 -1</clus>
<clus scale="  128.890">  1  9  2 -1</clus>
<clus scale="  158.116">  2  5  1 -1</clus>
</clustering>
</event>
<event>
 9    1  0.2423659E-006  0.9268326E+02  0.7546771E-02  0.1298275E+00
         -1   -1    0    0    0  501 -0.00000000000E+00  0.00000000000E+00  0.27718837421E+03  0.27718837421E+03  0.00000000000E+00 0.  1.
          1   -1    0    0  502    0  0.00000000000E+00 -0.00000000000E+00 -0.10718708939E+03  0.10718708939E+03  0.00000000000E+00 0. -1.
         23    2    1    2    0    0 -0.36970847323E+02  0.12524968963E+02  0.19734007280E+03  0.22001619515E+03  0.89108380047E+02 0.  0.
         23    2    1    2    0    0  0.17075057941E+01 -0.78346250337E+01 -0.64613372754E+02  0.11283357338E+03  0.92153298468E+02 0.  0.
        -11    1    3    3    0    0 -0.17288425135E+02  0.50654272146E+02  0.12376637447E+03  0.13484383701E+03  0.00000000000E+00 0.  1.
         11    1    3    3    0    0 -0.19682422188E+02 -0.38129303183E+02  0.73573698333E+02  0.85172358139E+02  0.00000000000E+00 0. -1.
        -13    1    4    4    0    0 -0.99063208467E+01 -0.24283613726E+02  0.15340231096E+02  0.30383412882E+02  0.00000000000E+00 0.  1.
         13    1    4    4    0    0  0.11613826641E+02  0.16448988692E+02 -0.79953603850E+02  0.82450160502E+02  0.00000000000E+00 0. -1.
         21    1    1    2  502  501  0.35263341529E+02 -0.46903439290E+01  0.37274584776E+02  0.51525695068E+02  0.00000000000E+00 0. -1.
<scales pt_clust_5="13000.00000" pt_clust_6="13000.00000" pt_clust_7="13000.00000" pt_clust_8="13000.00000" pt_clust_9="35.57390"></scales>
<clustering>
<clus scale="   35.574">  1  9  2 -1</clus>
<clus scale="   89.108">  5  6 -1 -1</clus>
<clus scale="   89.656">  1  5  2 -1</clus>
<clus scale="   92.153">  7  8 -1 -1</clus>
<clus scale="   92.683">  2  5  1 -1</clus>
</clustering>
</event>
<event>
 9    1  0.2423659E-006  0.9269606E+02  0.7546771E-02  0.1297453E+00
          2   -1    0    0  502    0  0.00000000000E+00  0.00000000000E+00  0.20502174179E+03  0.20502174179E+03  0.00000000000E+00 0. -1.
         -2   -1    0    0    0  501 -0.00000000000E+00 -0.00000000000E+00 -0.21594261150E+03  0.21594261150E+03  0.00000000000E+00 0.  1.
         23    2    1    2    0    0  0.36058028936E+01  0.23612435981E+02 -0.16512781505E+03  0.19034221105E+03  0.91610114369E+02 0.  0.
         23    2    1    2    0    0  0.14023271042E+02  0.76070440856E+01  0.16880721466E+03  0.19191028298E+03  0.89884157347E+02 0.  0.
        -13    1    3    3    0    0 -0.38744095904E+02  0.13511845285E+02 -0.12337494451E+03  0.13001942879E+03  0.00000000000E+00 0. -1.
         13    1    3    3    0    0  0.42349898798E+02  0.10100590697E+02 -0.41752870545E+02  0.60322782258E+02  0.00000000000E+00 0.  1.
        -13    1    4    4    0    0  0.33130427002E+02  0.31463700529E+02  0.44060837431E+02  0.63473987108E+02  0.00000000000E+00 0.  1.
         13    1    4    4    0    0 -0.19107155959E+02 -0.23856656443E+02  0.12474637723E+03  0.12843629588E+03  0.00000000000E+00 0. -1.
         21    1    1    2  502  501 -0.17629073936E+02 -0.31219480067E+02 -0.14600269321E+02  0.38711859265E+02  0.00000000000E+00 0. -1.
<scales pt_clust_5="13000.00000" pt_clust_6="13000.00000" pt_clust_7="13000.00000" pt_clust_8="13000.00000" pt_clust_9="35.85304"></scales>
<clustering>
<clus scale="   35.853">  2  9  1 -1</clus>
<clus scale="   89.884">  7  8 -1 -1</clus>
<clus scale="   90.991">  1  7  2 -1</clus>
<clus scale="   91.610">  5  6 -1 -1</clus>
<clus scale="   90.991">  1  5  2 -1</clus>
</clustering>
</event>
<event>
 9    1  0.2423659E-006  0.1149776E+03  0.7546771E-02  0.1251944E+00
          1   -1    0    0  502    0  0.00000000000E+00  0.00000000000E+00  0.62164242996E+02  0.62164242996E+02  0.00000000000E+00 0. -1.
         -1   -1    0    0    0  501 -0.00000000000E+00 -0.00000000000E+00 -0.43750822044E+03  0.43750822044E+03  0.00000000000E+00 0.  1.
         23    2    1    2    0    0  0.20303277531E+02 -0.60139349397E+02 -0.18344995260E+03  0.21435841460E+03  0.90921286714E+02 0.  0.
         23    2    1    2    0    0  0.48544080943E+02  0.87445025551E+02 -0.14423303810E+03  0.19723948737E+03  0.89983808601E+02 0.  0.
        -13    1    3    3    0    0 -0.28792007671E+02 -0.48581741651E+02 -0.68138215643E+02  0.88498484498E+02  0.00000000000E+00 0. -1.
         13    1    3    3    0    0  0.49095285202E+02 -0.11557607746E+02 -0.11531173695E+03  0.12585993010E+03  0.00000000000E+00 0.  1.
        -13    1    4    4    0    0  0.56724647159E+02  0.12964074979E+02 -0.77422164144E+02  0.96850112731E+02  0.00000000000E+00 0.  1.
         13    1    4    4    0    0 -0.81805662157E+01  0.74480950572E+02 -0.66810873959E+02  0.10038937464E+03  0.00000000000E+00 0. -1.
         21    1    1    2  502  501 -0.68847358474E+02 -0.27305676154E+02 -0.47660986740E+02  0.88074561459E+02  0.00000000000E+00 0. -1.
<scales pt_clust_5="13000.00000" pt_clust_6="13000.00000" pt_clust_7="13000.00000" pt_clust_8="13000.00000" pt_clust_9="74.06456"></scales>
<clustering>
<clus scale="   74.065">  1  9  2 -1</clus>
<clus scale="   89.984">  7  8 -1 -1</clus>
<clus scale="   90.921">  5  6 -1 -1</clus>
<clus scale="  114.238">  1  7  2 -1</clus>
<clus scale="   74.065">  1  5  2 -1</clus>
</clustering>
</event>
<event>
 9    1  0.2423659E-006  0.1141491E+03  0.7546771E-02  0.1253191E+00
          2   -1    0    0  502    0  0.00000000000E+00  0.00000000000E+00  0.46205087719E+03  0.46205087719E+03  0.00000000000E+00 0. -1.
         -2   -1    0    0    0  501 -0.00000000000E+00 -0.00000000000E+00 -0.80596454983E+02  0.80596454983E+02  0.00000000000E+00 0.  1.
         23    2    1    2    0    0  0.66374706260E+02  0.99326758558E+02  0.11779992043E+03  0.19110142296E+03  0.91496043673E+02 0.  0.
         23    2    1    2    0    0 -0.63851582046E+02  0.10901728919E+02  0.18475801799E+03  0.21596810586E+03  0.91163728068E+02 0.  0.
        -11    1    3    3    0    0  0.30782081790E+02  0.95001321853E+02  0.11884484264E+03  0.15523171176E+03  0.00000000000E+00 0. -1.
         11    1    3    3    0    0  0.35592624470E+02  0.43254367050E+01 -0.10449222108E+01  0.35869711203E+02  0.00000000000E+00 0.  1.
        -13    1    4    4    0    0 -0.35902811068E+02 -0.31775022549E+02  0.39852033932E+02  0.62344594867E+02  0.00000000000E+00 0.  1.
         13    1    4    4    0    0 -0.27948770978E+02  0.42676751468E+02  0.14490598406E+03  0.15362351100E+03  0.00000000000E+00 0. -1.
         21    1    1    2  502  501 -0.25231242143E+01 -0.11022848748E+03  0.78896483790E+02  0.13557780335E+03  0.00000000000E+00 0.  1.
<scales pt_clust_5="13000.00000" pt_clust_6="13000.00000" pt_clust_7="13000.00000" pt_clust_8="13000.00000" pt_clust_9="110.25736"></scales>
<clustering>
<clus scale="   91.164">  7  8 -1 -1</clus>
<clus scale="   91.496">  5  6 -1 -1</clus>
<clus scale="  110.257">  2  9  1 -1</clus>
<clus scale="  113.883">  1  7  2 -1</clus>
<clus scale="  113.883">  1  5  2 -1</clus>
</clustering>
</event>
<event>
 9    1  0.2423659E-006  0.1011905E+03  0.7546771E-02  0.1278171E+00
         -1   -1    0    0    0  501 -0.00000000000E+00  0.00000000000E+00  0.10671594813E+03  0.10671594813E+03  0.00000000000E+00 0.  1.
          1   -1    0    0  502    0  0.00000000000E+00 -0.00000000000E+00 -0.20640716507E+03  0.20640716507E+03  0.00000000000E+00 0. -1.
         23    2    1    2    0    0  0.15502449551E+01  0.16517782727E+02 -0.16251159392E+02  0.92505254087E+02  0.89542623630E+02 0.  0.
         23    2    1    2    0    0 -0.25687236743E+02 -0.76341535501E+02 -0.78897296671E+01  0.12127336852E+03  0.90316764251E+02 0.  0.
        -11    1    4    4    0    0  0.27779966613E+02 -0.40800107462E+02  0.17303887074E+02  0.52304873787E+02  0.00000000000E+00 0.  1.
         11    1    4    4    0    0 -0.53467203356E+02 -0.35541428039E+02 -0.25193616741E+02  0.68968494737E+02  0.00000000000E+00 0. -1.
        -13    1    3    3    0    0  0.59709276003E+01  0.37299556142E+02 -0.43719910600E+02  0.57778364876E+02  0.00000000000E+00 0. -1.
         13    1    3    3    0    0 -0.44206826452E+01 -0.20781773416E+02  0.27468751209E+02  0.34726889211E+02  0.00000000000E+00 0.  1.
         21    1    1    2  502  501  0.24136991787E+02  0.59823752774E+02 -0.75550327877E+02  0.99344490592E+02  0.00000000000E+00 0. -1.
<scales pt_clust_5="13000.00000" pt_clust_6="13000.00000" pt_clust_7="13000.00000" pt_clust_8="13000.00000" pt_clust_9="64.50950"></scales>
<clustering>
<clus scale="   64.510">  2  9  1 -1</clus>
<clus scale="   89.543">  7  8 -1 -1</clus>
<clus scale="   90.317">  5  6 -1 -1</clus>
<clus scale="  100.500">  1  7  2 -1</clus>
<clus scale="   64.510">  2  5  1 -1</clus>
</clustering>
</event>
<event>
 9    1  0.2423659E-006  0.1983449E+03  0.7546771E-02  0.1181370E+00
         -1   -1    0    0    0  501 -0.00000000000E+00  0.00000000000E+00  0.11319707900E+03  0.11319707900E+03  0.00000000000E+00 0.  1.
          1   -1    0    0  502    0  0.00000000000E+00 -0.00000000000E+00 -0.74460471345E+03  0.74460471345E+03  0.00000000000E+00 0. -1.
         23    2    1    2    0    0  0.66905297572E+02 -0.13896430616E+03 -0.19048514927E+03  0.26090171806E+03  0.89429956762E+02 0.  0.
         23    2    1    2    0    0  0.11269329772E+02 -0.33908076594E+02 -0.38732485491E+03  0.39974825713E+03  0.92202876311E+02 0.  0.
        -13    1    4    4    0    0 -0.33076651897E+02  0.11622156497E+02 -0.12392563969E+03  0.12878937687E+03  0.00000000000E+00 0.  1.
         13    1    4    4    0    0  0.44345981669E+02 -0.45530233091E+02 -0.26339921522E+03  0.27095888026E+03  0.00000000000E+00 0. -1.
        -13    1    3    3    0    0 -0.88354739063E+01 -0.45570432334E+02 -0.16208794313E+02  0.49167620599E+02  0.00000000000E+00 0.  1.
         13    1    3    3    0    0  0.75740771478E+02 -0.93393873826E+02 -0.17427635495E+03  0.21173409746E+03  0.00000000000E+00 0. -1.
         21    1    1    2  502  501 -0.78174627343E+02  0.17287238275E+03 -0.53597630274E+02  0.19715181726E+03  0.00000000000E+00 0.  1.
<scales pt_clust_5="13000.00000" pt_clust_6="13000.00000" pt_clust_7="13000.00000" pt_clust_8="13000.00000" pt_clust_9="177.03949"></scales>
<clustering>
<clus scale="   89.430">  7  8 -1 -1</clus>
<clus scale="   92.203">  5  6 -1 -1</clus>
<clus scale="   98.884">  2  5  1 -1</clus>
<clus scale="  177.039">  1  9  2 -1</clus>
<clus scale="   98.884">  2  5  1 -1</clus>
</clustering>
</event>
<event>
 9    1  0.2423659E-006  0.1005631E+03  0.7546771E-02  0.1280353E+00
          1   -1    0    0  502    0  0.00000000000E+00  0.00000000000E+00  0.99972372847E+02  0.99972372847E+02  0.00000000000E+00 0. -1.
         -1   -1    0    0    0  501 -0.00000000000E+00 -0.00000000000E+00 -0.58114157788E+03  0.58114157788E+03  0.00000000000E+00 0.  1.
         23    2    1    2    0    0  0.54851580084E+02  0.62985474122E+02 -0.47496817579E+01  0.12347507057E+03  0.90816671305E+02 0.  0.
         23    2    1    2    0    0 -0.34875502962E+01  0.13839679089E+02 -0.26145881414E+02  0.97979527729E+02  0.93341743153E+02 0.  0.
        -11    1    3    3    0    0  0.91514532758E+01 -0.23641177528E+02 -0.28939072980E+01  0.25515271338E+02  0.00000000000E+00 0.  1.
         11    1    3    3    0    0  0.45700126808E+02  0.86626651651E+02 -0.18557744599E+01  0.97959799231E+02  0.00000000000E+00 0. -1.
        -13    1    4    4    0    0  0.30125606038E+02 -0.25979808992E+02 -0.23079166385E+00  0.39781350897E+02  0.00000000000E+00 0. -1.
         13    1    4    4    0    0 -0.33613156334E+02  0.39819488081E+02 -0.25915089750E+02  0.58198176832E+02  0.00000000000E+00 0.  1.
         21    1    1    2  502  501 -0.51364029788E+02 -0.76825153211E+02 -0.45027364186E+03  0.45965935243E+03  0.00000000000E+00 0.  1.
<scales pt_clust_5="13000.00000" pt_clust_6="13000.00000" pt_clust_7="13000.00000" pt_clust_8="13000.00000" pt_clust_9="92.41411"></scales>
<clustering>
<clus scale="   90.817">  5  6 -1 -1</clus>
<clus scale="   92.414">  2  9  1 -1</clus>
<clus scale="   93.342">  7  8 -1 -1</clus>
<clus scale="   98.224">  2  5  1 -1</clus>
<clus scale="  100.563">  1  5  2 -1</clus>
</clustering>
</event>
<event>
 9    1  0.2423659E-006  0.1306214E+03  0.7546771E-02  0.1229621E+00
         -1   -1    0    0    0  501 -0.00000000000E+00  0.00000000000E+00  0.10666518867E+03  0.10666518867E+03  0.00000000000E+00 0.  1.
          1   -1    0    0  502    0  0.00000000000E+00 -0.00000000000E+00 -0.62297581107E+03  0.62297581107E+03  0.00000000000E+00 0. -1.
         23    2    1    2    0    0  0.48100027050E+02  0.66684339932E+02 -0.33733656963E+02  0.12709459037E+03  0.90855167680E+02 0.  0.
         23    2    1    2    0    0  0.70364086022E+02  0.38331348117E+02 -0.41063628292E+03  0.42865706920E+03  0.93296994992E+02 0.  0.
        -11    1    4    4    0    0  0.18857271075E+02 -0.27491175239E+02 -0.64895767615E+02  0.72957672954E+02  0.00000000000E+00 0.  1.
         11    1    4    4    0    0  0.51506814946E+02  0.65822523356E+02 -0.34574051530E+03  0.35569939625E+03  0.00000000000E+00 0. -1.
        -13    1    3    3    0    0  0.24109306738E+01 -0.21986268145E+02 -0.11108157258E+01  0.22145936089E+02  0.00000000000E+00 0.  1.
         13    1    3    3    0    0  0.45689096376E+02  0.88670608077E+02 -0.32622841237E+02  0.10494865428E+03  0.00000000000E+00 0. -1.
         21    1    1    2  502  501 -0.11846411307E+03 -0.10501568805E+03 -0.71940682519E+02  0.17388934017E+03  0.00000000000E+00 0.  1.
<scales pt_clust_5="13000.00000" pt_clust_6="13000.00000" pt_clust_7="13000.00000" pt_clust_8="13000.00000" pt_clust_9="91.42009"></scales>
<clustering>
<clus scale="   90.855">  7  8 -1 -1</clus>
<clus scale="   93.297">  5  6 -1 -1</clus>
<clus scale="  122.536">  1  7  2 -1</clus>
<clus scale="   91.420">  1  9  2 -1</clus>
<clus scale="  130.621">  2  5  1 -1</clus>
</clustering>
</event>
<event>
 9    1  0.2423659E-006  0.9849032E+02  0.7546771E-02  0.1285748E+00
         -1   -1    0    0    0  501 -0.00000000000E+00  0.00000000000E+00  0.15141979059E+03  0.15141979059E+03  0.00000000000E+00 0.  1.
          1   -1    0    0  502    0  0.00000000000E+00 -0.00000000000E+00 -0.17678128760E+03  0.17678128760E+03  0.00000000000E+00 0. -1.
         23    2    1    2    0    0 -0.15059046592E+01  0.15215186597E+02  0.66014106668E+02  0.11224275597E+03  0.89480748416E+02 0.  0.
         23    2    1    2    0    0 -0.31496773363E+02  0.21643817537E+02 -0.12139224240E+03  0.15808983734E+03  0.93786025523E+02 0.  0.
        -13    1    3    3    0    0 -0.40093040389E+02 -0.80774661103E+01  0.49570542784E+02  0.64264578566E+02  0.00000000000E+00 0. -1.
         13    1    3    3    0    0  0.38587135730E+02  0.23292652708E+02  0.16443563884E+02  0.47978177406E+02  0.00000000000E+00 0.  1.
        -13    1    4    4    0    0  0.12397564718E+02  0.34624226817E+02 -0.10190992112E+03  0.10834282955E+03  0.00000000000E+00 0. -1.
         13    1    4    4    0    0 -0.43894338081E+02 -0.12980409280E+02 -0.19482321287E+02  0.49747007783E+02  0.00000000000E+00 0.  1.
         21    1    1    2  502  501  0.33002678022E+02 -0.36859004134E+02  0.30016638721E+02  0.57868484882E+02  0.00000000000E+00 0.  1.
<scales pt_clust_5="13000.00000" pt_clust_6="13000.00000" pt_clust_7="13000.00000" pt_clust_8="13000.00000" pt_clust_9="49.47487"></scales>
<clustering>
<clus scale="   49.475">  1  9  2 -1</clus>
<clus scale="   89.481">  5  6 -1 -1</clus>
<clus scale="   93.786">  7  8 -1 -1</clus>
<clus scale="   94.400">  1  5  2 -1</clus>
<clus scale="   98.490">  2  5  1 -1</clus>
</clustering>
</event>
<event>
 9    1  0.2423659E-006  0.1838080E+03  0.7546771E-02  0.1190141E+00
          2   -1    0    0  502    0  0.00000000000E+00  0.00000000000E+00  0.10989296708E+04  0.10989296708E+04  0.00000000000E+00 0. -1.
         -2   -1    0    0    0  501 -0.00000000000E+00 -0.00000000000E+00 -0.64578939521E+02  0.64578939521E+02  0.00000000000E+00 0.  1.
         23    2    1    2    0    0 -0.31410822124E+02  0.45794272053E+02  0.38926998525E+02  0.10937752691E+03  0.85815948870E+02 0.  0.
         23    2    1    2    0    0 -0.31914845268E+02 -0.17445277938E+03  0.64743166992E+03  0.67775145132E+03  0.93418054824E+02 0.  0.
        -11    1    4    4    0    0  0.23826532068E+02 -0.66013691437E+02  0.15017838749E+03  0.16576808848E+03  0.00000000000E+00 0. -1.
         11    1    4    4    0    0 -0.55741377335E+02 -0.10843908794E+03  0.49725328243E+03  0.51198336284E+03  0.00000000000E+00 0.  1.
        -13    1    3    3    0    0  0.33938782336E+01 -0.23629020362E+02  0.14666344504E+02  0.28016971175E+02  0.00000000000E+00 0.  1.
         13    1    3    3    0    0 -0.34804700357E+02  0.69423292415E+02  0.24260654021E+02  0.81360555740E+02  0.00000000000E+00 0. -1.
         21    1    1    2  502  501  0.63325667391E+02  0.12865850732E+03  0.34799206287E+03  0.37637963212E+03  0.00000000000E+00 0. -1.
<scales pt_clust_5="13000.00000" pt_clust_6="13000.00000" pt_clust_7="13000.00000" pt_clust_8="13000.00000" pt_clust_9="158.29858"></scales>
<clustering>
<clus scale="   85.816">  7  8 -1 -1</clus>
<clus scale="   93.418">  5  6 -1 -1</clus>
<clus scale="  102.216">  2  7  1 -1</clus>
<clus scale="  158.299">  2  9  1 -1</clus>
<clus scale="  183.808">  1  5  2 -1</clus>
</clustering>
</event>
<event>
 9    1  0.2423659E-006  0.9575252E+02  0.7546771E-02  0.1290037E+00
         -1   -1    0    0    0  501 -0.00000000000E+00  0.00000000000E+00  0.76020051065E+02  0.76020051065E+02  0.00000000000E+00 0.  1.
          1   -1    0    0  502    0  0.00000000000E+00 -0.00000000000E+00 -0.42298547167E+03  0.42298547167E+03  0.00000000000E+00 0. -1.
         23    2    1    2    0    0 -0.36768660192E+01 -0.44084166122E+02 -0.51872090323E+02  0.11357139351E+03  0.90833994864E+02 0.  0.
         23    2    1    2    0    0  0.59431635461E+01 -0.48692335131E+02 -0.26987084949E+03  0.28926350572E+03  0.91852248970E+02 0.  0.
        -13    1    3    3    0    0 -0.85372845838E+01 -0.71920262255E+02 -0.32981725016E+02  0.79581427079E+02  0.00000000000E+00 0.  1.
         13    1    3    3    0    0  0.48604185646E+01  0.27836096133E+02 -0.18890365307E+02  0.33989966431E+02  0.00000000000E+00 0. -1.
        -13    1    4    4    0    0 -0.95127859953E+01 -0.69839696354E+02 -0.23684951375E+03  0.24711488917E+03  0.00000000000E+00 0.  1.
         13    1    4    4    0    0  0.15455949541E+02  0.21147361223E+02 -0.33021335739E+02  0.42148616548E+02  0.00000000000E+00 0. -1.
         21    1    1    2  502  501 -0.22662975268E+01  0.92776501253E+02 -0.25222480795E+02  0.96170623512E+02  0.00000000000E+00 0. -1.
<scales pt_clust_5="13000.00000" pt_clust_6="13000.00000" pt_clust_7="13000.00000" pt_clust_8="13000.00000" pt_clust_9="92.80418"></scales>
<clustering>
<clus scale="   90.834">  5  6 -1 -1</clus>
<clus scale="   91.852">  7  8 -1 -1</clus>
<clus scale="   92.804">  1  9  2 -1</clus>
<clus scale="   94.776">  1  5  2 -1</clus>
<clus scale="   95.753">  2  5  1 -1</clus>
</clustering>
</event>
<event>
 9    1  0.2423659E-006  0.9313341E+02  0.7546771E-02  0.1320297E+00
         -1   -1    0    0    0  501 -0.00000000000E+00  0.00000000000E+00  0.64779062640E+02  0.64779062640E+02  0.00000000000E+00 0.  1.
          1   -1    0    0  502    0  0.00000000000E+00 -0.00000000000E+00 -0.44787936234E+03  0.44787936234E+03  0.00000000000E+00 0. -1.
         23    2    1    2    0    0  0.98891163177E-01 -0.59022068078E+01  0.12290035354E+02  0.93183735512E+02  0.92180896992E+02 0.  0.
         23    2    1    2    0    0 -0.34442306405E+02  0.50292903370E+02 -0.23322635532E+03  0.24787293995E+03  0.57713195602E+02 0.  0.
        -11    1    4    4    0    0  0.37040794877E+01  0.40962066311E+02 -0.15470360004E+03  0.16007752792E+03  0.00000000000E+00 0.  1.
         11    1    4    4    0    0 -0.38146385893E+02  0.93308370598E+01 -0.78522755281E+02  0.87795412032E+02  0.00000000000E+00 0. -1.
        -13    1    3    3    0    0  0.11502589109E+01  0.21229694634E+02  0.45538420662E+02  0.50257047129E+02  0.00000000000E+00 0.  1.
         13    1    3    3    0    0 -0.10513677477E+01 -0.27131901442E+02 -0.33248385307E+02  0.42926688383E+02  0.00000000000E+00 0. -1.
         21    1    1    2  502  501  0.34343415242E+02 -0.44390696563E+02 -0.16216397973E+03  0.17160174951E+03  0.00000000000E+00 0.  1.
<scales pt_clust_5="13000.00000" pt_clust_6="13000.00000" pt_clust_7="13000.00000" pt_clust_8="13000.00000" pt_clust_9="56.12490"></scales>
<clustering>
<clus scale="   56.125">  2  9  1 -1</clus>
<clus scale="   57.713">  5  6 -1 -1</clus>
<clus scale="   59.223">  2  5  1 -1</clus>
<clus scale="   92.181">  7  8 -1 -1</clus>
<clus scale="   56.125">  2  5  1 -1</clus>
</clustering>
</event>
<event>
 9    1  0.2423659E-006  0.1039345E+03  0.7546771E-02  0.1272731E+00
          1   -1    0    0  502    0  0.00000000000E+00  0.00000000000E+00  0.65758946685E+03  0.65758946685E+03  0.00000000000E+00 0. -1.
         -1   -1    0    0    0  501 -0.00000000000E+00 -0.00000000000E+00 -0.39484287413E+02  0.39484287413E+02  0.00000000000E+00 0.  1.
         23    2    1    2    0    0 -0.11432516480E+01  0.56951185068E+01  0.11525659001E+03  0.14729830427E+03  0.91536700293E+02 0.  0.
         23    2    1    2    0    0 -0.40512531594E+02  0.62906577274E+02  0.41049413942E+03  0.42742046899E+03  0.92651584594E+02 0.  0.
        -13    1    3    3    0    0  0.23848123451E+02 -0.57049179279E+01 -0.40651156663E+01  0.24855668289E+02  0.00000000000E+00 0.  1.
         13    1    3    3    0    0 -0.24991375099E+02  0.11400036435E+02  0.11932170568E+03  0.12244263598E+03  0.00000000000E+00 0. -1.
        -13    1    4    4    0    0  0.23437869132E+02 -0.50548361572E+01  0.11760371664E+03  0.12002299465E+03  0.00000000000E+00 0.  1.
         13    1    4    4    0    0 -0.63950400726E+02  0.67961413432E+02  0.29289042279E+03  0.30739747434E+03  0.00000000000E+00 0. -1.
         21    1    1    2  502  501  0.41655783242E+02 -0.68601695781E+02  0.92354450004E+02  0.12235498101E+03  0.00000000000E+00 0.  1.
<scales pt_clust_5="13000.00000" pt_clust_6="13000.00000" pt_clust_7="13000.00000" pt_clust_8="13000.00000" pt_clust_9="80.25831"></scales>
<clustering>
<clus scale="   80.258">  2  9  1 -1</clus>
<clus scale="   91.537">  5  6 -1 -1</clus>
<clus scale="   92.652">  7  8 -1 -1</clus>
<clus scale="  102.942">  2  5  1 -1</clus>
<clus scale="  103.935">  1  5  2 -1</clus>
</clustering>
</event>
<event>
 9    1  0.2423659E-006  0.1715004E+03  0.7546771E-02  0.1177367E+00
         -1   -1    0    0    0  501 -0.00000000000E+00  0.00000000000E+00  0.32939801038E+03  0.32939801038E+03  0.00000000000E+00 0.  1.
          1   -1    0    0  502    0  0.00000000000E+00 -0.00000000000E+00 -0.59515757757E+03  0.59515757757E+03  0.00000000000E+00 0. -1.
         23    2    1    2    0    0  0.57627867051E+02  0.14900573999E+03 -0.26278799400E+03  0.31994130318E+03  0.88211258228E+02 0.  0.
         23    2    1    2    0    0 -0.14892725184E+03 -0.46565638240E+02 -0.25720108792E+03  0.31571603578E+03  0.95794209723E+02 0.  0.
        -11    1    4    4    0    0 -0.94352975048E+02 -0.60483322922E+02 -0.10558460201E+03  0.15397670095E+03  0.00000000000E+00 0. -1.
         11    1    4    4    0    0 -0.54574276796E+02  0.13917684681E+02 -0.15161648590E+03  0.16173933483E+03  0.00000000000E+00 0.  1.
        -13    1    3    3    0    0  0.51197796468E+02  0.69944416964E+02 -0.69808533180E+02  0.11129540481E+03  0.00000000000E+00 0.  1.
         13    1    3    3    0    0  0.64300705825E+01  0.79061323024E+02 -0.19297946082E+03  0.20864589837E+03  0.00000000000E+00 0. -1.
         21    1    1    2  502  501  0.91299384793E+02 -0.10244010175E+03  0.25422951473E+03  0.28889824899E+03  0.00000000000E+00 0.  1.
<scales pt_clust_5="13000.00000" pt_clust_6="13000.00000" pt_clust_7="13000.00000" pt_clust_8="13000.00000" pt_clust_9="137.22082"></scales>
<clustering>
<clus scale="   88.211">  7  8 -1 -1</clus>
<clus scale="   95.794">  5  6 -1 -1</clus>
<clus scale="  137.221">  1  9  2 -1</clus>
<clus scale="  167.383">  1  7  2 -1</clus>
<clus scale="  171.500">  2  5  1 -1</clus>
</clustering>
</event>
<event>
 9    1  0.2423659E-006  0.9284298E+02  0.7546771E-02  0.1297283E+00
          3   -1    0    0  502    0  0.00000000000E+00  0.00000000000E+00  0.55598997406E+03  0.55598997406E+03  0.00000000000E+00 0. -1.
         -3   -1    0    0    0  501 -0.00000000000E+00 -0.00000000000E+00 -0.35077258514E+02  0.35077258514E+02  0.00000000000E+00 0.  1.
         23    2    1    2    0    0  0.19762982727E+02 -0.16754104449E+02  0.11137710456E+03  0.14676368883E+03  0.91996986026E+02 0.  0.
         23    2    1    2    0    0  0.22499169668E+02  0.79417299026E+01  0.12156098216E+03  0.15311093683E+03  0.89981125155E+02 0.  0.
        -11    1    4    4    0    0  0.49497012193E+02 -0.20753409796E+02  0.71657949669E+02  0.89529436416E+02  0.00000000000E+00 0.  1.
         11    1    4    4    0    0 -0.26997842525E+02  0.28695139698E+02  0.49903032491E+02  0.63581500416E+02  0.00000000000E+00 0. -1.
        -11    1    3    3    0    0 -0.13056978072E+01 -0.52302091454E+02  0.47372546260E+02  0.70578833629E+02  0.00000000000E+00 0.  1.
         11    1    3    3    0    0  0.21068680534E+02  0.35547987005E+02  0.64004558296E+02  0.76184855203E+02  0.00000000000E+00 0. -1.
         21    1    1    2  502  501 -0.42262152395E+02  0.88123745461E+01  0.28797462883E+03  0.29119260692E+03  0.00000000000E+00 0. -1.
<scales pt_clust_5="13000.00000" pt_clust_6="13000.00000" pt_clust_7="13000.00000" pt_clust_8="13000.00000" pt_clust_9="43.17114"></scales>
<clustering>
<clus scale="   43.171">  1  9  2 -1</clus>
<clus scale="   89.981">  5  6 -1 -1</clus>
<clus scale="   90.846">  1  5  2 -1</clus>
<clus scale="   91.997">  7  8 -1 -1</clus>
<clus scale="   43.171">  1  5  2 -1</clus>
</clustering>
</event>
<event>
 9    1  0.2423659E-006  0.2378589E+03  0.7546771E-02  0.1121496E+00
          1   -1    0    0  502    0  0.00000000000E+00  0.00000000000E+00  0.11604436740E+04  0.11604436740E+04  0.00000000000E+00 0. -1.
         -1   -1    0    0    0  501 -0.00000000000E+00 -0.00000000000E+00 -0.59112119959E+02  0.59112119959E+02  0.00000000000E+00 0.  1.
         23    2    1    2    0    0  0.20455841391E+02 -0.20296292610E+03  0.45383208318E+03  0.50582409301E+03  0.91005837882E+02 0.  0.
         23    2    1    2    0    0 -0.37361880471E+02  0.23153528253E+03  0.62620768973E+03  0.67429144671E+03  0.86766279543E+02 0.  0.
        -11    1    3    3    0    0  0.35458354257E+02 -0.18053387556E+03  0.31843556443E+03  0.36776484852E+03  0.00000000000E+00 0.  1.
         11    1    3    3    0    0 -0.15002512866E+02 -0.22429050539E+02  0.13539651875E+03  0.13805924449E+03  0.00000000000E+00 0. -1.
        -13    1    4    4    0    0  0.13875134819E+02  0.14457963882E+03  0.42605183123E+03  0.45012881959E+03  0.00000000000E+00 0.  1.
         13    1    4    4    0    0 -0.51237015291E+02  0.86955643705E+02  0.20015585850E+03  0.22416262712E+03  0.00000000000E+00 0. -1.
         21    1    1    2  502  501  0.16906039080E+02 -0.28572356429E+02  0.21291781095E+02  0.39440254202E+02  0.00000000000E+00 0.  1.
<scales pt_clust_5="13000.00000" pt_clust_6="13000.00000" pt_clust_7="13000.00000" pt_clust_8="13000.00000" pt_clust_9="33.19930"></scales>
<clustering>
<clus scale="   33.199">  2  9  1 -1</clus>
<clus scale="   86.766">  7  8 -1 -1</clus>
<clus scale="   91.006">  5  6 -1 -1</clus>
<clus scale="  236.269">  1  7  2 -1</clus>
<clus scale="  236.269">  1  5  2 -1</clus>
</clustering>
</event>
<event>
 9    1  0.2423659E-006  0.1401191E+03  0.7546771E-02  0.1213470E+00
          1   -1    0    0  502    0  0.00000000000E+00  0.00000000000E+00  0.36930845621E+03  0.36930845621E+03  0.00000000000E+00 0. -1.
         -1   -1    0    0    0  501 -0.00000000000E+00 -0.00000000000E+00 -0.10914222188E+03  0.10914222188E+03  0.00000000000E+00 0.  1.
         23    2    1    2    0    0  0.64205676690E+02 -0.11676537036E+03  0.14621339651E+02  0.16269506906E+03  0.92192089072E+02 0.  0.
         23    2    1    2    0    0 -0.30522517444E+02  0.35549588451E+02  0.17653402168E+03  0.20398325538E+03  0.90826815181E+02 0.  0.
        -11    1    4    4    0    0  0.56206206773E+01 -0.27990585987E+02  0.59511522472E+02  0.66005193642E+02  0.00000000000E+00 0.  1.
         11    1    4    4    0    0 -0.36143138121E+02  0.63540174439E+02  0.11702249920E+03  0.13797806174E+03  0.00000000000E+00 0. -1.
        -13    1    3    3    0    0  0.52038785534E+02 -0.38350037477E+02  0.43868746560E+02  0.78123155972E+02  0.00000000000E+00 0. -1.
         13    1    3    3    0    0  0.12166891156E+02 -0.78415332888E+02 -0.29247406909E+02  0.84571913087E+02  0.00000000000E+00 0.  1.
         21    1    1    2  502  501 -0.33683159246E+02  0.81215781913E+02  0.69010873001E+02  0.11177235365E+03  0.00000000000E+00 0. -1.
<scales pt_clust_5="13000.00000" pt_clust_6="13000.00000" pt_clust_7="13000.00000" pt_clust_8="13000.00000" pt_clust_9="87.92359"></scales>
<clustering>
<clus scale="   87.924">  1  9  2 -1</clus>
<clus scale="   90.827">  5  6 -1 -1</clus>
<clus scale="   92.192">  7  8 -1 -1</clus>
<clus scale="  139.225">  1  5  2 -1</clus>
<clus scale="   87.924">  1  5  2 -1</clus>
</clustering>
</event>
<event>
 9    1  0.2423659E-006  0.3104253E+03  0.7546771E-02  0.1117565E+00
          1   -1    0    0  502    0  0.00000000000E+00  0.00000000000E+00  0.20449811193E+04  0.20449811193E+04  0.00000000000E+00 0. -1.
         -1   -1    0    0    0  501 -0.00000000000E+00 -0.00000000000E+00 -0.72034535619E+02  0.72034535619E+02  0.00000000000E+00 0.  1.
         23    2    1    2    0    0  0.13221339861E+03 -0.21163620145E+03  0.10430098527E+04  0.10761385795E+04  0.89075388837E+02 0.  0.
         23    2    1    2    0    0  0.22941479316E+02 -0.70588800917E+02  0.43380003077E+03  0.44937423232E+03  0.90805526785E+02 0.  0.
        -13    1    3    3    0    0  0.43518357363E+02 -0.24108595118E+02  0.11629963213E+03  0.12649377937E+03  0.00000000000E+00 0. -1.
         13    1    3    3    0    0  0.88695041252E+02 -0.18752760633E+03  0.92671022060E+03  0.94964480015E+03  0.00000000000E+00 0.  1.
        -13    1    4    4    0    0  0.46467383837E+02 -0.13995436475E+02  0.27320623623E+03  0.27748285987E+03  0.00000000000E+00 0. -1.
         13    1    4    4    0    0 -0.23525904521E+02 -0.56593364443E+02  0.16059379454E+03  0.17189137246E+03  0.00000000000E+00 0.  1.
         21    1    1    2  502  501 -0.15515487793E+03  0.28222500237E+03  0.49613670022E+03  0.59150284311E+03  0.00000000000E+00 0.  1.
<scales pt_clust_5="13000.00000" pt_clust_6="13000.00000" pt_clust_7="13000.00000" pt_clust_8="13000.00000" pt_clust_9="297.37089"></scales>
<clustering>
<clus scale="   89.075">  5  6 -1 -1</clus>
<clus scale="   90.806">  7  8 -1 -1</clus>
<clus scale="  117.281">  1  7  2 -1</clus>
<clus scale="  297.371">  2  9  1 -1</clus>
<clus scale="  117.281">  1  5  2 -1</clus>
</clustering>
</event>
<event>
 9    1  0.2423659E-006  0.1003566E+03  0.7546771E-02  0.1280587E+00
          2   -1    0    0  502    0  0.00000000000E+00  0.00000000000E+00  0.42479903239E+02  0.42479903239E+02  0.00000000000E+00 0. -1.
         -2   -1    0    0    0  501 -0.00000000000E+00 -0.00000000000E+00 -0.59821953744E+03  0.59821953744E+03  0.00000000000E+00 0.  1.
         23    2    1    2    0    0  0.41671213980E+02 -0.28210133231E+02 -0.38456518639E+03  0.39906899526E+03  0.93986055869E+02 0.  0.
         23    2    1    2    0    0 -0.17701775657E+02 -0.27936879773E+02 -0.14587816138E+03  0.17554774610E+03  0.91884444164E+02 0.  0.
        -13    1    4    4    0    0  0.21339602070E+02 -0.79773057786E+00  0.78585832965E+00  0.21368962631E+02  0.00000000000E+00 0.  1.
         13    1    4    4    0    0 -0.39041377727E+02 -0.27139149195E+02 -0.14666401971E+03  0.15417878347E+03  0.00000000000E+00 0. -1.
        -13    1    3    3    0    0  0.38435712942E+02 -0.54354279112E+02 -0.34612170404E+03  0.35246549575E+03  0.00000000000E+00 0.  1.
         13    1    3    3    0    0  0.32355010382E+01  0.26144145881E+02 -0.38443482359E+02  0.46603499511E+02  0.00000000000E+00 0. -1.
         21    1    1    2  502  501 -0.23969438323E+02  0.56147013005E+02 -0.25296286424E+02  0.66082699322E+02  0.00000000000E+00 0.  1.
<scales pt_clust_5="13000.00000" pt_clust_6="13000.00000" pt_clust_7="13000.00000" pt_clust_8="13000.00000" pt_clust_9="61.04933"></scales>
<clustering>
<clus scale="   61.049">  1  9  2 -1</clus>
<clus scale="   91.884">  5  6 -1 -1</clus>
<clus scale="   93.986">  7  8 -1 -1</clus>
<clus scale="   98.391">  1  5  2 -1</clus>
<clus scale="   61.049">  1  5  2 -1</clus>
</clustering>
</event>
<event>
 9    1  0.2423659E-006  0.9674627E+02  0.7546771E-02  0.1287465E+00
          1   -1    0    0  502    0  0.00000000000E+00  0.00000000000E+00  0.19681310470E+03  0.19681310470E+03  0.00000000000E+00 0. -1.
         -1   -1    0    0    0  501 -0.00000000000E+00 -0.00000000000E+00 -0.23405585370E+03  0.23405585370E+03  0.00000000000E+00 0.  1.
         23    2    1    2    0    0  0.12003570705E+02  0.15328549248E+02 -0.19393663900E+03  0.21503457673E+03  0.90826202775E+02 0.  0.
         23    2    1    2    0    0  0.62395536460E+01 -0.33075803376E+02  0.16285736412E+03  0.18964726598E+03  0.91162621982E+02 0.  0.
        -11    1    4    4    0    0  0.30580970265E+02 -0.43650371870E+02  0.47875153999E+02  0.71642034290E+02  0.00000000000E+00 0. -1.
         11    1    4    4    0    0 -0.24341416619E+02  0.10574568494E+02  0.11498221012E+03  0.11800523169E+03  0.00000000000E+00 0.  1.
        -13    1    3    3    0    0  0.34966212673E+02 -0.21489906424E+01 -0.17927585706E+03  0.18266660098E+03  0.00000000000E+00 0.  1.
         13    1    3    3    0    0 -0.22962641968E+02  0.17477539891E+02 -0.14660781936E+02  0.32367975744E+02  0.00000000000E+00 0. -1.
         21    1    1    2  502  501 -0.18243124351E+02  0.17747254128E+02 -0.61634741141E+01  0.26187115693E+02  0.00000000000E+00 0. -1.
<scales pt_clust_5="13000.00000" pt_clust_6="13000.00000" pt_clust_7="13000.00000" pt_clust_8="13000.00000" pt_clust_9="25.45146"></scales>
<clustering>
<clus scale="   25.451">  2  9  1 -1</clus>
<clus scale="   90.826">  7  8 -1 -1</clus>
<clus scale="   91.163">  5  6 -1 -1</clus>
<clus scale="   96.429">  2  7  1 -1</clus>
<clus scale="   96.746">  1  5  2 -1</clus>
</clustering>
</event>
<event>
 9    1  0.2423659E-006  0.9269659E+02  0.7546771E-02  0.1297697E+00
         -2   -1    0    0    0  501 -0.00000000000E+00  0.00000000000E+00  0.15249615697E+02  0.15249615697E+02  0.00000000000E+00 0.  1.
          2   -1    0    0  502    0  0.00000000000E+00 -0.00000000000E+00 -0.12239849391E+04  0.12239849391E+04  0.00000000000E+00 0. -1.
         23    2    1    2    0    0  0.27296593889E+02  0.25408207109E+02 -0.38300219641E+03  0.39484213175E+03  0.88424801517E+02 0.  0.
         23    2    1    2    0    0  0.45731900389E+02 -0.10895809934E+02 -0.48225962919E+03  0.49294141033E+03  0.90591162280E+02 0.  0.
        -11    1    3    3    0    0 -0.25852643499E+02  0.30987246331E+02 -0.12462337316E+03  0.13099447984E+03  0.00000000000E+00 0.  1.
         11    1    3    3    0    0  0.53149237388E+02 -0.55790392214E+01 -0.25837882326E+03  0.26384765191E+03  0.00000000000E+00 0. -1.
        -11    1    4    4    0    0  0.11487956226E+02 -0.48090332690E+02 -0.18926028721E+03  0.19561214060E+03  0.00000000000E+00 0.  1.
         11    1    4    4    0    0  0.34243944163E+02  0.37194522756E+02 -0.29299934198E+03  0.29732926973E+03  0.00000000000E+00 0. -1.
         21    1    1    2  502  501 -0.73028494278E+02 -0.14512397175E+02 -0.34347349781E+03  0.35145101273E+03  0.00000000000E+00 0.  1.
<scales pt_clust_5="13000.00000" pt_clust_6="13000.00000" pt_clust_7="13000.00000" pt_clust_8="13000.00000" pt_clust_9="74.45650"></scales>
<clustering>
<clus scale="   74.457">  2  9  1 -1</clus>
<clus scale="   88.425">  5  6 -1 -1</clus>
<clus scale="   90.581">  1  5  2 -1</clus>
<clus scale="   90.591">  7  8 -1 -1</clus>
<clus scale="   74.457">  2  5  1 -1</clus>
</clustering>
</event>
<event>
 9    1  0.2423659E-006  0.2577245E+03  0.7546771E-02  0.1137994E+00
         -2   -1    0    0    0  501 -0.00000000000E+00  0.00000000000E+00  0.28840663302E+03  0.28840663302E+03  0.00000000000E+00 0.  1.
          2   -1    0    0  502    0  0.00000000000E+00 -0.00000000000E+00 -0.36614937299E+03  0.36614937299E+03  0.00000000000E+00 0. -1.
         23    2    1    2    0    0  0.48391647514E+02  0.70737054265E+02  0.39813208438E+02  0.13007665271E+03  0.89383228959E+02 0.  0.
         23    2    1    2    0    0 -0.14267627354E+03  0.17015219851E+03 -0.20841888043E+00  0.24042360966E+03  0.92169295091E+02 0.  0.
        -11    1    4    4    0    0 -0.11344338651E+03  0.14421360734E+03 -0.36510779468E+02  0.18708287870E+03  0.00000000000E+00 0. -1.
         11    1    4    4    0    0 -0.29232887028E+02  0.25938591170E+02  0.36302360587E+02  0.53340730967E+02  0.00000000000E+00 0.  1.
        -13    1    3    3    0    0 -0.23091602217E+02  0.87688236814E+01 -0.53062953106E+01  0.25264028413E+02  0.00000000000E+00 0.  1.
         13    1    3    3    0    0  0.71483249731E+02  0.61968230583E+02  0.45119503749E+02  0.10481262430E+03  0.00000000000E+00 0. -1.
         21    1    1    2  502  501  0.94284626025E+02 -0.24088925277E+03 -0.11734752954E+03  0.28405574364E+03  0.00000000000E+00 0.  1.
<scales pt_clust_5="13000.00000" pt_clust_6="13000.00000" pt_clust_7="13000.00000" pt_clust_8="13000.00000" pt_clust_9="240.67978"></scales>
<clustering>
<clus scale="   89.383">  7  8 -1 -1</clus>
<clus scale="   92.169">  5  6 -1 -1</clus>
<clus scale="  123.834">  1  7  2 -1</clus>
<clus scale="  240.680">  2  9  1 -1</clus>
<clus scale="  240.680">  2  5  1 -1</clus>
</clustering>
</event>
<event>
 9    1  0.2423659E-006  0.1134266E+03  0.7546771E-02  0.1256460E+00
         -1   -1    0    0    0  501 -0.00000000000E+00  0.00000000000E+00  0.13171062644E+03  0.13171062644E+03  0.00000000000E+00 0.  1.
          1   -1    0    0  502    0  0.00000000000E+00 -0.00000000000E+00 -0.43542378833E+03  0.43542378833E+03  0.00000000000E+00 0. -1.
         23    2    1    2    0    0 -0.72453910179E+01 -0.87850156564E+02  0.46782282254E+02  0.13817435140E+03  0.95568947645E+02 0.  0.
         23    2    1    2    0    0  0.26065303143E+02  0.18660362720E+02 -0.29430024356E+02  0.99985261223E+02  0.90018425689E+02 0.  0.
        -11    1    4    4    0    0 -0.85245491443E+01 -0.25589242859E+02 -0.34271610638E+02  0.43612160964E+02  0.00000000000E+00 0.  1.
         11    1    4    4    0    0  0.34589852287E+02  0.44249605579E+02  0.48415862822E+01  0.56373100260E+02  0.00000000000E+00 0. -1.
        -11    1    3    3    0    0  0.21683846016E+02 -0.95647321505E+02  0.25233980532E+02  0.10126871710E+03  0.00000000000E+00 0.  1.
         11    1    3    3    0    0 -0.28929237034E+02  0.77971649412E+01  0.21548301722E+02  0.36905634307E+02  0.00000000000E+00 0. -1.
         21    1    1    2  502  501 -0.18819912125E+02  0.69189793844E+02 -0.32106541979E+03  0.32897480215E+03  0.00000000000E+00 0. -1.
<scales pt_clust_5="13000.00000" pt_clust_6="13000.00000" pt_clust_7="13000.00000" pt_clust_8="13000.00000" pt_clust_9="71.70367"></scales>
<clustering>
<clus scale="   71.704">  2  9  1 -1</clus>
<clus scale="   90.018">  5  6 -1 -1</clus>
<clus scale="   95.569">  7  8 -1 -1</clus>
<clus scale="  108.791">  2  5  1 -1</clus>
<clus scale="   71.704">  2  5  1 -1</clus>
</clustering>
</event>
<event>
 9    1  0.2423659E-006  0.2116763E+03  0.7546771E-02  0.1165800E+00
         -1   -1    0    0    0  501 -0.00000000000E+00  0.00000000000E+00  0.84332576332E+03  0.84332576332E+03  0.00000000000E+00 0.  1.
          1   -1    0    0  502    0  0.00000000000E+00 -0.00000000000E+00 -0.94554482825E+02  0.94554482825E+02  0.00000000000E+00 0. -1.
         23    2    1    2    0    0  0.63335557688E+02  0.18088452288E+02  0.23295053130E+03  0.26019039116E+03  0.95365112312E+02 0.  0.
         23    2    1    2    0    0  0.14503514974E+03 -0.33455861185E+02  0.40542888260E+03  0.44138311962E+03  0.91060365331E+02 0.  0.
        -11    1    4    4    0    0  0.83998712044E+02  0.16765366085E+02  0.28280442092E+03  0.29549145777E+03  0.00000000000E+00 0.  1.
         11    1    4    4    0    0  0.61036437692E+02 -0.50221227270E+02  0.12262446168E+03  0.14589166185E+03  0.00000000000E+00 0. -1.
        -13    1    3    3    0    0  0.25434164308E+02 -0.36699745947E+02  0.13102037595E+03  0.13842003822E+03  0.00000000000E+00 0.  1.
         13    1    3    3    0    0  0.37901393379E+02  0.54788198235E+02  0.10193015534E+03  0.12177035294E+03  0.00000000000E+00 0. -1.
         21    1    1    2  502  501 -0.20837070742E+03  0.15367408897E+02  0.11039186660E+03  0.23630673537E+03  0.00000000000E+00 0. -1.
<scales pt_clust_5="13000.00000" pt_clust_6="13000.00000" pt_clust_7="13000.00000" pt_clust_8="13000.00000" pt_clust_9="191.08858"></scales>
<clustering>
<clus scale="   91.060">  5  6 -1 -1</clus>
<clus scale="   95.365">  7  8 -1 -1</clus>
<clus scale="  115.901">  1  7  2 -1</clus>
<clus scale="  191.089">  2  9  1 -1</clus>
<clus scale="  191.089">  2  5  1 -1</clus>
</clustering>
</event>
<event>
 9    1  0.2423659E-006  0.1467594E+03  0.7546771E-02  0.1222255E+00
          2   -1    0    0  502    0  0.00000000000E+00  0.00000000000E+00  0.14743323038E+04  0.14743323038E+04  0.00000000000E+00 0. -1.
         -2   -1    0    0    0  501 -0.00000000000E+00 -0.00000000000E+00 -0.37115321888E+02  0.37115321888E+02  0.00000000000E+00 0.  1.
         23    2    1    2    0    0  0.40293621645E+02  0.17462432931E+02  0.12353846500E+03  0.15937567219E+03  0.90610926720E+02 0.  0.
         23    2    1    2    0    0  0.40443083924E+02  0.92938921036E+02  0.24378472045E+03  0.27347118849E+03  0.71289655121E+02 0.  0.
        -11    1    4    4    0    0  0.55806393888E+01  0.86214689182E+02  0.14873227128E+03  0.17200408334E+03  0.00000000000E+00 0.  1.
         11    1    4    4    0    0  0.34862444535E+02  0.67242318534E+01  0.95052449172E+02  0.10146710515E+03  0.00000000000E+00 0. -1.
        -13    1    3    3    0    0 -0.18883963759E+01  0.41261363348E+02  0.21816527918E+02  0.46712172254E+02  0.00000000000E+00 0.  1.
         13    1    3    3    0    0  0.42182018021E+02 -0.23798930418E+02  0.10172193708E+03  0.11266349993E+03  0.00000000000E+00 0. -1.
         21    1    1    2  502  501 -0.80736705569E+02 -0.11040135397E+03  0.10698937965E+04  0.10786007651E+04  0.00000000000E+00 0. -1.
<scales pt_clust_5="13000.00000" pt_clust_6="13000.00000" pt_clust_7="13000.00000" pt_clust_8="13000.00000" pt_clust_9="128.28138"></scales>
<clustering>
<clus scale="   71.290">  5  6 -1 -1</clus>
<clus scale="   90.611">  7  8 -1 -1</clus>
<clus scale="  100.692">  2  7  1 -1</clus>
<clus scale="  128.281">  1  9  2 -1</clus>
<clus scale="  128.281">  1  5  2 -1</clus>
</clustering>
</event>
<event>
 9    1  0.2423659E-006  0.2185491E+03  0.7546771E-02  0.1151288E+00
         -2   -1    0    0    0  501 -0.00000000000E+00  0.00000000000E+00  0.26926735279E+03  0.26926735279E+03  0.00000000000E+00 0.  1.
          2   -1    0    0  502    0  0.00000000000E+00 -0.00000000000E+00 -0.39041453828E+03  0.39041453828E+03  0.00000000000E+00 0. -1.
         23    2    1    2    0    0  0.17872673201E+03  0.61235534961E+01  0.45504136919E+02  0.20267661542E+03  0.83823870822E+02 0.  0.
         23    2    1    2    0    0  0.86230586102E+02 -0.76899446192E+02 -0.30712295813E+02  0.15091537650E+03  0.92103023547E+02 0.  0.
        -13    1    3    3    0    0  0.15625434375E+03  0.30228351554E+02  0.18795811768E+02  0.16025746696E+03  0.00000000000E+00 0.  1.
         13    1    3    3    0    0  0.22472388266E+02 -0.24104798058E+02  0.26708325151E+02  0.42419148461E+02  0.00000000000E+00 0. -1.
        -13    1    4    4    0    0  0.74928493906E+02 -0.51846502175E+01 -0.17572830324E+02  0.77136010802E+02  0.00000000000E+00 0.  1.
         13    1    4    4    0    0  0.11302092196E+02 -0.71714795975E+02 -0.13139465490E+02  0.73779365700E+02  0.00000000000E+00 0. -1.
         21    1    1    2  502  501 -0.26495731811E+03  0.70775892696E+02 -0.13593902659E+03  0.30608989914E+03  0.00000000000E+00 0. -1.
<scales pt_clust_5="13000.00000" pt_clust_6="13000.00000" pt_clust_7="13000.00000" pt_clust_8="13000.00000" pt_clust_9="201.83473"></scales>
<clustering>
<clus scale="   83.824">  5  6 -1 -1</clus>
<clus scale="   92.103">  7  8 -1 -1</clus>
<clus scale="  147.757">  2  7  1 -1</clus>
<clus scale="  201.835">  2  9  1 -1</clus>
<clus scale="  147.757">  2  5  1 -1</clus>
</clustering>
</event>
<event>
 9    1  0.2423659E-006  0.1684247E+03  0.7546771E-02  0.1195206E+00
          2   -1    0    0  502    0  0.00000000000E+00  0.00000000000E+00  0.43938061069E+03  0.43938061069E+03  0.00000000000E+00 0. -1.
         -2   -1    0    0    0  501 -0.00000000000E+00 -0.00000000000E+00 -0.14433274470E+03  0.14433274470E+03  0.00000000000E+00 0.  1.
         23    2    1    2    0    0 -0.86707027500E+02 -0.64162916064E+02  0.36710366890E+02  0.14716936631E+03  0.93146030120E+02 0.  0.
         23    2    1    2    0    0 -0.39412045579E+02 -0.63473824462E+02  0.22439342770E+03  0.25392592286E+03  0.92432289687E+02 0.  0.
        -13    1    3    3    0    0 -0.37939873998E+02 -0.80146383470E+02  0.36388148568E+02  0.95848704626E+02  0.00000000000E+00 0. -1.
         13    1    3    3    0    0 -0.48767153501E+02  0.15983467406E+02  0.32221832125E+00  0.51320661683E+02  0.00000000000E+00 0.  1.
        -13    1    4    4    0    0 -0.82400475927E+01 -0.81818407909E+02  0.16570278417E+03  0.18498530466E+03  0.00000000000E+00 0. -1.
         13    1    4    4    0    0 -0.31171997986E+02  0.18344583447E+02  0.58690643534E+02  0.68940618207E+02  0.00000000000E+00 0.  1.
         21    1    1    2  502  501  0.12611907308E+03  0.12763674053E+03  0.33944071393E+02  0.18261806622E+03  0.00000000000E+00 0.  1.
<scales pt_clust_5="13000.00000" pt_clust_6="13000.00000" pt_clust_7="13000.00000" pt_clust_8="13000.00000" pt_clust_9="140.32359"></scales>
<clustering>
<clus scale="   92.432">  7  8 -1 -1</clus>
<clus scale="   93.146">  5  6 -1 -1</clus>
<clus scale="  118.853">  1  7  2 -1</clus>
<clus scale="  140.324">  1  9  2 -1</clus>
<clus scale="  118.853">  1  5  2 -1</clus>
</clustering>
</event>
<event>
 9    1  0.2423659E-006  0.1884671E+03  0.7546771E-02  0.1166709E+00
         -2   -1    0    0    0  501 -0.00000000000E+00  0.00000000000E+00  0.28108126167E+03  0.28108126167E+03  0.00000000000E+00 0.  1.
          2   -1    0    0  502    0  0.00000000000E+00 -0.00000000000E+00 -0.32569492213E+03  0.32569492213E+03  0.00000000000E+00 0. -1.
         23    2    1    2    0    0  0.71556156442E+02 -0.12906449161E+03 -0.54927239889E+02  0.18252400531E+03  0.92304302784E+02 0.  0.
         23    2    1    2    0    0  0.10636197862E+03  0.78619422682E+02 -0.11775023799E+03  0.19930794298E+03  0.91458479479E+02 0.  0.
        -11    1    4    4    0    0  0.35521529007E+02  0.33247985263E+02 -0.10298209400E+03  0.11389696762E+03  0.00000000000E+00 0.  1.
         11    1    4    4    0    0  0.70840449617E+02  0.45371437419E+02 -0.14768143984E+02  0.85410975362E+02  0.00000000000E+00 0. -1.
        -13    1    3    3    0    0  0.16710644630E+02 -0.10681266620E+03 -0.10705385838E+02  0.10864067650E+03  0.00000000000E+00 0. -1.
         13    1    3    3    0    0  0.54845511812E+02 -0.22251825410E+02 -0.44221854051E+02  0.73883328807E+02  0.00000000000E+00 0.  1.
         21    1    1    2  502  501 -0.17791813507E+03  0.50445068925E+02  0.12806381742E+03  0.22494423552E+03  0.00000000000E+00 0.  1.
<scales pt_clust_5="13000.00000" pt_clust_6="13000.00000" pt_clust_7="13000.00000" pt_clust_8="13000.00000" pt_clust_9="164.31610"></scales>
<clustering>
<clus scale="   91.458">  5  6 -1 -1</clus>
<clus scale="   92.304">  7  8 -1 -1</clus>
<clus scale="  160.806">  2  5  1 -1</clus>
<clus scale="  164.316">  1  9  2 -1</clus>
<clus scale="  160.806">  2  5  1 -1</clus>
</clustering>
</event>
<event>
 9    1  0.2423659E-006  0.1000606E+03  0.7546771E-02  0.1280569E+00
          2   -1    0    0  502    0  0.00000000000E+00  0.00000000000E+00  0.83115718651E+03  0.83115718651E+03  0.00000000000E+00 0. -1.
         -2   -1    0    0    0  501 -0.00000000000E+00 -0.00000000000E+00 -0.37608311910E+02  0.37608311910E+02  0.00000000000E+00 0.  1.
         23    2    1    2    0    0  0.40632708654E+02 -0.11633720112E+02  0.62743557081E+02  0.11871745223E+03  0.91491633785E+02 0.  0.
         23    2    1    2    0    0 -0.10103050945E+02  0.55129637794E+02  0.58996049260E+03  0.59951160688E+03  0.90661101631E+02 0.  0.
        -11    1    3    3    0    0  0.43805239138E+02  0.22480269358E+02  0.68105316278E+02  0.84039250304E+02  0.00000000000E+00 0.  1.
         11    1    3    3    0    0 -0.31725304837E+01 -0.34113989470E+02 -0.53617591964E+01  0.34678201927E+02  0.00000000000E+00 0. -1.
        -13    1    4    4    0    0 -0.49360682024E+02  0.42513236522E+02  0.34282528366E+03  0.34895992224E+03  0.00000000000E+00 0. -1.
         13    1    4    4    0    0  0.39257631080E+02  0.12616401272E+02  0.24713520894E+03  0.25055168464E+03  0.00000000000E+00 0.  1.
         21    1    1    2  502  501 -0.30529657709E+02 -0.43495917682E+02  0.14084482492E+03  0.15053643931E+03  0.00000000000E+00 0. -1.
<scales pt_clust_5="13000.00000" pt_clust_6="13000.00000" pt_clust_7="13000.00000" pt_clust_8="13000.00000" pt_clust_9="53.14090"></scales>
<clustering>
<clus scale="   53.141">  1  9  2 -1</clus>
<clus scale="   90.661">  7  8 -1 -1</clus>
<clus scale="   91.492">  5  6 -1 -1</clus>
<clus scale="   99.302">  1  7  2 -1</clus>
<clus scale="   53.141">  1  5  2 -1</clus>
</clustering>
</event>
<event>
 9    1  0.2423659E-006  0.1190076E+03  0.7546771E-02  0.1246362E+00
          2   -1    0    0  502    0  0.00000000000E+00  0.00000000000E+00  0.19072640236E+03  0.19072640236E+03  0.00000000000E+00 0. -1.
         -2   -1    0    0    0  501 -0.00000000000E+00 -0.00000000000E+00 -0.10035214010E+03  0.10035214010E+03  0.00000000000E+00 0.  1.
         23    2    1    2    0    0  0.26387142585E+02  0.73229466203E+02  0.33644963789E+02  0.12871410979E+03  0.96832342002E+02 0.  0.
         23    2    1    2    0    0  0.10679397399E+02 -0.65601398577E+02  0.49197230080E+02  0.12377884136E+03  0.92104511821E+02 0.  0.
        -11    1    3    3    0    0  0.76621562564E+01  0.41590363030E+02 -0.32299247847E+02  0.53213798464E+02  0.00000000000E+00 0.  1.
         11    1    3    3    0    0  0.18724986328E+02  0.31639103173E+02  0.65944211636E+02  0.75500311330E+02  0.00000000000E+00 0. -1.
        -11    1    4    4    0    0  0.27577861422E+02 -0.78693394506E+02  0.57018533820E+02  0.10101634511E+03  0.00000000000E+00 0. -1.
         11    1    4    4    0    0 -0.16898464023E+02  0.13091995929E+02 -0.78213037397E+01  0.22762496259E+02  0.00000000000E+00 0.  1.
         21    1    1    2  502  501 -0.37066539983E+02 -0.76280676258E+01  0.75320683907E+01  0.38585591304E+02  0.00000000000E+00 0. -1.
<scales pt_clust_5="13000.00000" pt_clust_6="13000.00000" pt_clust_7="13000.00000" pt_clust_8="13000.00000" pt_clust_9="37.84331"></scales>
<clustering>
<clus scale="   37.843">  2  9  1 -1</clus>
<clus scale="   92.105">  7  8 -1 -1</clus>
<clus scale="   96.832">  5  6 -1 -1</clus>
<clus scale="  115.194">  1  7  2 -1</clus>
<clus scale="  115.194">  1  5  2 -1</clus>
</clustering>
</event>
<event>
 9    1  0.2423659E-006  0.1291001E+03  0.7546771E-02  0.1237294E+00
         -2   -1    0    0    0  501 -0.00000000000E+00  0.00000000000E+00  0.10216970751E+04  0.10216970751E+04  0.00000000000E+00 0.  1.
          2   -1    0    0  502    0  0.00000000000E+00 -0.00000000000E+00 -0.31242985470E+02  0.31242985470E+02  0.00000000000E+00 0. -1.
         23    2    1    2    0    0  0.50111007401E+02  0.36997922258E+02  0.34838411880E+03  0.36560958356E+03  0.91754640439E+02 0.  0.
         23    2    1    2    0    0  0.58066555675E+02  0.28591098727E+01  0.17192312389E+03  0.20325504296E+03  0.91515859635E+02 0.  0.
        -13    1    3    3    0    0  0.53944412835E+02  0.57509387297E+02  0.32427758215E+03  0.33372635435E+03  0.00000000000E+00 0.  1.
         13    1    3    3    0    0 -0.38334054338E+01 -0.20511465040E+02  0.24106536650E+02  0.31883229205E+02  0.00000000000E+00 0. -1.
        -13    1    4    4    0    0  0.79201897732E+02  0.10783435880E+02  0.15705645504E+03  0.17622699329E+03  0.00000000000E+00 0.  1.
         13    1    4    4    0    0 -0.21135342057E+02 -0.79243260071E+01  0.14866668850E+02  0.27028049675E+02  0.00000000000E+00 0. -1.
         21    1    1    2  502  501 -0.10817756308E+03 -0.39857032131E+02  0.47014684696E+03  0.48407543407E+03  0.00000000000E+00 0. -1.
<scales pt_clust_5="13000.00000" pt_clust_6="13000.00000" pt_clust_7="13000.00000" pt_clust_8="13000.00000" pt_clust_9="90.81801"></scales>
<clustering>
<clus scale="   91.516">  7  8 -1 -1</clus>
<clus scale="   91.755">  5  6 -1 -1</clus>
<clus scale="  108.421">  2  7  1 -1</clus>
<clus scale="   90.818">  2  9  1 -1</clus>
<clus scale="  108.421">  2  5  1 -1</clus>
</clustering>
</event>
<event>
 9    1  0.2423659E-006  0.1037802E+03  0.7546771E-02  0.1273269E+00
         -1   -1    0    0    0  501 -0.00000000000E+00  0.00000000000E+00  0.26893331133E+03  0.26893331133E+03  0.00000000000E+00 0.  1.
          1   -1    0    0  502    0  0.00000000000E+00 -0.00000000000E+00 -0.16784490387E+03  0.16784490387E+03  0.00000000000E+00 0. -1.
         23    2    1    2    0    0  0.16014752407E+02 -0.51512141430E+02  0.20711584736E+03  0.23203431698E+03  0.89626876663E+02 0.  0.
         23    2    1    2    0    0 -0.39608151724E+00  0.31028383254E+00 -0.11869955065E+03  0.14973339474E+03  0.91270219790E+02 0.  0.
        -11    1    4    4    0    0  0.25443654744E+02 -0.74064720773E+00  0.27116718318E+01  0.25598462632E+02  0.00000000000E+00 0.  1.
         11    1    4    4    0    0 -0.25839736261E+02  0.10509310403E+01 -0.12141122248E+03  0.12413493211E+03  0.00000000000E+00 0. -1.
        -13    1    3    3    0    0  0.35708351645E+01  0.23467034869E+02  0.23926216713E+02  0.33703359410E+02  0.00000000000E+00 0. -1.
         13    1    3    3    0    0  0.12443917242E+02 -0.74979176300E+02  0.18318963064E+03  0.19833095757E+03  0.00000000000E+00 0.  1.
         21    1    1    2  502  501 -0.15618670889E+02  0.51201857598E+02  0.12672110749E+02  0.55010503476E+02  0.00000000000E+00 0.  1.
<scales pt_clust_5="13000.00000" pt_clust_6="13000.00000" pt_clust_7="13000.00000" pt_clust_8="13000.00000" pt_clust_9="53.53105"></scales>
<clustering>
<clus scale="   53.531">  2  9  1 -1</clus>
<clus scale="   89.627">  7  8 -1 -1</clus>
<clus scale="   91.270">  5  6 -1 -1</clus>
<clus scale="  102.338">  1  7  2 -1</clus>
<clus scale="   53.531">  2  5  1 -1</clus>
</clustering>
</event>
<event>
 9    1  0.2423659E-006  0.1486276E+03  0.7546771E-02  0.1209580E+00
          1   -1    0    0  502    0  0.00000000000E+00  0.00000000000E+00  0.47180435953E+03  0.47180435953E+03  0.00000000000E+00 0. -1.
         -1   -1    0    0    0  501 -0.00000000000E+00 -0.00000000000E+00 -0.12996697354E+03  0.12996697354E+03  0.00000000000E+00 0.  1.
         23    2    1    2    0    0  0.56792712825E+02  0.10231858483E+03 -0.18997801375E+02  0.14930670060E+03  0.90758301860E+02 0.  0.
         23    2    1    2    0    0 -0.86361942059E+02  0.40882462125E+02  0.17092101142E+03  0.21278093800E+03  0.83258481170E+02 0.  0.
        -11    1    3    3    0    0  0.80863818499E+02  0.74834192652E+02 -0.53556057180E+01  0.11030773339E+03  0.00000000000E+00 0.  1.
         11    1    3    3    0    0 -0.24071105674E+02  0.27484392178E+02 -0.13642195657E+02  0.38998967218E+02  0.00000000000E+00 0. -1.
        -13    1    4    4    0    0 -0.23064170649E+02 -0.97405986967E+01  0.10605187111E+03  0.10896712622E+03  0.00000000000E+00 0. -1.
         13    1    4    4    0    0 -0.63297771410E+02  0.50623060822E+02  0.64869140313E+02  0.10381381179E+03  0.00000000000E+00 0.  1.
         21    1    1    2  502  501  0.29569229234E+02 -0.14320104695E+03  0.18991417594E+03  0.23968369446E+03  0.00000000000E+00 0. -1.
<scales pt_clust_5="13000.00000" pt_clust_6="13000.00000" pt_clust_7="13000.00000" pt_clust_8="13000.00000" pt_clust_9="117.69916"></scales>
<clustering>
<clus scale="   83.258">  7  8 -1 -1</clus>
<clus scale="   90.758">  5  6 -1 -1</clus>
<clus scale="  126.735">  1  7  2 -1</clus>
<clus scale="  117.699">  1  9  2 -1</clus>
<clus scale="  126.735">  1  5  2 -1</clus>
</clustering>
</event>
<event>
 9    1  0.2423659E-006  0.1327901E+03  0.7546771E-02  0.1223525E+00
         -1   -1    0    0    0  501 -0.00000000000E+00  0.00000000000E+00  0.98605739079E+02  0.98605739079E+02  0.00000000000E+00 0.  1.
          1   -1    0    0  502    0  0.00000000000E+00 -0.00000000000E+00 -0.69389896778E+03  0.69389896778E+03  0.00000000000E+00 0. -1.
         23    2    1    2    0    0  0.45097504626E+02  0.10059292913E+03  0.18303337956E+02  0.14540911378E+03  0.93038034567E+02 0.  0.
         23    2    1    2    0    0 -0.39083204561E+02 -0.28631755761E+02 -0.18911581553E+03  0.21651634328E+03  0.93633652642E+02 0.  0.
        -11    1    4    4    0    0  0.98691389906E+01  0.26148830572E+02 -0.28609833968E+02  0.39996047859E+02  0.00000000000E+00 0.  1.
         11    1    4    4    0    0 -0.48952343551E+02 -0.54780586333E+02 -0.16050598157E+03  0.17652029542E+03  0.00000000000E+00 0. -1.
        -11    1    3    3    0    0  0.47212930592E+02  0.80084352448E+02  0.51540457693E+02  0.10629667493E+03  0.00000000000E+00 0.  1.
         11    1    3    3    0    0 -0.21154259665E+01  0.20508576683E+02 -0.33237119737E+02  0.39112438852E+02  0.00000000000E+00 0. -1.
         21    1    1    2  502  501 -0.60143000648E+01 -0.71961173370E+02 -0.42448075112E+03  0.43057924979E+03  0.00000000000E+00 0. -1.
<scales pt_clust_5="13000.00000" pt_clust_6="13000.00000" pt_clust_7="13000.00000" pt_clust_8="13000.00000" pt_clust_9="72.21206"></scales>
<clustering>
<clus scale="   72.212">  2  9  1 -1</clus>
<clus scale="   93.038">  7  8 -1 -1</clus>
<clus scale="   93.634">  5  6 -1 -1</clus>
<clus scale="  132.371">  1  7  2 -1</clus>
<clus scale="   72.212">  2  5  1 -1</clus>
</clustering>
</event>
<event>
 9    1  0.2423659E-006  0.1000397E+03  0.7546771E-02  0.1280677E+00
         -2   -1    0    0    0  501 -0.00000000000E+00  0.00000000000E+00  0.77461961734E+02  0.77461961734E+02  0.00000000000E+00 0.  1.
          2   -1    0    0  502    0  0.00000000000E+00 -0.00000000000E+00 -0.34177401585E+03  0.34177401585E+03  0.00000000000E+00 0. -1.
         23    2    1    2    0    0  0.10161120546E+02 -0.33460644955E+02  0.24015715386E+01  0.96262386785E+02  0.89653870146E+02 0.  0.
         23    2    1    2    0    0  0.25829101466E+02  0.79785356174E+02 -0.18193833279E+03  0.21988079168E+03  0.90626486576E+02 0.  0.
        -13    1    4    4    0    0 -0.15053144894E+01  0.92339208836E+02 -0.14877814781E+03  0.17511062996E+03  0.00000000000E+00 0. -1.
         13    1    4    4    0    0  0.27334415956E+02 -0.12553852663E+02 -0.33160184983E+02  0.44770161720E+02  0.00000000000E+00 0.  1.
        -13    1    3    3    0    0 -0.37552082198E+02 -0.75707370343E+01  0.13939499243E+02  0.40764992037E+02  0.00000000000E+00 0. -1.
         13    1    3    3    0    0  0.47713202743E+02 -0.25889907920E+02 -0.11537927704E+02  0.55497394748E+02  0.00000000000E+00 0.  1.
         21    1    1    2  502  501 -0.35990222012E+02 -0.46324711219E+02 -0.84775292865E+02  0.10309279912E+03  0.00000000000E+00 0.  1.
<scales pt_clust_5="13000.00000" pt_clust_6="13000.00000" pt_clust_7="13000.00000" pt_clust_8="13000.00000" pt_clust_9="58.66238"></scales>
<clustering>
<clus scale="   58.662">  2  9  1 -1</clus>
<clus scale="   89.654">  7  8 -1 -1</clus>
<clus scale="   90.626">  5  6 -1 -1</clus>
<clus scale="   99.159">  1  7  2 -1</clus>
<clus scale="   58.662">  2  5  1 -1</clus>
</clustering>
</event>
<event>
 9    1  0.2423659E-006  0.1009671E+03  0.7546771E-02  0.1279695E+00
          1   -1    0    0  502    0  0.00000000000E+00  0.00000000000E+00  0.72005591259E+03  0.72005591259E+03  0.00000000000E+00 0. -1.
         -1   -1    0    0    0  501 -0.00000000000E+00 -0.00000000000E+00 -0.32287288671E+02  0.32287288671E+02  0.00000000000E+00 0.  1.
         23    2    1    2    0    0  0.10840687642E+02  0.32365077297E+02  0.12025322906E+03  0.15360545417E+03  0.89268010578E+02 0.  0.
         23    2    1    2    0    0 -0.73067144886E+02 -0.52881735692E+02  0.35033613222E+03  0.37189000659E+03  0.86206066091E+02 0.  0.
        -11    1    3    3    0    0 -0.13494187464E+02 -0.24633406924E+02  0.64061132421E+02  0.69948027270E+02  0.00000000000E+00 0. -1.
         11    1    3    3    0    0  0.24334875106E+02  0.56998484220E+02  0.56192096643E+02  0.83657426897E+02  0.00000000000E+00 0.  1.
        -13    1    4    4    0    0  0.19255616604E+02 -0.60122923894E+01  0.41155413149E+02  0.45833333525E+02  0.00000000000E+00 0.  1.
         13    1    4    4    0    0 -0.92322761490E+02 -0.46869443303E+02  0.30918071908E+03  0.32605667307E+03  0.00000000000E+00 0. -1.
         21    1    1    2  502  501  0.62226457244E+02  0.20516658395E+02  0.21717926263E+03  0.22684774050E+03  0.00000000000E+00 0.  1.
<scales pt_clust_5="13000.00000" pt_clust_6="13000.00000" pt_clust_7="13000.00000" pt_clust_8="13000.00000" pt_clust_9="65.52149"></scales>
<clustering>
<clus scale="   65.521">  1  9  2 -1</clus>
<clus scale="   86.206">  7  8 -1 -1</clus>
<clus scale="   89.268">  5  6 -1 -1</clus>
<clus scale="   98.270">  1  7  2 -1</clus>
<clus scale="   65.521">  1  5  2 -1</clus>
</clustering>
</event>
<event>
 9    1  0.2423659E-006  0.1517617E+03  0.7546771E-02  0.1215944E+00
         -1   -1    0    0    0  501 -0.00000000000E+00  0.00000000000E+00  0.74138640206E+03  0.74138640206E+03  0.00000000000E+00 0.  1.
          1   -1    0    0  502    0  0.00000000000E+00 -0.00000000000E+00 -0.56124101426E+02  0.56124101426E+02  0.00000000000E+00 0. -1.
         23    2    1    2    0    0 -0.77644794708E+02 -0.38248019076E+02  0.16023049432E+03  0.20302827932E+03  0.89749906884E+02 0.  0.
         23    2    1    2    0    0 -0.42768669241E+02 -0.35733488075E+02  0.91540112967E+02  0.13853517252E+03  0.87785878735E+02 0.  0.
        -13    1    3    3    0    0 -0.81608749768E+02  0.36153245510E+01  0.93551497684E+02  0.12419718728E+03  0.00000000000E+00 0. -1.
         13    1    3    3    0    0  0.39639550607E+01 -0.41863343627E+02  0.66678996637E+02  0.78831092038E+02  0.00000000000E+00 0.  1.
        -13    1    4    4    0    0  0.13364874720E+02  0.18682530188E+02  0.85244218957E+01  0.24501481162E+02  0.00000000000E+00 0.  1.
         13    1    4    4    0    0 -0.56133543961E+02 -0.54416018263E+02  0.83015691071E+02  0.11403369136E+03  0.00000000000E+00 0. -1.
         21    1    1    2  502  501  0.12041346395E+03  0.73981507151E+02  0.43349169334E+03  0.45594705164E+03  0.00000000000E+00 0.  1.
<scales pt_clust_5="13000.00000" pt_clust_6="13000.00000" pt_clust_7="13000.00000" pt_clust_8="13000.00000" pt_clust_9="122.37876"></scales>
<clustering>
<clus scale="   87.786">  7  8 -1 -1</clus>
<clus scale="   89.750">  5  6 -1 -1</clus>
<clus scale="  103.983">  2  7  1 -1</clus>
<clus scale="  122.379">  1  9  2 -1</clus>
<clus scale="  103.983">  2  5  1 -1</clus>
</clustering>
</event>
<event>
 9    1  0.2423659E-006  0.9544849E+02  0.7546771E-02  0.1290925E+00
          1   -1    0    0  502    0  0.00000000000E+00  0.00000000000E+00  0.31867726122E+02  0.31867726122E+02  0.00000000000E+00 0. -1.
         -1   -1    0    0    0  501 -0.00000000000E+00 -0.00000000000E+00 -0.65737691047E+03  0.65737691047E+03  0.00000000000E+00 0.  1.
         23    2    1    2    0    0 -0.32776690726E+02 -0.15530117132E+02 -0.46252436842E+03  0.47288955913E+03  0.91543693168E+02 0.  0.
         23    2    1    2    0    0  0.49219278070E+01 -0.24386618113E+02 -0.11093367009E+03  0.14509109390E+03  0.90145514884E+02 0.  0.
        -11    1    3    3    0    0 -0.24003373602E+02  0.37604351233E+02 -0.21053888161E+03  0.21521354475E+03  0.00000000000E+00 0.  1.
         11    1    3    3    0    0 -0.87733171237E+01 -0.53134468365E+02 -0.25198548681E+03  0.25767601438E+03  0.00000000000E+00 0. -1.
        -11    1    4    4    0    0 -0.41035492159E+02  0.74231932850E+00 -0.45514828068E+02  0.61286721472E+02  0.00000000000E+00 0.  1.
         11    1    4    4    0    0  0.45957419966E+02 -0.25128937441E+02 -0.65418842018E+02  0.83804372427E+02  0.00000000000E+00 0. -1.
         21    1    1    2  502  501  0.27854762919E+02  0.39916735245E+02 -0.52051145844E+02  0.71263983565E+02  0.00000000000E+00 0. -1.
<scales pt_clust_5="13000.00000" pt_clust_6="13000.00000" pt_clust_7="13000.00000" pt_clust_8="13000.00000" pt_clust_9="48.67477"></scales>
<clustering>
<clus scale="   48.675">  1  9  2 -1</clus>
<clus scale="   90.146">  7  8 -1 -1</clus>
<clus scale="   91.544">  5  6 -1 -1</clus>
<clus scale="   94.108">  1  7  2 -1</clus>
<clus scale="   48.675">  1  5  2 -1</clus>
</clustering>
</event>
<event>
 9    1  0.2423659E-006  0.1508704E+03  0.7546771E-02  0.1220390E+00
         -2   -1    0    0    0  501 -0.00000000000E+00  0.00000000000E+00  0.10541793232E+03  0.10541793232E+03  0.00000000000E+00 0.  1.
          2   -1    0    0  502    0  0.00000000000E+00 -0.00000000000E+00 -0.34347000236E+03  0.34347000236E+03  0.00000000000E+00 0. -1.
         23    2    1    2    0    0  0.11726623692E+02 -0.16698950430E+02 -0.53647953035E+02  0.11030247146E+03  0.94192163674E+02 0.  0.
         23    2    1    2    0    0  0.32428457789E+02 -0.10733534264E+03 -0.13530400297E+03  0.19806856645E+03  0.91386558864E+02 0.  0.
        -11    1    3    3    0    0  0.44141263248E+02  0.16370668274E+02 -0.13399241986E+02  0.48948846633E+02  0.00000000000E+00 0.  1.
         11    1    3    3    0    0 -0.32414639556E+02 -0.33069618704E+02 -0.40248711050E+02  0.61353624832E+02  0.00000000000E+00 0. -1.
        -11    1    4    4    0    0  0.53588337229E+02 -0.11085315658E+03 -0.11292065717E+03  0.16706647488E+03  0.00000000000E+00 0. -1.
         11    1    4    4    0    0 -0.21159879440E+02  0.35178139410E+01 -0.22383345797E+02  0.31002091573E+02  0.00000000000E+00 0.  1.
         21    1    1    2  502  501 -0.44155081481E+02  0.12403429307E+03 -0.49100114036E+02  0.14051689676E+03  0.00000000000E+00 0.  1.
<scales pt_clust_5="13000.00000" pt_clust_6="13000.00000" pt_clust_7="13000.00000" pt_clust_8="13000.00000" pt_clust_9="120.04327"></scales>
<clustering>
<clus scale="   91.387">  7  8 -1 -1</clus>
<clus scale="   94.192">  5  6 -1 -1</clus>
<clus scale="   96.377">  1  5  2 -1</clus>
<clus scale="  120.043">  1  9  2 -1</clus>
<clus scale="  150.870">  2  5  1 -1</clus>
</clustering>
</event>
<event>
 9    1  0.2423659E-006  0.1051635E+03  0.7546771E-02  0.1270189E+00
         -3   -1    0    0    0  501 -0.00000000000E+00  0.00000000000E+00  0.77161235115E+03  0.77161235115E+03  0.00000000000E+00 0.  1.
          3   -1    0    0  502    0  0.00000000000E+00 -0.00000000000E+00 -0.64250613092E+02  0.64250613092E+02  0.00000000000E+00 0. -1.
         23    2    1    2    0    0 -0.15123668118E+02 -0.74376304920E+02  0.49278846004E+03  0.50705328659E+03  0.92206339408E+02 0.  0.
         23    2    1    2    0    0  0.12754188877E+02  0.17362026904E+02  0.24627158514E+03  0.26353315044E+03  0.91301250937E+02 0.  0.
        -13    1    3    3    0    0 -0.16920371155E+02  0.17193906816E+02  0.59761827734E+02  0.64446919599E+02  0.00000000000E+00 0. -1.
         13    1    3    3    0    0  0.17967030377E+01 -0.91570211736E+02  0.43302663230E+03  0.44260636699E+03  0.00000000000E+00 0.  1.
        -13    1    4    4    0    0  0.43279408761E+02  0.21350176782E+02  0.21218107614E+03  0.21759996862E+03  0.00000000000E+00 0.  1.
         13    1    4    4    0    0 -0.30525219884E+02 -0.39881498780E+01  0.34090508997E+02  0.45933181820E+02  0.00000000000E+00 0. -1.
         21    1    1    2  502  501  0.23694792405E+01  0.57014278016E+02 -0.31698307121E+02  0.65276527205E+02  0.00000000000E+00 0. -1.
<scales pt_clust_5="13000.00000" pt_clust_6="13000.00000" pt_clust_7="13000.00000" pt_clust_8="13000.00000" pt_clust_9="57.06349"></scales>
<clustering>
<clus scale="   57.063">  2  9  1 -1</clus>
<clus scale="   91.301">  7  8 -1 -1</clus>
<clus scale="   92.206">  5  6 -1 -1</clus>
<clus scale="  104.371">  2  7  1 -1</clus>
<clus scale="   57.063">  2  5  1 -1</clus>
</clustering>
</event>
<event>
 9    1  0.2423659E-006  0.1421140E+03  0.7546771E-02  0.1224520E+00
         -1   -1    0    0    0  501 -0.00000000000E+00  0.00000000000E+00  0.49506454512E+02  0.49506454512E+02  0.00000000000E+00 0.  1.
          1   -1    0    0  502    0  0.00000000000E+00 -0.00000000000E+00 -0.98093096321E+03  0.98093096321E+03  0.00000000000E+00 0. -1.
         23    2    1    2    0    0 -0.10791119352E+02 -0.52340106214E+02 -0.21140090320E+03  0.23638500322E+03  0.91277559670E+02 0.  0.
         23    2    1    2    0    0  0.18008297944E+02 -0.62981951102E+02 -0.67605065838E+02  0.13148074633E+03  0.91791703159E+02 0.  0.
        -13    1    4    4    0    0  0.53659005474E+02 -0.50789380353E+02 -0.53622210029E+02  0.91291792805E+02  0.00000000000E+00 0.  1.
         13    1    4    4    0    0 -0.35650707529E+02 -0.12192570749E+02 -0.13982855809E+02  0.40188953524E+02  0.00000000000E+00 0. -1.
        -13    1    3    3    0    0  0.10156482775E+02  0.23206658060E+02 -0.73687937403E+02  0.77920570066E+02  0.00000000000E+00 0. -1.
         13    1    3    3    0    0 -0.20947602127E+02 -0.75546764273E+02 -0.13771296580E+03  0.15846443316E+03  0.00000000000E+00 0.  1.
         21    1    1    2  502  501 -0.72171785923E+01  0.11532205732E+03 -0.65241853966E+03  0.66257166817E+03  0.00000000000E+00 0. -1.
<scales pt_clust_5="13000.00000" pt_clust_6="13000.00000" pt_clust_7="13000.00000" pt_clust_8="13000.00000" pt_clust_9="108.49272"></scales>
<clustering>
<clus scale="   91.278">  7  8 -1 -1</clus>
<clus scale="   91.792">  5  6 -1 -1</clus>
<clus scale="  105.771">  1  7  2 -1</clus>
<clus scale="  108.493">  2  9  1 -1</clus>
<clus scale="  108.493">  2  5  1 -1</clus>
</clustering>
</event>
<event>
 9    1  0.2423659E-006  0.9735655E+02  0.7546771E-02  0.1286530E+00
         -1   -1    0    0    0  501 -0.00000000000E+00  0.00000000000E+00  0.39714325710E+02  0.39714325710E+02  0.00000000000E+00 0.  1.
          1   -1    0    0  502    0  0.00000000000E+00 -0.00000000000E+00 -0.42046806985E+03  0.42046806985E+03  0.00000000000E+00 0. -1.
         23    2    1    2    0    0 -0.57252132692E+02  0.28050226050E+02 -0.11889124109E+03  0.16206758020E+03  0.89811755717E+02 0.  0.
         23    2    1    2    0    0  0.24545028141E+02 -0.10994316242E+02 -0.23462746822E+03  0.25226281574E+03  0.88674381663E+02 0.  0.
        -11    1    4    4    0    0 -0.28338755832E+02  0.14248648463E+02 -0.11112487315E+03  0.11556317103E+03  0.00000000000E+00 0.  1.
         11    1    4    4    0    0  0.52883783974E+02 -0.25242964705E+02 -0.12350259507E+03  0.13669964471E+03  0.00000000000E+00 0. -1.
        -13    1    3    3    0    0 -0.52250883815E+02 -0.14085525871E+01 -0.15610211323E+02  0.54551054778E+02  0.00000000000E+00 0.  1.
         13    1    3    3    0    0 -0.50012488772E+01  0.29458778637E+02 -0.10328102977E+03  0.10751652543E+03  0.00000000000E+00 0. -1.
         21    1    1    2  502  501  0.32707104551E+02 -0.17055909808E+02 -0.27235034830E+02  0.45851999626E+02  0.00000000000E+00 0. -1.
<scales pt_clust_5="13000.00000" pt_clust_6="13000.00000" pt_clust_7="13000.00000" pt_clust_8="13000.00000" pt_clust_9="36.88711"></scales>
<clustering>
<clus scale="   36.887">  1  9  2 -1</clus>
<clus scale="   88.674">  5  6 -1 -1</clus>
<clus scale="   89.812">  7  8 -1 -1</clus>
<clus scale="   96.308">  2  5  1 -1</clus>
<clus scale="   96.308">  2  5  1 -1</clus>
</clustering>
</event>
<event>
 9    1  0.2423659E-006  0.9423532E+02  0.7546771E-02  0.1293553E+00
         -2   -1    0    0    0  501 -0.00000000000E+00  0.00000000000E+00  0.22804558003E+03  0.22804558003E+03  0.00000000000E+00 0.  1.
          2   -1    0    0  502    0  0.00000000000E+00 -0.00000000000E+00 -0.24212752833E+03  0.24212752833E+03  0.00000000000E+00 0. -1.
         23    2    1    2    0    0 -0.56768565195E+02 -0.16131254200E+02  0.15874249157E+03  0.19231665514E+03  0.91124255054E+02 0.  0.
         23    2    1    2    0    0  0.18777554087E+02  0.11757482897E+02 -0.20686162858E+03  0.22666097475E+03  0.89959041541E+02 0.  0.
        -11    1    3    3    0    0 -0.69475895207E+02  0.13101754537E+02  0.13560502698E+03  0.15292900094E+03  0.00000000000E+00 0.  1.
         11    1    3    3    0    0  0.12707330012E+02 -0.29233008737E+02  0.23137464590E+02  0.39387654202E+02  0.00000000000E+00 0. -1.
        -13    1    4    4    0    0 -0.32780711174E+02  0.18448212064E+02 -0.59459512690E+02  0.70358689604E+02  0.00000000000E+00 0.  1.
         13    1    4    4    0    0  0.51558265261E+02 -0.66907291673E+01 -0.14740211589E+03  0.15630228514E+03  0.00000000000E+00 0. -1.
         21    1    1    2  502  501  0.37991011109E+02  0.43737713035E+01  0.34037188705E+02  0.51195478467E+02  0.00000000000E+00 0. -1.
<scales pt_clust_5="13000.00000" pt_clust_6="13000.00000" pt_clust_7="13000.00000" pt_clust_8="13000.00000" pt_clust_9="38.24195"></scales>
<clustering>
<clus scale="   38.242">  1  9  2 -1</clus>
<clus scale="   89.959">  7  8 -1 -1</clus>
<clus scale="   91.124">  5  6 -1 -1</clus>
<clus scale="   93.109">  2  7  1 -1</clus>
<clus scale="   93.109">  2  5  1 -1</clus>
</clustering>
</event>
<event>
 9    1  0.2423659E-006  0.1033740E+03  0.7546771E-02  0.1274533E+00
          4   -1    0    0  502    0  0.00000000000E+00  0.00000000000E+00  0.12901284887E+03  0.12901284887E+03  0.00000000000E+00 0. -1.
         -4   -1    0    0    0  501 -0.00000000000E+00 -0.00000000000E+00 -0.15869090194E+03  0.15869090194E+03  0.00000000000E+00 0.  1.
         23    2    1    2    0    0 -0.29607686093E+02  0.21005801369E+02 -0.68738651211E+02  0.12204912381E+03  0.94091060603E+02 0.  0.
         23    2    1    2    0    0  0.49905488211E+02  0.19415985622E+02  0.78508356551E+01  0.11070036503E+03  0.96568094868E+02 0.  0.
        -13    1    3    3    0    0 -0.12246659705E+02  0.48591320697E+02 -0.73656396564E+02  0.89086260870E+02  0.00000000000E+00 0.  1.
         13    1    3    3    0    0 -0.17361026388E+02 -0.27585519328E+02  0.49177453529E+01  0.32962862940E+02  0.00000000000E+00 0. -1.
        -13    1    4    4    0    0  0.29761013007E+02 -0.37552693277E+02 -0.71357642320E+01  0.48444213264E+02  0.00000000000E+00 0.  1.
         13    1    4    4    0    0  0.20144475205E+02  0.56968678899E+02  0.14986599887E+02  0.62256151768E+02  0.00000000000E+00 0. -1.
         21    1    1    2  502  501 -0.20297802118E+02 -0.40421786991E+02  0.31209762483E+02  0.54954261970E+02  0.00000000000E+00 0.  1.
<scales pt_clust_5="13000.00000" pt_clust_6="13000.00000" pt_clust_7="13000.00000" pt_clust_8="13000.00000" pt_clust_9="45.23187"></scales>
<clustering>
<clus scale="   45.232">  1  9  2 -1</clus>
<clus scale="   94.091">  5  6 -1 -1</clus>
<clus scale="   96.568">  7  8 -1 -1</clus>
<clus scale="  101.064">  2  5  1 -1</clus>
<clus scale="   45.232">  1  5  2 -1</clus>
</clustering>
</event>
<event>
 9    1  0.2423659E-006  0.9728863E+02  0.7546771E-02  0.1286590E+00
         -1   -1    0    0    0  501 -0.00000000000E+00  0.00000000000E+00  0.59754241362E+02  0.59754241362E+02  0.00000000000E+00 0.  1.
          1   -1    0    0  502    0  0.00000000000E+00 -0.00000000000E+00 -0.81854173171E+03  0.81854173171E+03  0.00000000000E+00 0. -1.
         23    2    1    2    0    0 -0.58361688549E+02 -0.13697293169E+02 -0.44302861736E+02  0.11835950095E+03  0.91937616761E+02 0.  0.
         23    2    1    2    0    0 -0.20832428574E+02  0.25731364389E+02 -0.96237349194E+02  0.13652150153E+03  0.90996702173E+02 0.  0.
        -13    1    4    4    0    0  0.30965411638E+02 -0.11163323706E+02 -0.27650592665E+02  0.42988740256E+02  0.00000000000E+00 0. -1.
         13    1    4    4    0    0 -0.51797840212E+02  0.36894688095E+02 -0.68586756528E+02  0.93532761273E+02  0.00000000000E+00 0.  1.
        -13    1    3    3    0    0 -0.71076610564E+02 -0.34290450742E+02 -0.50095902438E+02  0.93473627417E+02  0.00000000000E+00 0.  1.
         13    1    3    3    0    0  0.12714922015E+02  0.20593157573E+02  0.57930407025E+01  0.24885873528E+02  0.00000000000E+00 0. -1.
         21    1    1    2  502  501  0.79194117123E+02 -0.12034071220E+02 -0.61824727942E+03  0.62341497059E+03  0.00000000000E+00 0. -1.
<scales pt_clust_5="13000.00000" pt_clust_6="13000.00000" pt_clust_7="13000.00000" pt_clust_8="13000.00000" pt_clust_9="80.10323"></scales>
<clustering>
<clus scale="   80.103">  2  9  1 -1</clus>
<clus scale="   90.997">  5  6 -1 -1</clus>
<clus scale="   91.938">  7  8 -1 -1</clus>
<clus scale="   96.400">  2  5  1 -1</clus>
<clus scale="   80.103">  2  5  1 -1</clus>
</clustering>
</event>
<event>
 9    1  0.2423659E-006  0.1424570E+03  0.7546771E-02  0.1228647E+00
         -1   -1    0    0    0  501 -0.00000000000E+00  0.00000000000E+00  0.63016235941E+03  0.63016235941E+03  0.00000000000E+00 0.  1.
          1   -1    0    0  502    0  0.00000000000E+00 -0.00000000000E+00 -0.55610315241E+02  0.55610315241E+02  0.00000000000E+00 0. -1.
         23    2    1    2    0    0 -0.23174709683E+02 -0.10892769031E+03  0.36150712259E+03  0.38898504295E+03  0.90662313401E+02 0.  0.
         23    2    1    2    0    0  0.30391418414E+02 -0.83119181474E+00  0.10674187246E+03  0.14381890502E+03  0.91464314964E+02 0.  0.
        -11    1    4    4    0    0  0.62399260619E+01 -0.40250750015E+02  0.81584856431E+02  0.91187435279E+02  0.00000000000E+00 0.  1.
         11    1    4    4    0    0  0.24151492352E+02  0.39419558200E+02  0.25157016027E+02  0.52631469739E+02  0.00000000000E+00 0. -1.
        -11    1    3    3    0    0 -0.51765692755E+02 -0.83233093608E+02  0.30713956746E+03  0.32240060285E+03  0.00000000000E+00 0.  1.
         11    1    3    3    0    0  0.28590983072E+02 -0.25694596703E+02  0.54367555121E+02  0.66584440094E+02  0.00000000000E+00 0. -1.
         21    1    1    2  502  501 -0.72167087308E+01  0.10975888213E+03  0.10630304912E+03  0.15296872668E+03  0.00000000000E+00 0. -1.
<scales pt_clust_5="13000.00000" pt_clust_6="13000.00000" pt_clust_7="13000.00000" pt_clust_8="13000.00000" pt_clust_9="109.88326"></scales>
<clustering>
<clus scale="   90.662">  7  8 -1 -1</clus>
<clus scale="   91.464">  5  6 -1 -1</clus>
<clus scale="   96.385">  2  5  1 -1</clus>
<clus scale="  109.883">  2  9  1 -1</clus>
<clus scale="   96.385">  2  5  1 -1</clus>
</clustering>
</event>
<event>
 9    1  0.2423659E-006  0.1066425E+03  0.7546771E-02  0.1267808E+00
         -1   -1    0    0    0  501 -0.00000000000E+00  0.00000000000E+00  0.18937943153E+02  0.18937943153E+02  0.00000000000E+00 0.  1.
          1   -1    0    0  502    0  0.00000000000E+00 -0.00000000000E+00 -0.12346427432E+04  0.12346427432E+04  0.00000000000E+00 0. -1.
         23    2    1    2    0    0  0.42538406637E+02 -0.57384006956E+02 -0.33750830476E+03  0.35704661976E+03  0.92021696390E+02 0.  0.
         23    2    1    2    0    0  0.24652855642E+02  0.47225518664E+02 -0.39522595735E+03  0.40880627251E+03  0.89894372304E+02 0.  0.
        -11    1    4    4    0    0  0.37753561902E+02 -0.14921395157E+02 -0.13730693233E+03  0.14318230734E+03  0.00000000000E+00 0.  1.
         11    1    4    4    0    0 -0.13100706260E+02  0.62146913821E+02 -0.25791902502E+03  0.26562396516E+03  0.00000000000E+00 0. -1.
        -13    1    3    3    0    0  0.33705468833E+02 -0.63082159034E+01 -0.31126289224E+02  0.46310885308E+02  0.00000000000E+00 0.  1.
         13    1    3    3    0    0  0.88329378046E+01 -0.51075791052E+02 -0.30638201553E+03  0.31073573445E+03  0.00000000000E+00 0. -1.
         21    1    1    2  502  501 -0.67191262279E+02  0.10158488292E+02 -0.48297053789E+03  0.48772779404E+03  0.00000000000E+00 0. -1.
<scales pt_clust_5="13000.00000" pt_clust_6="13000.00000" pt_clust_7="13000.00000" pt_clust_8="13000.00000" pt_clust_9="67.95484"></scales>
<clustering>
<clus scale="   67.955">  2  9  1 -1</clus>
<clus scale="   89.894">  5  6 -1 -1</clus>
<clus scale="   92.022">  7  8 -1 -1</clus>
<clus scale="  104.812">  2  5  1 -1</clus>
<clus scale="   67.955">  2  5  1 -1</clus>
</clustering>
</event>
<event>
 9    1  0.2423659E-006  0.1235059E+03  0.7546771E-02  0.1237755E+00
         -1   -1    0    0    0  501 -0.00000000000E+00  0.00000000000E+00  0.26127658273E+03  0.26127658273E+03  0.00000000000E+00 0.  1.
          1   -1    0    0  502    0  0.00000000000E+00 -0.00000000000E+00 -0.18712810653E+03  0.18712810653E+03  0.00000000000E+00 0. -1.
         23    2    1    2    0    0 -0.63042561022E+02  0.42413970090E+02  0.18668039371E+03  0.22217745252E+03  0.93487655079E+02 0.  0.
         23    2    1    2    0    0  0.79595333756E+02 -0.70037222423E+02 -0.38969396689E+02  0.14592479081E+03  0.92383986789E+02 0.  0.
        -11    1    4    4    0    0  0.74409155454E+01 -0.22500644067E+02  0.27943020621E+02  0.36639577086E+02  0.00000000000E+00 0.  1.
         11    1    4    4    0    0  0.72154418210E+02 -0.47536578357E+02 -0.66912417311E+02  0.10928521373E+03  0.00000000000E+00 0. -1.
        -13    1    3    3    0    0 -0.24643652740E+02 -0.12767111475E+02  0.46648529854E+01  0.28143731259E+02  0.00000000000E+00 0. -1.
         13    1    3    3    0    0 -0.38398908282E+02  0.55181081566E+02  0.18201554072E+03  0.19403372126E+03  0.00000000000E+00 0.  1.
         21    1    1    2  502  501 -0.16552772734E+02  0.27623252333E+02 -0.73562520813E+02  0.80302445934E+02  0.00000000000E+00 0.  1.
<scales pt_clust_5="13000.00000" pt_clust_6="13000.00000" pt_clust_7="13000.00000" pt_clust_8="13000.00000" pt_clust_9="32.20308"></scales>
<clustering>
<clus scale="   32.203">  2  9  1 -1</clus>
<clus scale="   92.384">  5  6 -1 -1</clus>
<clus scale="   93.488">  7  8 -1 -1</clus>
<clus scale="  122.673">  2  5  1 -1</clus>
<clus scale="   32.203">  2  5  1 -1</clus>
</clustering>
</event>
<event>
 9    1  0.2423659E-006  0.9386677E+02  0.7546771E-02  0.1294044E+00
         -1   -1    0    0    0  501 -0.00000000000E+00  0.00000000000E+00  0.98742771715E+02  0.98742771715E+02  0.00000000000E+00 0.  1.
          1   -1    0    0  502    0  0.00000000000E+00 -0.00000000000E+00 -0.32349031722E+03  0.32349031722E+03  0.00000000000E+00 0. -1.
         23    2    1    2    0    0  0.33627318892E+02  0.46587241448E+02 -0.14583279928E+03  0.18157003781E+03  0.91647725804E+02 0.  0.
         23    2    1    2    0    0  0.15043227429E+02  0.45730828482E+01 -0.12563381334E+03  0.15599385900E+03  0.91120893396E+02 0.  0.
        -11    1    3    3    0    0 -0.22657424060E+02  0.39773862028E+02 -0.94871525172E+02  0.10533719787E+03  0.00000000000E+00 0.  1.
         11    1    3    3    0    0  0.56284742951E+02  0.68133794204E+01 -0.50961274105E+02  0.76232839949E+02  0.00000000000E+00 0. -1.
        -13    1    4    4    0    0  0.21681332234E+02 -0.27835811124E+02 -0.11419877378E+02  0.37085389950E+02  0.00000000000E+00 0.  1.
         13    1    4    4    0    0 -0.66381048048E+01  0.32408893973E+02 -0.11421393596E+03  0.11890846905E+03  0.00000000000E+00 0. -1.
         21    1    1    2  502  501 -0.48670546321E+02 -0.51160324296E+02  0.46719067118E+02  0.84669192116E+02  0.00000000000E+00 0.  1.
<scales pt_clust_5="13000.00000" pt_clust_6="13000.00000" pt_clust_7="13000.00000" pt_clust_8="13000.00000" pt_clust_9="70.61304"></scales>
<clustering>
<clus scale="   70.613">  1  9  2 -1</clus>
<clus scale="   91.121">  7  8 -1 -1</clus>
<clus scale="   91.648">  5  6 -1 -1</clus>
<clus scale="   93.352">  2  7  1 -1</clus>
<clus scale="   93.352">  2  5  1 -1</clus>
</clustering>
</event>
<event>
 9    1  0.2423659E-006  0.1264999E+03  0.7546771E-02  0.1233189E+00
         -1   -1    0    0    0  501 -0.00000000000E+00  0.00000000000E+00  0.27804256554E+03  0.27804256554E+03  0.00000000000E+00 0.  1.
          1   -1    0    0  502    0  0.00000000000E+00 -0.00000000000E+00 -0.24276729646E+03  0.24276729646E+03  0.00000000000E+00 0. -1.
         23    2    1    2    0    0  0.74244179013E+02  0.56941491958E+02  0.22623463443E+03  0.26172931933E+03  0.92550500583E+02 0.  0.
         23    2    1    2    0    0 -0.91194438825E+01 -0.22887944953E+02 -0.14321497421E+03  0.17144263948E+03  0.90967178228E+02 0.  0.
        -13    1    3    3    0    0  0.55923320403E+02  0.80247837458E+02  0.19774679480E+03  0.22061488625E+03  0.00000000000E+00 0.  1.
         13    1    3    3    0    0  0.18320858611E+02 -0.23306345500E+02  0.28487839631E+02  0.41114433082E+02  0.00000000000E+00 0. -1.
        -13    1    4    4    0    0 -0.45069515503E+01 -0.46863109344E+02 -0.13888405226E+03  0.14664666243E+03  0.00000000000E+00 0. -1.
         13    1    4    4    0    0 -0.46124923322E+01  0.23975164391E+02 -0.43309219467E+01  0.24795977052E+02  0.00000000000E+00 0.  1.
         21    1    1    2  502  501 -0.65124735131E+02 -0.34053547005E+02 -0.47744391144E+02  0.87637903188E+02  0.00000000000E+00 0. -1.
<scales pt_clust_5="13000.00000" pt_clust_6="13000.00000" pt_clust_7="13000.00000" pt_clust_8="13000.00000" pt_clust_9="73.49065"></scales>
<clustering>
<clus scale="   73.491">  2  9  1 -1</clus>
<clus scale="   90.967">  7  8 -1 -1</clus>
<clus scale="   92.551">  5  6 -1 -1</clus>
<clus scale="  125.346">  2  7  1 -1</clus>
<clus scale="   73.491">  2  5  1 -1</clus>
</clustering>
</event>
<event>
 9    1  0.2423659E-006  0.1503441E+03  0.7546771E-02  0.1200421E+00
          2   -1    0    0  502    0  0.00000000000E+00  0.00000000000E+00  0.30083767886E+03  0.30083767886E+03  0.00000000000E+00 0. -1.
         -2   -1    0    0    0  501 -0.00000000000E+00 -0.00000000000E+00 -0.27333802157E+03  0.27333802157E+03  0.00000000000E+00 0.  1.
         23    2    1    2    0    0  0.34943531021E+02  0.10683192153E+03 -0.13866118028E+03  0.20020909484E+03  0.90678822903E+02 0.  0.
         23    2    1    2    0    0 -0.10960063561E+03 -0.97899905961E+02 -0.18382827357E+02  0.17469335492E+03  0.92645285899E+02 0.  0.
        -11    1    4    4    0    0 -0.76537026471E+02 -0.34832292287E+02 -0.48839376856E+02  0.97244484362E+02  0.00000000000E+00 0.  1.
         11    1    4    4    0    0 -0.33063609137E+02 -0.63067613673E+02  0.30456549499E+02  0.77448870560E+02  0.00000000000E+00 0. -1.
        -13    1    3    3    0    0  0.10517065486E+02  0.62481381364E+02 -0.13537682637E+03  0.14947045461E+03  0.00000000000E+00 0.  1.
         13    1    3    3    0    0  0.24426465535E+02  0.44350540170E+02 -0.32843539063E+01  0.50738640231E+02  0.00000000000E+00 0. -1.
         21    1    1    2  502  501  0.74657104587E+02 -0.89320155736E+01  0.18454366492E+03  0.19927325066E+03  0.00000000000E+00 0. -1.
<scales pt_clust_5="13000.00000" pt_clust_6="13000.00000" pt_clust_7="13000.00000" pt_clust_8="13000.00000" pt_clust_9="75.18952"></scales>
<clustering>
<clus scale="   75.190">  1  9  2 -1</clus>
<clus scale="   90.679">  7  8 -1 -1</clus>
<clus scale="   92.645">  5  6 -1 -1</clus>
<clus scale="  149.140">  2  7  1 -1</clus>
<clus scale="   75.190">  1  5  2 -1</clus>
</clustering>
</event>
<event>
 9    1  0.2423659E-006  0.9571500E+02  0.7546771E-02  0.1292015E+00
         -3   -1    0    0    0  501 -0.00000000000E+00  0.00000000000E+00  0.51386944702E+03  0.51386944702E+03  0.00000000000E+00 0.  1.
          3   -1    0    0  502    0  0.00000000000E+00 -0.00000000000E+00 -0.48557712490E+02  0.48557712490E+02  0.00000000000E+00 0. -1.
         23    2    1    2    0    0 -0.57245602432E+01  0.43498758104E+02  0.20244542334E+03  0.22490635021E+03  0.87600253367E+02 0.  0.
         23    2    1    2    0    0 -0.53586687762E+02  0.18723616189E+02  0.21106314927E+03  0.23715639535E+03  0.92051050855E+02 0.  0.
        -11    1    4    4    0    0 -0.19036215080E+00  0.40547515775E+02  0.13931188749E+03  0.14509286430E+03  0.00000000000E+00 0. -1.
         11    1    4    4    0    0 -0.53396325611E+02 -0.21823899586E+02  0.71751261782E+02  0.92063531049E+02  0.00000000000E+00 0.  1.
        -13    1    3    3    0    0 -0.45077260841E+01 -0.27042901170E+02  0.55651383956E+02  0.62038009594E+02  0.00000000000E+00 0.  1.
         13    1    3    3    0    0 -0.12168341591E+01  0.70541659274E+02  0.14679403938E+03  0.16286834062E+03  0.00000000000E+00 0. -1.
         21    1    1    2  502  501  0.59311248005E+02 -0.62222374293E+02  0.51803161917E+02  0.10036441395E+03  0.00000000000E+00 0. -1.
<scales pt_clust_5="13000.00000" pt_clust_6="13000.00000" pt_clust_7="13000.00000" pt_clust_8="13000.00000" pt_clust_9="85.96190"></scales>
<clustering>
<clus scale="   85.962">  2  9  1 -1</clus>
<clus scale="   87.600">  7  8 -1 -1</clus>
<clus scale="   91.443">  1  7  2 -1</clus>
<clus scale="   92.051">  5  6 -1 -1</clus>
<clus scale="   85.962">  2  5  1 -1</clus>
</clustering>
</event>
<event>
 9    1  0.2423659E-006  0.1166209E+03  0.7546771E-02  0.1249845E+00
          4   -1    0    0  502    0  0.00000000000E+00  0.00000000000E+00  0.47000751187E+03  0.47000751187E+03  0.00000000000E+00 0. -1.
         -4   -1    0    0    0  501 -0.00000000000E+00 -0.00000000000E+00 -0.48838036999E+02  0.48838036999E+02  0.00000000000E+00 0.  1.
         23    2    1    2    0    0 -0.29765784725E+02 -0.63055859221E+02  0.10499114733E+03  0.15593161912E+03  0.91812229592E+02 0.  0.
         23    2    1    2    0    0  0.46113613856E+02  0.49973095238E+02  0.32088673389E+03  0.34145281791E+03  0.94857552371E+02 0.  0.
        -11    1    4    4    0    0  0.62713812962E+02  0.67012284091E+02  0.27236842146E+03  0.28741646711E+03  0.00000000000E+00 0.  1.
         11    1    4    4    0    0 -0.16600199106E+02 -0.17039188853E+02  0.48518312433E+02  0.54036350807E+02  0.00000000000E+00 0. -1.
        -11    1    3    3    0    0  0.16780310401E+02 -0.47051729531E+02  0.92537333621E+02  0.10515988866E+03  0.00000000000E+00 0. -1.
         11    1    3    3    0    0 -0.46546095126E+02 -0.16004129690E+02  0.12453813710E+02  0.50771730467E+02  0.00000000000E+00 0.  1.
         21    1    1    2  502  501 -0.16347829130E+02  0.13082763983E+02 -0.47084063515E+01  0.21461111833E+02  0.00000000000E+00 0.  1.
<scales pt_clust_5="13000.00000" pt_clust_6="13000.00000" pt_clust_7="13000.00000" pt_clust_8="13000.00000" pt_clust_9="20.93825"></scales>
<clustering>
<clus scale="   20.938">  2  9  1 -1</clus>
<clus scale="   91.812">  7  8 -1 -1</clus>
<clus scale="   94.858">  5  6 -1 -1</clus>
<clus scale="  114.158">  2  7  1 -1</clus>
<clus scale="  116.621">  1  5  2 -1</clus>
</clustering>
</event>
<event>
 9    1  0.2423659E-006  0.1225343E+03  0.7546771E-02  0.1245645E+00
          2   -1    0    0  502    0  0.00000000000E+00  0.00000000000E+00  0.34615837264E+03  0.34615837264E+03  0.00000000000E+00 0. -1.
         -2   -1    0    0    0  501 -0.00000000000E+00 -0.00000000000E+00 -0.24273958274E+03  0.24273958274E+03  0.00000000000E+00 0.  1.
         23    2    1    2    0    0 -0.70323032326E+02  0.11277824056E+02 -0.14491958380E+03  0.18499582226E+03  0.90273198088E+02 0.  0.
         23    2    1    2    0    0 -0.31116358355E+02  0.47368705975E+02  0.26475693647E+03  0.28558503939E+03  0.90832578133E+02 0.  0.
        -11    1    3    3    0    0 -0.60726443042E+02 -0.15236141485E+02 -0.14372917430E+03  0.15677345578E+03  0.00000000000E+00 0.  1.
         11    1    3    3    0    0 -0.95965892842E+01  0.26513965541E+02 -0.11904094940E+01  0.28222366474E+02  0.00000000000E+00 0. -1.
        -13    1    4    4    0    0  0.30524893749E+02  0.27841234625E+02  0.12362599685E+03  0.13034680887E+03  0.00000000000E+00 0. -1.
         13    1    4    4    0    0 -0.61641252103E+02  0.19527471350E+02  0.14113093962E+03  0.15523823052E+03  0.00000000000E+00 0.  1.
         21    1    1    2  502  501  0.10143939068E+03 -0.58646530031E+02 -0.16418562782E+02  0.11831709374E+03  0.00000000000E+00 0. -1.
<scales pt_clust_5="13000.00000" pt_clust_6="13000.00000" pt_clust_7="13000.00000" pt_clust_8="13000.00000" pt_clust_9="82.85773"></scales>
<clustering>
<clus scale="   90.273">  5  6 -1 -1</clus>
<clus scale="   90.833">  7  8 -1 -1</clus>
<clus scale="  107.063">  1  7  2 -1</clus>
<clus scale="   82.858">  1  9  2 -1</clus>
<clus scale="  107.063">  1  5  2 -1</clus>
</clustering>
</event>
<event>
 9    1  0.2423659E-006  0.1581352E+03  0.7546771E-02  0.1199129E+00
          1   -1    0    0  502    0  0.00000000000E+00  0.00000000000E+00  0.44167622182E+03  0.44167622182E+03  0.00000000000E+00 0. -1.
         -1   -1    0    0    0  501 -0.00000000000E+00 -0.00000000000E+00 -0.11986607951E+03  0.11986607951E+03  0.00000000000E+00 0.  1.
         23    2    1    2    0    0  0.15945781125E+03  0.35492418410E+02  0.17019939576E+03  0.24837852028E+03  0.77701671055E+02 0.  0.
         23    2    1    2    0    0 -0.33290378597E+02 -0.80713209028E+02  0.11317806911E+03  0.17373562156E+03  0.98751807335E+02 0.  0.
        -13    1    3    3    0    0  0.11465517304E+03 -0.57433403697E+01  0.13797128333E+03  0.17948501243E+03  0.00000000000E+00 0. -1.
         13    1    3    3    0    0  0.44802638203E+02  0.41235758779E+02  0.32228112433E+02  0.68893507844E+02  0.00000000000E+00 0.  1.
        -13    1    4    4    0    0  0.12271994185E+02 -0.83838868110E+02  0.85289559404E+02  0.12022423462E+03  0.00000000000E+00 0. -1.
         13    1    4    4    0    0 -0.45562372782E+02  0.31256590822E+01  0.27888509710E+02  0.53511386938E+02  0.00000000000E+00 0.  1.
         21    1    1    2  502  501 -0.12616743265E+03  0.45220790618E+02  0.38432677435E+02  0.13942815949E+03  0.00000000000E+00 0.  1.
<scales pt_clust_5="13000.00000" pt_clust_6="13000.00000" pt_clust_7="13000.00000" pt_clust_8="13000.00000" pt_clust_9="137.72866"></scales>
<clustering>
<clus scale="   77.702">  5  6 -1 -1</clus>
<clus scale="   98.752">  7  8 -1 -1</clus>
<clus scale="  131.813">  1  7  2 -1</clus>
<clus scale="  137.729">  2  9  1 -1</clus>
<clus scale="  131.813">  1  5  2 -1</clus>
</clustering>
</event>
<event>
 9    1  0.2423659E-006  0.1062450E+03  0.7546771E-02  0.1268535E+00
          1   -1    0    0  502    0  0.00000000000E+00  0.00000000000E+00  0.55089395253E+03  0.55089395253E+03  0.00000000000E+00 0. -1.
         -1   -1    0    0    0  501 -0.00000000000E+00 -0.00000000000E+00 -0.26566974269E+02  0.26566974269E+02  0.00000000000E+00 0.  1.
         23    2    1    2    0    0 -0.20648559853E+02 -0.37654537382E+02  0.19948507014E+03  0.22379700218E+03  0.91905265179E+02 0.  0.
         23    2    1    2    0    0  0.44724969796E+02  0.50639846356E+02  0.26441932751E+03  0.28733760998E+03  0.89892182026E+02 0.  0.
        -13    1    3    3    0    0 -0.44249255806E+02  0.11580340795E+02  0.74718371731E+02  0.87606712108E+02  0.00000000000E+00 0.  1.
         13    1    3    3    0    0  0.23600695953E+02 -0.49234878177E+02  0.12476669841E+03  0.13619029007E+03  0.00000000000E+00 0. -1.
        -13    1    4    4    0    0  0.51213321491E+02 -0.25888662556E+01  0.77894938571E+02  0.93258393625E+02  0.00000000000E+00 0. -1.
         13    1    4    4    0    0 -0.64883516953E+01  0.53228712611E+02  0.18652438893E+03  0.19407921636E+03  0.00000000000E+00 0.  1.
         21    1    1    2  502  501 -0.24076409943E+02 -0.12985308974E+02  0.60422580616E+02  0.66326314636E+02  0.00000000000E+00 0.  1.
<scales pt_clust_5="13000.00000" pt_clust_6="13000.00000" pt_clust_7="13000.00000" pt_clust_8="13000.00000" pt_clust_9="27.35492"></scales>
<clustering>
<clus scale="   27.355">  1  9  2 -1</clus>
<clus scale="   89.892">  7  8 -1 -1</clus>
<clus scale="   91.905">  5  6 -1 -1</clus>
<clus scale="  104.508">  1  7  2 -1</clus>
<clus scale="   27.355">  1  5  2 -1</clus>
</clustering>
</event>
<event>
 9    1  0.2423659E-006  0.1344246E+03  0.7546771E-02  0.1239136E+00
         -1   -1    0    0    0  501 -0.00000000000E+00  0.00000000000E+00  0.72540523375E+02  0.72540523375E+02  0.00000000000E+00 0.  1.
          1   -1    0    0  502    0  0.00000000000E+00 -0.00000000000E+00 -0.44224689911E+03  0.44224689911E+03  0.00000000000E+00 0. -1.
         23    2    1    2    0    0  0.94496091067E+02 -0.62161332933E+01 -0.83096641823E+02  0.15584950580E+03  0.91738023942E+02 0.  0.
         23    2    1    2    0    0  0.62185871195E+01 -0.27099933895E+01 -0.21781427229E+03  0.23664344550E+03  0.92255342384E+02 0.  0.
        -13    1    4    4    0    0 -0.42008400726E+02  0.71673802546E+01 -0.11525943222E+03  0.12288536848E+03  0.00000000000E+00 0.  1.
         13    1    4    4    0    0  0.48226987845E+02 -0.98773736441E+01 -0.10255484007E+03  0.11375807702E+03  0.00000000000E+00 0. -1.
        -13    1    3    3    0    0 -0.10661162267E+02  0.18319942982E+02 -0.26501194192E+02  0.33935143810E+02  0.00000000000E+00 0.  1.
         13    1    3    3    0    0  0.10515725333E+03 -0.24536076275E+02 -0.56595447631E+02  0.12191436199E+03  0.00000000000E+00 0. -1.
         21    1    1    2  502  501 -0.10071467819E+03  0.89261266828E+01 -0.68795461622E+02  0.12229447117E+03  0.00000000000E+00 0.  1.
<scales pt_clust_5="13000.00000" pt_clust_6="13000.00000" pt_clust_7="13000.00000" pt_clust_8="13000.00000" pt_clust_9="98.25530"></scales>
<clustering>
<clus scale="   91.738">  7  8 -1 -1</clus>
<clus scale="   92.255">  5  6 -1 -1</clus>
<clus scale="   92.504">  2  5  1 -1</clus>
<clus scale="   98.255">  2  9  1 -1</clus>
<clus scale="   92.504">  2  5  1 -1</clus>
</clustering>
</event>
<event>
 9    1  0.2423659E-006  0.9361274E+02  0.7546771E-02  0.1294905E+00
          2   -1    0    0  502    0  0.00000000000E+00  0.00000000000E+00  0.15775271048E+03  0.15775271048E+03  0.00000000000E+00 0.  1.
         -2   -1    0    0    0  501 -0.00000000000E+00 -0.00000000000E+00 -0.12206623218E+03  0.12206623218E+03  0.00000000000E+00 0. -1.
         23    2    1    2    0    0  0.59005710842E+01 -0.23297319495E+02 -0.68076808166E+02  0.11519635290E+03  0.89767288452E+02 0.  0.
         23    2    1    2    0    0 -0.27057830601E+02  0.93345902872E+01  0.55725632365E+02  0.11030681259E+03  0.90790891776E+02 0.  0.
        -11    1    3    3    0    0  0.20370156111E+02  0.30486098005E+02 -0.20888867396E+02  0.42198225231E+02  0.00000000000E+00 0.  1.
         11    1    3    3    0    0 -0.14469585026E+02 -0.53783417500E+02 -0.47187940770E+02  0.72998127667E+02  0.00000000000E+00 0. -1.
        -13    1    4    4    0    0  0.32155247687E+02 -0.86729806418E+01  0.19704984062E+02  0.38697118032E+02  0.00000000000E+00 0. -1.
         13    1    4    4    0    0 -0.59213078289E+02  0.18007570929E+02  0.36020648303E+02  0.71609694563E+02  0.00000000000E+00 0.  1.
         21    1    1    2  502  501  0.21157259517E+02  0.13962729208E+02  0.48037654101E+02  0.54315777162E+02  0.00000000000E+00 0. -1.
<scales pt_clust_5="13000.00000" pt_clust_6="13000.00000" pt_clust_7="13000.00000" pt_clust_8="13000.00000" pt_clust_9="25.34931"></scales>
<clustering>
<clus scale="   25.349">  1  9  2 -1</clus>
<clus scale="   89.767">  5  6 -1 -1</clus>
<clus scale="   90.791">  7  8 -1 -1</clus>
<clus scale="   92.620">  2  5  1 -1</clus>
<clus scale="   25.349">  1  5  2 -1</clus>
</clustering>
</event>
<event>
 9    1  0.2423659E-006  0.1221770E+03  0.7546771E-02  0.1245811E+00
         -1   -1    0    0    0  501 -0.00000000000E+00  0.00000000000E+00  0.24085620527E+03  0.24085620527E+03  0.00000000000E+00 0.  1.
          1   -1    0    0  502    0  0.00000000000E+00 -0.00000000000E+00 -0.12643929076E+03  0.12643929076E+03  0.00000000000E+00 0. -1.
         23    2    1    2    0    0 -0.30634230008E+02  0.26811832356E+02  0.10165515511E+03  0.14388158994E+03  0.93331725367E+02 0.  0.
         23    2    1    2    0    0  0.54322316488E+02 -0.20861682696E+02 -0.66186611695E+02  0.14077387330E+03  0.10977473281E+03 0.  0.
        -11    1    3    3    0    0 -0.33022444299E+02  0.53880307756E+02  0.97793244671E+02  0.11643490926E+03  0.00000000000E+00 0.  1.
         11    1    3    3    0    0  0.23882142910E+01 -0.27068475400E+02  0.38619104404E+01  0.27446680677E+02  0.00000000000E+00 0. -1.
        -13    1    4    4    0    0  0.25160285506E+02 -0.31973345155E+02 -0.91793121746E+02  0.10040573672E+03  0.00000000000E+00 0.  1.
         13    1    4    4    0    0  0.29162030983E+02  0.11111662459E+02  0.25606510051E+02  0.40368136576E+02  0.00000000000E+00 0. -1.
         21    1    1    2  502  501 -0.23688086480E+02 -0.59501496603E+01  0.78948371089E+02  0.82640032791E+02  0.00000000000E+00 0. -1.
<scales pt_clust_5="13000.00000" pt_clust_6="13000.00000" pt_clust_7="13000.00000" pt_clust_8="13000.00000" pt_clust_9="24.42396"></scales>
<clustering>
<clus scale="   24.424">  1  9  2 -1</clus>
<clus scale="   93.332">  5  6 -1 -1</clus>
<clus scale="  107.645">  1  5  2 -1</clus>
<clus scale="  109.775">  7  8 -1 -1</clus>
<clus scale="  122.177">  2  5  1 -1</clus>
</clustering>
</event>
<event>
 9    1  0.2423659E-006  0.1602778E+03  0.7546771E-02  0.1197393E+00
         -3   -1    0    0    0  501 -0.00000000000E+00  0.00000000000E+00  0.95882071716E+02  0.95882071716E+02  0.00000000000E+00 0.  1.
          3   -1    0    0  502    0  0.00000000000E+00 -0.00000000000E+00 -0.57795501783E+03  0.57795501783E+03  0.00000000000E+00 0. -1.
         23    2    1    2    0    0  0.11563918648E+03  0.44809437790E+02 -0.24096562206E+03  0.28573585685E+03  0.90555185993E+02 0.  0.
         23    2    1    2    0    0  0.20573391965E+02 -0.87673386216E+02 -0.20028292778E+03  0.23958249336E+03  0.95794743371E+02 0.  0.
        -11    1    4    4    0    0  0.39150898135E+02 -0.70009214352E+01 -0.28614157326E+02  0.48995670474E+02  0.00000000000E+00 0. -1.
         11    1    4    4    0    0 -0.18577506170E+02 -0.80672464781E+02 -0.17166877045E+03  0.19058682288E+03  0.00000000000E+00 0.  1.
        -11    1    3    3    0    0  0.74412163161E+01 -0.23135188239E+02 -0.54791947711E+02  0.59939687763E+02  0.00000000000E+00 0.  1.
         11    1    3    3    0    0  0.10819797017E+03  0.67944626029E+02 -0.18617367435E+03  0.22579616909E+03  0.00000000000E+00 0. -1.
         21    1    1    2  502  501 -0.13621257845E+03  0.42863948426E+02 -0.40824396272E+02  0.14851873933E+03  0.00000000000E+00 0.  1.
<scales pt_clust_5="13000.00000" pt_clust_6="13000.00000" pt_clust_7="13000.00000" pt_clust_8="13000.00000" pt_clust_9="132.24499"></scales>
<clustering>
<clus scale="   90.555">  7  8 -1 -1</clus>
<clus scale="   95.795">  5  6 -1 -1</clus>
<clus scale="  131.478">  2  5  1 -1</clus>
<clus scale="  132.245">  1  9  2 -1</clus>
<clus scale="  131.478">  2  5  1 -1</clus>
</clustering>
</event>
<event>
 9    1  0.2423659E-006  0.2011876E+03  0.7546771E-02  0.1148780E+00
         -1   -1    0    0    0  501 -0.00000000000E+00  0.00000000000E+00  0.14088802965E+03  0.14088802965E+03  0.00000000000E+00 0.  1.
          1   -1    0    0  502    0  0.00000000000E+00 -0.00000000000E+00 -0.65342457561E+03  0.65342457561E+03  0.00000000000E+00 0. -1.
         23    2    1    2    0    0  0.15028818642E+03  0.26368114369E+02 -0.52930835646E+02  0.18411398271E+03  0.88399484342E+02 0.  0.
         23    2    1    2    0    0 -0.23843875611E+03 -0.10320848098E+03 -0.25496778736E+03  0.37450465914E+03  0.87978043630E+02 0.  0.
        -13    1    4    4    0    0 -0.62495395264E+02 -0.27676158008E+02 -0.19624201287E+02  0.71110853092E+02  0.00000000000E+00 0.  1.
         13    1    4    4    0    0 -0.17594336085E+03 -0.75532322971E+02 -0.23534358608E+03  0.30339380605E+03  0.00000000000E+00 0. -1.
        -13    1    3    3    0    0  0.13008658460E+03 -0.33089839224E+01 -0.65999575543E+02  0.14590891967E+03  0.00000000000E+00 0.  1.
         13    1    3    3    0    0  0.20201601827E+02  0.29677098291E+02  0.13068739897E+02  0.38205063039E+02  0.00000000000E+00 0. -1.
         21    1    1    2  502  501  0.88150569689E+02  0.76840366611E+02 -0.20463792295E+03  0.23569396341E+03  0.00000000000E+00 0. -1.
<scales pt_clust_5="13000.00000" pt_clust_6="13000.00000" pt_clust_7="13000.00000" pt_clust_8="13000.00000" pt_clust_9="116.94001"></scales>
<clustering>
<clus scale="   87.978">  5  6 -1 -1</clus>
<clus scale="   88.399">  7  8 -1 -1</clus>
<clus scale="  116.940">  2  9  1 -1</clus>
<clus scale="  201.003">  2  5  1 -1</clus>
<clus scale="  116.940">  2  5  1 -1</clus>
</clustering>
</event>
<event>
 9    1  0.2423659E-006  0.3225342E+03  0.7546771E-02  0.1123665E+00
         -1   -1    0    0    0  501 -0.00000000000E+00  0.00000000000E+00  0.90842243059E+03  0.90842243059E+03  0.00000000000E+00 0.  1.
          1   -1    0    0  502    0  0.00000000000E+00 -0.00000000000E+00 -0.18224494577E+03  0.18224494577E+03  0.00000000000E+00 0. -1.
         23    2    1    2    0    0 -0.17603318051E+02  0.26021353750E+02  0.30647860236E+03  0.31935859918E+03  0.84105847061E+02 0.  0.
         23    2    1    2    0    0  0.26591174911E+03 -0.19126918920E+03  0.28700342708E+03  0.44485509296E+03  0.90731061552E+02 0.  0.
        -13    1    4    4    0    0  0.10905935835E+03 -0.13080960670E+03  0.16516177908E+03  0.23724145953E+03  0.00000000000E+00 0.  1.
         13    1    4    4    0    0  0.15685239076E+03 -0.60459582495E+02  0.12184164800E+03  0.20761363344E+03  0.00000000000E+00 0. -1.
        -13    1    3    3    0    0 -0.20275150668E+01  0.55531138201E+02  0.16958874497E+03  0.17846052938E+03  0.00000000000E+00 0.  1.
         13    1    3    3    0    0 -0.15575802984E+02 -0.29509784451E+02  0.13688985739E+03  0.14089806980E+03  0.00000000000E+00 0. -1.
         21    1    1    2  502  501 -0.24830843106E+03  0.16524783545E+03  0.13269545538E+03  0.32645368421E+03  0.00000000000E+00 0.  1.
<scales pt_clust_5="13000.00000" pt_clust_6="13000.00000" pt_clust_7="13000.00000" pt_clust_8="13000.00000" pt_clust_9="309.50961"></scales>
<clustering>
<clus scale="   84.106">  7  8 -1 -1</clus>
<clus scale="   89.782">  1  7  2 -1</clus>
<clus scale="   90.731">  5  6 -1 -1</clus>
<clus scale="  309.510">  2  9  1 -1</clus>
<clus scale="  309.510">  2  5  1 -1</clus>
</clustering>
</event>
<event>
 9    1  0.2423659E-006  0.9681814E+02  0.7546771E-02  0.1289887E+00
         -2   -1    0    0    0  501 -0.00000000000E+00  0.00000000000E+00  0.49975977407E+02  0.49975977407E+02  0.00000000000E+00 0.  1.
          2   -1    0    0  502    0  0.00000000000E+00 -0.00000000000E+00 -0.71015940853E+03  0.71015940853E+03  0.00000000000E+00 0. -1.
         23    2    1    2    0    0  0.17468344348E+02  0.15621438320E+02 -0.26091825207E+02  0.97476909466E+02  0.90949393329E+02 0.  0.
         23    2    1    2    0    0  0.51850147362E+02  0.23819951291E+02 -0.40468145065E+03  0.41978053213E+03  0.95879042532E+02 0.  0.
        -11    1    3    3    0    0  0.45876885504E+02 -0.18198997365E+02 -0.18230785031E+02  0.52614196293E+02  0.00000000000E+00 0. -1.
         11    1    3    3    0    0 -0.28408541156E+02  0.33820435686E+02 -0.78610401765E+01  0.44862713173E+02  0.00000000000E+00 0.  1.
        -11    1    4    4    0    0  0.63665581677E+02 -0.19378083585E+02 -0.25520103843E+03  0.26373544780E+03  0.00000000000E+00 0. -1.
         11    1    4    4    0    0 -0.11815434315E+02  0.43198034876E+02 -0.14948041222E+03  0.15604508433E+03  0.00000000000E+00 0.  1.
         21    1    1    2  502  501 -0.69318491711E+02 -0.39441389611E+02 -0.22941015527E+03  0.24287794434E+03  0.00000000000E+00 0. -1.
<scales pt_clust_5="13000.00000" pt_clust_6="13000.00000" pt_clust_7="13000.00000" pt_clust_8="13000.00000" pt_clust_9="79.75385"></scales>
<clustering>
<clus scale="   79.754">  2  9  1 -1</clus>
<clus scale="   90.949">  5  6 -1 -1</clus>
<clus scale="   91.939">  1  5  2 -1</clus>
<clus scale="   95.879">  7  8 -1 -1</clus>
<clus scale="   79.754">  2  5  1 -1</clus>
</clustering>
</event>
<event>
 9    1  0.2423659E-006  0.1008730E+03  0.7546771E-02  0.1280326E+00
         -2   -1    0    0    0  501 -0.00000000000E+00  0.00000000000E+00  0.51336884910E+02  0.51336884910E+02  0.00000000000E+00 0.  1.
          2   -1    0    0  502    0  0.00000000000E+00 -0.00000000000E+00 -0.27587357221E+03  0.27587357221E+03  0.00000000000E+00 0. -1.
         23    2    1    2    0    0  0.15496780847E+02  0.17928455916E+02 -0.86298837304E+02  0.12631233264E+03  0.89138859707E+02 0.  0.
         23    2    1    2    0    0 -0.25024923858E+02 -0.52675320777E+02 -0.10286880572E+03  0.15040951764E+03  0.92952114417E+02 0.  0.
        -11    1    3    3    0    0 -0.20268501289E+02  0.43685166179E+02 -0.45520223810E+02  0.66266859472E+02  0.00000000000E+00 0.  1.
         11    1    3    3    0    0  0.35765282136E+02 -0.25756710264E+02 -0.40778613495E+02  0.60045473172E+02  0.00000000000E+00 0. -1.
        -11    1    4    4    0    0  0.24199689094E+01 -0.46018010712E+02 -0.25066460849E+01  0.46149721928E+02  0.00000000000E+00 0.  1.
         11    1    4    4    0    0 -0.27444892767E+02 -0.66573100644E+01 -0.10036215963E+03  0.10425979571E+03  0.00000000000E+00 0. -1.
         21    1    1    2  502  501  0.95281430111E+01  0.34746864861E+02 -0.35369044283E+02  0.50488606837E+02  0.00000000000E+00 0.  1.
<scales pt_clust_5="13000.00000" pt_clust_6="13000.00000" pt_clust_7="13000.00000" pt_clust_8="13000.00000" pt_clust_9="36.02957"></scales>
<clustering>
<clus scale="   36.030">  2  9  1 -1</clus>
<clus scale="   89.139">  5  6 -1 -1</clus>
<clus scale="   92.952">  7  8 -1 -1</clus>
<clus scale="   97.370">  1  5  2 -1</clus>
<clus scale="   36.030">  2  5  1 -1</clus>
</clustering>
</event>
<event>
 9    1  0.2423659E-006  0.1769980E+03  0.7546771E-02  0.1198813E+00
          2   -1    0    0  502    0  0.00000000000E+00  0.00000000000E+00  0.21550607075E+04  0.21550607075E+04  0.00000000000E+00 0.  1.
         -2   -1    0    0    0  501 -0.00000000000E+00 -0.00000000000E+00 -0.22474536755E+02  0.22474536755E+02  0.00000000000E+00 0. -1.
         23    2    1    2    0    0  0.27590737462E+02 -0.68118380947E+01  0.27910189020E+03  0.29471505813E+03  0.90285383324E+02 0.  0.
         23    2    1    2    0    0 -0.95960253258E+02 -0.12579640943E+03  0.10062480922E+04  0.10225478473E+04  0.89642457895E+02 0.  0.
        -11    1    4    4    0    0 -0.13139478632E+02 -0.91089292230E+02  0.51637160482E+03  0.52450885533E+03  0.00000000000E+00 0. -1.
         11    1    4    4    0    0 -0.82820774626E+02 -0.34707117199E+02  0.48987648734E+03  0.49803899199E+03  0.00000000000E+00 0.  1.
        -11    1    3    3    0    0 -0.20513567957E+02  0.24888116003E+02  0.14864860727E+03  0.15210730828E+03  0.00000000000E+00 0.  1.
         11    1    3    3    0    0  0.48104305419E+02 -0.31699954097E+02  0.13045328293E+03  0.14260774984E+03  0.00000000000E+00 0. -1.
         21    1    1    2  502  501  0.68369515796E+02  0.13260824752E+03  0.84723618835E+03  0.86027233877E+03  0.00000000000E+00 0. -1.
<scales pt_clust_5="13000.00000" pt_clust_6="13000.00000" pt_clust_7="13000.00000" pt_clust_8="13000.00000" pt_clust_9="152.61887"></scales>
<clustering>
<clus scale="   89.642">  5  6 -1 -1</clus>
<clus scale="   90.285">  7  8 -1 -1</clus>
<clus scale="   94.653">  2  7  1 -1</clus>
<clus scale="  152.619">  1  9  2 -1</clus>
<clus scale="  152.619">  1  5  2 -1</clus>
</clustering>
</event>
<event>
 9    1  0.2423659E-006  0.9613504E+02  0.7546771E-02  0.1288867E+00
          1   -1    0    0  502    0  0.00000000000E+00  0.00000000000E+00  0.43537095047E+03  0.43537095047E+03  0.00000000000E+00 0. -1.
         -1   -1    0    0    0  501 -0.00000000000E+00 -0.00000000000E+00 -0.56057728606E+02  0.56057728606E+02  0.00000000000E+00 0.  1.
         23    2    1    2    0    0 -0.36745696324E+02 -0.44663522667E+02  0.11351910806E+03  0.15627524188E+03  0.90500203718E+02 0.  0.
         23    2    1    2    0    0  0.23223490323E+02  0.54825227894E+01  0.27674942259E+03  0.29228130643E+03  0.90932560880E+02 0.  0.
        -11    1    3    3    0    0 -0.43981709617E+02 -0.15150020266E+02  0.89379904992E+01  0.47368782642E+02  0.00000000000E+00 0.  1.
         11    1    3    3    0    0  0.72360132926E+01 -0.29513502402E+02  0.10458111756E+03  0.10890645923E+03  0.00000000000E+00 0. -1.
        -13    1    4    4    0    0  0.31173431658E+02  0.40720001959E+02  0.21222849494E+03  0.21833651885E+03  0.00000000000E+00 0. -1.
         13    1    4    4    0    0 -0.79499413352E+01 -0.35237479169E+02  0.64520927647E+02  0.73944787578E+02  0.00000000000E+00 0.  1.
         21    1    1    2  502  501  0.13522206001E+02  0.39180999878E+02 -0.10955308780E+02  0.42872130773E+02  0.00000000000E+00 0.  1.
<scales pt_clust_5="13000.00000" pt_clust_6="13000.00000" pt_clust_7="13000.00000" pt_clust_8="13000.00000" pt_clust_9="41.44877"></scales>
<clustering>
<clus scale="   41.449">  2  9  1 -1</clus>
<clus scale="   90.500">  5  6 -1 -1</clus>
<clus scale="   90.933">  7  8 -1 -1</clus>
<clus scale="   95.726">  2  5  1 -1</clus>
<clus scale="   96.135">  1  5  2 -1</clus>
</clustering>
</event>
<event>
 9    1  0.2423659E-006  0.1306704E+03  0.7546771E-02  0.1226902E+00
         -3   -1    0    0    0  501 -0.00000000000E+00  0.00000000000E+00  0.42294975955E+03  0.42294975955E+03  0.00000000000E+00 0.  1.
          3   -1    0    0  502    0  0.00000000000E+00 -0.00000000000E+00 -0.37179524383E+03  0.37179524383E+03  0.00000000000E+00 0. -1.
         23    2    1    2    0    0  0.23433248910E+02  0.84630281237E+02  0.33951372585E+03  0.36207156885E+03  0.90082458161E+02 0.  0.
         23    2    1    2    0    0 -0.81635978596E+02 -0.46798966708E+02 -0.32756263810E+03  0.35295094795E+03  0.91774252894E+02 0.  0.
        -11    1    3    3    0    0 -0.21009838925E+01  0.55729803611E+02  0.30581303144E+03  0.31085661541E+03  0.00000000000E+00 0.  1.
         11    1    3    3    0    0  0.25534232803E+02  0.28900477626E+02  0.33700694409E+02  0.51214953436E+02  0.00000000000E+00 0. -1.
        -13    1    4    4    0    0 -0.78324127286E+02 -0.47121874688E+01 -0.13803396208E+03  0.15877735453E+03  0.00000000000E+00 0.  1.
         13    1    4    4    0    0 -0.33118513102E+01 -0.42086779240E+02 -0.18952867602E+03  0.19417359342E+03  0.00000000000E+00 0. -1.
         21    1    1    2  502  501  0.58202729686E+02 -0.37831314529E+02  0.39203427970E+02  0.79722486580E+02  0.00000000000E+00 0.  1.
<scales pt_clust_5="13000.00000" pt_clust_6="13000.00000" pt_clust_7="13000.00000" pt_clust_8="13000.00000" pt_clust_9="69.41733"></scales>
<clustering>
<clus scale="   69.417">  1  9  2 -1</clus>
<clus scale="   90.082">  5  6 -1 -1</clus>
<clus scale="   91.774">  7  8 -1 -1</clus>
<clus scale="  129.488">  1  5  2 -1</clus>
<clus scale="  130.670">  2  5  1 -1</clus>
</clustering>
</event>
<event>
 9    1  0.2423659E-006  0.1321779E+03  0.7546771E-02  0.1224370E+00
         -1   -1    0    0    0  501 -0.00000000000E+00  0.00000000000E+00  0.11015008880E+03  0.11015008880E+03  0.00000000000E+00 0.  1.
          1   -1    0    0  502    0  0.00000000000E+00 -0.00000000000E+00 -0.33576106550E+03  0.33576106550E+03  0.00000000000E+00 0. -1.
         23    2    1    2    0    0  0.44138231205E+02  0.14295197245E+03 -0.96847102007E+02  0.19942817569E+03  0.89491822034E+02 0.  0.
         23    2    1    2    0    0 -0.48001577958E+02 -0.56640250730E+02 -0.10611492753E+03  0.15716549118E+03  0.89041250467E+02 0.  0.
        -13    1    3    3    0    0  0.35358015234E+02  0.18768632244E+02 -0.55131268647E+02  0.68131546146E+02  0.00000000000E+00 0. -1.
         13    1    3    3    0    0  0.87802159703E+01  0.12418334020E+03 -0.41715833360E+02  0.13129662954E+03  0.00000000000E+00 0.  1.
        -13    1    4    4    0    0 -0.29859811211E+02 -0.73106232262E+02 -0.44014575935E+02  0.90406926813E+02  0.00000000000E+00 0. -1.
         13    1    4    4    0    0 -0.18141766748E+02  0.16465981532E+02 -0.62100351591E+02  0.66758564367E+02  0.00000000000E+00 0.  1.
         21    1    1    2  502  501  0.38633467538E+01 -0.86311721715E+02 -0.22648947161E+02  0.89317487432E+02  0.00000000000E+00 0. -1.
<scales pt_clust_5="13000.00000" pt_clust_6="13000.00000" pt_clust_7="13000.00000" pt_clust_8="13000.00000" pt_clust_9="86.39814"></scales>
<clustering>
<clus scale="   86.398">  1  9  2 -1</clus>
<clus scale="   89.041">  7  8 -1 -1</clus>
<clus scale="   89.492">  5  6 -1 -1</clus>
<clus scale="  131.873">  2  7  1 -1</clus>
<clus scale="  131.873">  2  5  1 -1</clus>
</clustering>
</event>
<event>
 9    1  0.2423659E-006  0.1312057E+03  0.7546771E-02  0.1225736E+00
         -2   -1    0    0    0  501 -0.00000000000E+00  0.00000000000E+00  0.39292104210E+02  0.39292104210E+02  0.00000000000E+00 0.  1.
          2   -1    0    0  502    0  0.00000000000E+00 -0.00000000000E+00 -0.67793193588E+03  0.67793193588E+03  0.00000000000E+00 0. -1.
         23    2    1    2    0    0 -0.19627902086E+02 -0.66126984457E+02 -0.11830937048E+03  0.16500142525E+03  0.92034398882E+02 0.  0.
         23    2    1    2    0    0  0.17260124123E+02  0.10284509136E+03 -0.46844961569E+03  0.48861877945E+03  0.91805470898E+02 0.  0.
        -13    1    4    4    0    0 -0.48997911971E+01  0.96346873130E+02 -0.44634525266E+03  0.45665174092E+03  0.00000000000E+00 0. -1.
         13    1    4    4    0    0  0.22159915320E+02  0.64982182286E+01 -0.22104363035E+02  0.31967038529E+02  0.00000000000E+00 0.  1.
        -13    1    3    3    0    0 -0.22433796926E+02 -0.86013844640E+02 -0.71544853988E+02  0.11410662928E+03  0.00000000000E+00 0.  1.
         13    1    3    3    0    0  0.28058948401E+01  0.19886860183E+02 -0.46764516490E+02  0.50894795966E+02  0.00000000000E+00 0. -1.
         21    1    1    2  502  501  0.23677779633E+01 -0.36718106902E+02 -0.51880845504E+02  0.63603835396E+02  0.00000000000E+00 0.  1.
<scales pt_clust_5="13000.00000" pt_clust_6="13000.00000" pt_clust_7="13000.00000" pt_clust_8="13000.00000" pt_clust_9="36.79437"></scales>
<clustering>
<clus scale="   36.794">  1  9  2 -1</clus>
<clus scale="   91.805">  5  6 -1 -1</clus>
<clus scale="   92.034">  7  8 -1 -1</clus>
<clus scale="  131.045">  2  5  1 -1</clus>
<clus scale="  131.045">  2  5  1 -1</clus>
</clustering>
</event>
<event>
 9    1  0.2423659E-006  0.9616419E+02  0.7546771E-02  0.1289797E+00
         -1   -1    0    0    0  501 -0.00000000000E+00  0.00000000000E+00  0.57406250663E+02  0.57406250663E+02  0.00000000000E+00 0.  1.
          1   -1    0    0  502    0  0.00000000000E+00 -0.00000000000E+00 -0.24912984648E+03  0.24912984648E+03  0.00000000000E+00 0. -1.
         23    2    1    2    0    0  0.13055317491E+02 -0.18085946567E+02 -0.22909513865E+02  0.97647332439E+02  0.92263822427E+02 0.  0.
         23    2    1    2    0    0  0.38570528851E+01  0.30246414924E+02 -0.16038435712E+03  0.18641732676E+03  0.89991973178E+02 0.  0.
        -11    1    4    4    0    0  0.24854291916E+02  0.53357121947E+02 -0.13066088014E+03  0.14330730577E+03  0.00000000000E+00 0. -1.
         11    1    4    4    0    0 -0.20997239030E+02 -0.23110707022E+02 -0.29723476975E+02  0.43110020986E+02  0.00000000000E+00 0.  1.
        -13    1    3    3    0    0 -0.38532063277E+02  0.25663272616E+01 -0.15398461776E+02  0.41574253584E+02  0.00000000000E+00 0.  1.
         13    1    3    3    0    0  0.51587380768E+02 -0.20652273829E+02 -0.75110520894E+01  0.56073078855E+02  0.00000000000E+00 0. -1.
         21    1    1    2  502  501 -0.16912370376E+02 -0.12160468357E+02 -0.84297248345E+01  0.22471437942E+02  0.00000000000E+00 0.  1.
<scales pt_clust_5="13000.00000" pt_clust_6="13000.00000" pt_clust_7="13000.00000" pt_clust_8="13000.00000" pt_clust_9="20.83039"></scales>
<clustering>
<clus scale="   20.830">  1  9  2 -1</clus>
<clus scale="   89.992">  5  6 -1 -1</clus>
<clus scale="   92.264">  7  8 -1 -1</clus>
<clus scale="   93.987">  2  5  1 -1</clus>
<clus scale="   93.987">  2  5  1 -1</clus>
</clustering>
</event>
<event>
 9    1  0.2423659E-006  0.1389900E+03  0.7546771E-02  0.1232104E+00
          2   -1    0    0  502    0  0.00000000000E+00  0.00000000000E+00  0.29118041618E+03  0.29118041618E+03  0.00000000000E+00 0. -1.
         -2   -1    0    0    0  501 -0.00000000000E+00 -0.00000000000E+00 -0.12874575042E+03  0.12874575042E+03  0.00000000000E+00 0.  1.
         23    2    1    2    0    0  0.27922170741E+02 -0.17308181182E+02 -0.17935695587E+02  0.98282176757E+02  0.90876159345E+02 0.  0.
         23    2    1    2    0    0  0.85335339455E+02 -0.37373480540E+02  0.13613954352E+03  0.18832590033E+03  0.90850273628E+02 0.  0.
        -11    1    3    3    0    0  0.47281089209E+02 -0.43002971783E+02 -0.69589640224E+01  0.64289844915E+02  0.00000000000E+00 0.  1.
         11    1    3    3    0    0 -0.19358918468E+02  0.25694790601E+02 -0.10976731564E+02  0.33992331843E+02  0.00000000000E+00 0. -1.
        -11    1    4    4    0    0  0.81789379587E+02 -0.60000405258E+02  0.85187666311E+02  0.13246316369E+03  0.00000000000E+00 0.  1.
         11    1    4    4    0    0  0.35459598672E+01  0.22626924717E+02  0.50951877205E+02  0.55862736634E+02  0.00000000000E+00 0. -1.
         21    1    1    2  502  501 -0.11325751020E+03  0.54681661722E+02  0.44230817833E+02  0.13331808951E+03  0.00000000000E+00 0. -1.
<scales pt_clust_5="13000.00000" pt_clust_6="13000.00000" pt_clust_7="13000.00000" pt_clust_8="13000.00000" pt_clust_9="105.18763"></scales>
<clustering>
<clus scale="   90.850">  7  8 -1 -1</clus>
<clus scale="   90.876">  5  6 -1 -1</clus>
<clus scale="   96.632">  2  5  1 -1</clus>
<clus scale="  105.188">  2  9  1 -1</clus>
<clus scale="  138.990">  1  5  2 -1</clus>
</clustering>
</event>
<event>
 9    1  0.2423659E-006  0.9536837E+02  0.7546771E-02  0.1291032E+00
         -1   -1    0    0    0  501 -0.00000000000E+00  0.00000000000E+00  0.29693020027E+03  0.29693020027E+03  0.00000000000E+00 0.  1.
          1   -1    0    0  502    0  0.00000000000E+00 -0.00000000000E+00 -0.66613925304E+02  0.66613925304E+02  0.00000000000E+00 0. -1.
         23    2    1    2    0    0 -0.40800414561E+02 -0.33154377959E+02  0.94642848623E+02  0.14187496376E+03  0.91691602339E+02 0.  0.
         23    2    1    2    0    0 -0.31169803513E+02  0.21320893023E+02  0.52971863965E+02  0.11139998174E+03  0.90431191682E+02 0.  0.
        -11    1    3    3    0    0  0.24286074237E+02  0.97968789083E+01  0.34934364615E+02  0.43660074087E+02  0.00000000000E+00 0.  1.
         11    1    3    3    0    0 -0.65086488798E+02 -0.42951256867E+02  0.59708484007E+02  0.98214889671E+02  0.00000000000E+00 0. -1.
        -13    1    4    4    0    0 -0.54741320447E+02  0.34767617351E+02  0.53784364882E+02  0.84250562528E+02  0.00000000000E+00 0. -1.
         13    1    4    4    0    0  0.23571516933E+02 -0.13446724328E+02 -0.81250091705E+00  0.27149419210E+02  0.00000000000E+00 0.  1.
         21    1    1    2  502  501  0.71970218074E+02  0.11833484936E+02  0.82701562379E+02  0.11026918008E+03  0.00000000000E+00 0.  1.
<scales pt_clust_5="13000.00000" pt_clust_6="13000.00000" pt_clust_7="13000.00000" pt_clust_8="13000.00000" pt_clust_9="72.93657"></scales>
<clustering>
<clus scale="   72.937">  1  9  2 -1</clus>
<clus scale="   90.431">  7  8 -1 -1</clus>
<clus scale="   91.692">  5  6 -1 -1</clus>
<clus scale="   94.157">  2  7  1 -1</clus>
<clus scale="   94.157">  2  5  1 -1</clus>
</clustering>
</event>
<event>
 9    1  0.2423659E-006  0.9964377E+02  0.7546771E-02  0.1281193E+00
          2   -1    0    0  502    0  0.00000000000E+00  0.00000000000E+00  0.38002735194E+02  0.38002735194E+02  0.00000000000E+00 0. -1.
         -2   -1    0    0    0  501 -0.00000000000E+00 -0.00000000000E+00 -0.49105080399E+03  0.49105080399E+03  0.00000000000E+00 0.  1.
         23    2    1    2    0    0 -0.68407523081E+02  0.25554395377E+02 -0.17695725430E+03  0.21206852936E+03  0.91250068252E+02 0.  0.
         23    2    1    2    0    0  0.67365170586E+01 -0.14989513546E+02 -0.14917957340E+03  0.17548803874E+03  0.90947459784E+02 0.  0.
        -11    1    3    3    0    0 -0.73850810517E+02  0.48603770537E+02 -0.16046583780E+03  0.18320904406E+03  0.00000000000E+00 0.  1.
         11    1    3    3    0    0  0.54432874359E+01 -0.23049375160E+02 -0.16491416506E+02  0.28859485299E+02  0.00000000000E+00 0. -1.
        -13    1    4    4    0    0 -0.31889831770E+02 -0.21020264376E+00 -0.12175978251E+03  0.12586679543E+03  0.00000000000E+00 0.  1.
         13    1    4    4    0    0  0.38626348829E+02 -0.14779310902E+02 -0.27419790890E+02  0.49621243304E+02  0.00000000000E+00 0. -1.
         21    1    1    2  502  501  0.61671006023E+02 -0.10564881831E+02 -0.12691124109E+03  0.14149697109E+03  0.00000000000E+00 0. -1.
<scales pt_clust_5="13000.00000" pt_clust_6="13000.00000" pt_clust_7="13000.00000" pt_clust_8="13000.00000" pt_clust_9="62.56940"></scales>
<clustering>
<clus scale="   62.569">  2  9  1 -1</clus>
<clus scale="   90.947">  7  8 -1 -1</clus>
<clus scale="   91.250">  5  6 -1 -1</clus>
<clus scale="   99.367">  1  7  2 -1</clus>
<clus scale="   99.367">  1  5  2 -1</clus>
</clustering>
</event>
<event>
 9    1  0.2423659E-006  0.1214894E+03  0.7546771E-02  0.1240967E+00
          2   -1    0    0  502    0  0.00000000000E+00  0.00000000000E+00  0.18504789164E+03  0.18504789164E+03  0.00000000000E+00 0. -1.
         -2   -1    0    0    0  501 -0.00000000000E+00 -0.00000000000E+00 -0.23954565865E+03  0.23954565865E+03  0.00000000000E+00 0.  1.
         23    2    1    2    0    0  0.59345022191E+02 -0.22044177907E+02 -0.52003363948E+02  0.12268068128E+03  0.91314961855E+02 0.  0.
         23    2    1    2    0    0 -0.84424444311E+02  0.36430102528E+01  0.12129108636E+03  0.17427890889E+03  0.92308461857E+02 0.  0.
        -11    1    4    4    0    0 -0.35058468176E+02  0.31190306801E+02  0.10568246931E+03  0.11563181115E+03  0.00000000000E+00 0. -1.
         11    1    4    4    0    0 -0.49365976135E+02 -0.27547296548E+02  0.15608617050E+02  0.58647097738E+02  0.00000000000E+00 0.  1.
        -13    1    3    3    0    0  0.17422945757E+02  0.35686925876E+02 -0.20434212790E+02  0.44661759590E+02  0.00000000000E+00 0. -1.
         13    1    3    3    0    0  0.41922076434E+02 -0.57731103783E+02 -0.31569151159E+02  0.78018921688E+02  0.00000000000E+00 0.  1.
         21    1    1    2  502  501  0.25079422121E+02  0.18401167655E+02 -0.12378548942E+03  0.12763396012E+03  0.00000000000E+00 0.  1.
<scales pt_clust_5="13000.00000" pt_clust_6="13000.00000" pt_clust_7="13000.00000" pt_clust_8="13000.00000" pt_clust_9="31.10595"></scales>
<clustering>
<clus scale="   31.106">  2  9  1 -1</clus>
<clus scale="   91.315">  7  8 -1 -1</clus>
<clus scale="   92.308">  5  6 -1 -1</clus>
<clus scale="  120.736">  2  7  1 -1</clus>
<clus scale="  121.489">  1  5  2 -1</clus>
</clustering>
</event>
<event>
 9    1  0.2423659E-006  0.1041452E+03  0.7546771E-02  0.1273999E+00
         -1   -1    0    0    0  501 -0.00000000000E+00  0.00000000000E+00  0.38565026181E+02  0.38565026181E+02  0.00000000000E+00 0.  1.
          1   -1    0    0  502    0  0.00000000000E+00 -0.00000000000E+00 -0.38928680938E+03  0.38928680938E+03  0.00000000000E+00 0. -1.
         23    2    1    2    0    0 -0.30881172034E+02 -0.91232864100E+00 -0.96736021933E+02  0.13634980804E+03  0.90988642600E+02 0.  0.
         23    2    1    2    0    0  0.60511268840E+02  0.24107970929E+01 -0.20658398419E+03  0.23558140061E+03  0.95677730906E+02 0.  0.
        -13    1    3    3    0    0 -0.13632904971E+02  0.33139346243E+02 -0.39892482670E+01  0.36055325114E+02  0.00000000000E+00 0.  1.
         13    1    3    3    0    0 -0.17248267064E+02 -0.34051674884E+02 -0.92746773666E+02  0.10029448292E+03  0.00000000000E+00 0. -1.
        -13    1    4    4    0    0  0.56943835342E+02 -0.40216787765E+02 -0.11462248084E+03  0.13415775608E+03  0.00000000000E+00 0. -1.
         13    1    4    4    0    0  0.35674334987E+01  0.42627584858E+02 -0.91961503342E+02  0.10142364453E+03  0.00000000000E+00 0.  1.
         21    1    1    2  502  501 -0.29630096806E+02 -0.14984684519E+01 -0.47401777076E+02  0.55920626914E+02  0.00000000000E+00 0.  1.
<scales pt_clust_5="13000.00000" pt_clust_6="13000.00000" pt_clust_7="13000.00000" pt_clust_8="13000.00000" pt_clust_9="29.66796"></scales>
<clustering>
<clus scale="   29.668">  2  9  1 -1</clus>
<clus scale="   90.989">  5  6 -1 -1</clus>
<clus scale="   95.678">  7  8 -1 -1</clus>
<clus scale="   99.855">  1  5  2 -1</clus>
<clus scale="   29.668">  2  5  1 -1</clus>
</clustering>
</event>
<event>
 9    1  0.2423659E-006  0.3532455E+03  0.7546771E-02  0.1101737E+00
         -1   -1    0    0    0  501 -0.00000000000E+00  0.00000000000E+00  0.10798611945E+03  0.10798611945E+03  0.00000000000E+00 0.  1.
          1   -1    0    0  502    0  0.00000000000E+00 -0.00000000000E+00 -0.16900224018E+04  0.16900224018E+04  0.00000000000E+00 0. -1.
         23    2    1    2    0    0  0.75451017010E+02  0.35076233131E+02 -0.10319957832E+03  0.15762659856E+03  0.85280674899E+02 0.  0.
         23    2    1    2    0    0 -0.23356114306E+03  0.26050807373E+03 -0.92302677716E+03  0.99131060980E+03  0.91120962011E+02 0.  0.
        -11    1    4    4    0    0 -0.54198452799E+02  0.99644617489E+02 -0.20997311739E+03  0.23865295328E+03  0.00000000000E+00 0. -1.
         11    1    4    4    0    0 -0.17936269026E+03  0.16086345624E+03 -0.71305365977E+03  0.75265765652E+03  0.00000000000E+00 0.  1.
        -11    1    3    3    0    0  0.39242565972E+02  0.61528615025E+02 -0.52248867899E+02  0.89753516074E+02  0.00000000000E+00 0. -1.
         11    1    3    3    0    0  0.36208451038E+02 -0.26452381894E+02 -0.50950710418E+02  0.67873082489E+02  0.00000000000E+00 0.  1.
         21    1    1    2  502  501  0.15811012605E+03 -0.29558430686E+03 -0.55580992692E+03  0.64907131294E+03  0.00000000000E+00 0. -1.
<scales pt_clust_5="13000.00000" pt_clust_6="13000.00000" pt_clust_7="13000.00000" pt_clust_8="13000.00000" pt_clust_9="341.29067"></scales>
<clustering>
<clus scale="   85.281">  7  8 -1 -1</clus>
<clus scale="   91.121">  5  6 -1 -1</clus>
<clus scale="  119.147">  1  7  2 -1</clus>
<clus scale="  341.291">  1  9  2 -1</clus>
<clus scale="  353.245">  2  5  1 -1</clus>
</clustering>
</event>
<event>
 9    1  0.2423659E-006  0.1102924E+03  0.7546771E-02  0.1260585E+00
         -3   -1    0    0    0  501 -0.00000000000E+00  0.00000000000E+00  0.10681303180E+03  0.10681303180E+03  0.00000000000E+00 0.  1.
          3   -1    0    0  502    0  0.00000000000E+00 -0.00000000000E+00 -0.19691111689E+03  0.19691111689E+03  0.00000000000E+00 0. -1.
         23    2    1    2    0    0 -0.87916559852E+01 -0.38506848879E+02  0.17279886716E+02  0.10092766924E+03  0.91256393238E+02 0.  0.
         23    2    1    2    0    0  0.25032154110E+02  0.66018553676E+02 -0.12245670630E+03  0.16746921075E+03  0.89806644872E+02 0.  0.
        -11    1    3    3    0    0  0.41234987796E+02 -0.19396719457E+02  0.11953801948E+02  0.47111042498E+02  0.00000000000E+00 0. -1.
         11    1    3    3    0    0 -0.50026643781E+02 -0.19110129422E+02  0.53260847677E+01  0.53816626738E+02  0.00000000000E+00 0.  1.
        -13    1    4    4    0    0  0.58373800462E+01  0.81333696267E+02 -0.11649800930E+03  0.14220067273E+03  0.00000000000E+00 0. -1.
         13    1    4    4    0    0  0.19194774064E+02 -0.15315142591E+02 -0.59586970073E+01  0.25268538026E+02  0.00000000000E+00 0.  1.
         21    1    1    2  502  501 -0.16240498125E+02 -0.27511704797E+02  0.15078734500E+02  0.35327268707E+02  0.00000000000E+00 0.  1.
<scales pt_clust_5="13000.00000" pt_clust_6="13000.00000" pt_clust_7="13000.00000" pt_clust_8="13000.00000" pt_clust_9="31.94758"></scales>
<clustering>
<clus scale="   31.948">  1  9  2 -1</clus>
<clus scale="   89.807">  7  8 -1 -1</clus>
<clus scale="   91.256">  5  6 -1 -1</clus>
<clus scale="  109.096">  2  7  1 -1</clus>
<clus scale="  109.096">  2  5  1 -1</clus>
</clustering>
</event>
<event>
 9    1  0.2423659E-006  0.9735086E+02  0.7546771E-02  0.1286268E+00
          2   -1    0    0  502    0  0.00000000000E+00  0.00000000000E+00  0.72857623633E+03  0.72857623633E+03  0.00000000000E+00 0. -1.
         -2   -1    0    0    0  501 -0.00000000000E+00 -0.00000000000E+00 -0.25587172268E+02  0.25587172268E+02  0.00000000000E+00 0.  1.
         23    2    1    2    0    0 -0.56119417985E+02 -0.41918807303E+02  0.22535332730E+03  0.25311412025E+03  0.91520818737E+02 0.  0.
         23    2    1    2    0    0  0.12943707532E+02  0.54630440196E+01  0.33233409999E+03  0.34514633681E+03  0.92101332158E+02 0.  0.
        -11    1    3    3    0    0  0.14874778490E+02 -0.29952968804E+02  0.30039283897E+02  0.44953286336E+02  0.00000000000E+00 0.  1.
         11    1    3    3    0    0 -0.70994196475E+02 -0.11965838499E+02  0.19531404341E+03  0.20816083391E+03  0.00000000000E+00 0. -1.
        -13    1    4    4    0    0  0.37781390705E+02  0.35448706023E+02  0.14980430798E+03  0.15850985752E+03  0.00000000000E+00 0.  1.
         13    1    4    4    0    0 -0.24837683173E+02 -0.29985662004E+02  0.18252979201E+03  0.18663647929E+03  0.00000000000E+00 0. -1.
         21    1    1    2  502  501  0.43175710453E+02  0.36455763283E+02  0.14530163677E+03  0.15590295153E+03  0.00000000000E+00 0.  1.
<scales pt_clust_5="13000.00000" pt_clust_6="13000.00000" pt_clust_7="13000.00000" pt_clust_8="13000.00000" pt_clust_9="56.50809"></scales>
<clustering>
<clus scale="   56.508">  2  9  1 -1</clus>
<clus scale="   91.521">  5  6 -1 -1</clus>
<clus scale="   92.101">  7  8 -1 -1</clus>
<clus scale="   96.802">  2  5  1 -1</clus>
<clus scale="   97.351">  1  5  2 -1</clus>
</clustering>
</event>
<event>
 9    1  0.2423659E-006  0.1553455E+03  0.7546771E-02  0.1205500E+00
          1   -1    0    0  502    0  0.00000000000E+00  0.00000000000E+00  0.28693519853E+03  0.28693519853E+03  0.00000000000E+00 0. -1.
         -1   -1    0    0    0  501 -0.00000000000E+00 -0.00000000000E+00 -0.42802421736E+03  0.42802421736E+03  0.00000000000E+00 0.  1.
         23    2    1    2    0    0 -0.79303814520E+02 -0.51689864984E+00 -0.31545205586E+03  0.33791286847E+03  0.91573713215E+02 0.  0.
         23    2    1    2    0    0 -0.41388925261E+02 -0.73442245350E+02 -0.31946531124E+02  0.12684596724E+03  0.89232908823E+02 0.  0.
        -11    1    3    3    0    0 -0.48681713272E+02 -0.45400873064E+02 -0.18417560695E+03  0.19583616285E+03  0.00000000000E+00 0. -1.
         11    1    3    3    0    0 -0.30622101248E+02  0.44883974414E+02 -0.13127644891E+03  0.14207670562E+03  0.00000000000E+00 0.  1.
        -11    1    4    4    0    0 -0.18481063791E+02 -0.85465456295E+02 -0.44474015512E+02  0.98101131463E+02  0.00000000000E+00 0.  1.
         11    1    4    4    0    0 -0.22907861469E+02  0.12023210945E+02  0.12527484388E+02  0.28744835773E+02  0.00000000000E+00 0. -1.
         21    1    1    2  502  501  0.12069273978E+03  0.73959144000E+02  0.20630956815E+03  0.25020058019E+03  0.00000000000E+00 0. -1.
<scales pt_clust_5="13000.00000" pt_clust_6="13000.00000" pt_clust_7="13000.00000" pt_clust_8="13000.00000" pt_clust_9="127.16016"></scales>
<clustering>
<clus scale="   89.233">  7  8 -1 -1</clus>
<clus scale="   91.574">  5  6 -1 -1</clus>
<clus scale="  121.141">  2  5  1 -1</clus>
<clus scale="  127.160">  1  9  2 -1</clus>
<clus scale="  127.160">  1  5  2 -1</clus>
</clustering>
</event>
<event>
 9    1  0.2423659E-006  0.9590590E+02  0.7546771E-02  0.1291617E+00
          1   -1    0    0  502    0  0.00000000000E+00  0.00000000000E+00  0.50927995407E+03  0.50927995407E+03  0.00000000000E+00 0. -1.
         -1   -1    0    0    0  501 -0.00000000000E+00 -0.00000000000E+00 -0.14389375344E+03  0.14389375344E+03  0.00000000000E+00 0.  1.
         23    2    1    2    0    0 -0.12436321820E+02  0.14703256384E+02 -0.93756520823E+02  0.13400291233E+03  0.93785113244E+02 0.  0.
         23    2    1    2    0    0  0.80086749640E+02  0.30193300740E+02  0.40005871910E+03  0.41875565410E+03  0.89352091376E+02 0.  0.
        -11    1    4    4    0    0  0.16784352721E+02 -0.25482868570E+02  0.49062786268E+02  0.57777574224E+02  0.00000000000E+00 0.  1.
         11    1    4    4    0    0  0.63302396918E+02  0.55676169310E+02  0.35099593283E+03  0.36097807987E+03  0.00000000000E+00 0. -1.
        -11    1    3    3    0    0 -0.68769445887E+01  0.47851722270E+02 -0.18826886532E+02  0.51879970581E+02  0.00000000000E+00 0.  1.
         11    1    3    3    0    0 -0.55593772308E+01 -0.33148465886E+02 -0.74929634291E+02  0.82122941745E+02  0.00000000000E+00 0. -1.
         21    1    1    2  502  501 -0.67650427820E+02 -0.44896557123E+02  0.59084002355E+02  0.10041514109E+03  0.00000000000E+00 0.  1.
<scales pt_clust_5="13000.00000" pt_clust_6="13000.00000" pt_clust_7="13000.00000" pt_clust_8="13000.00000" pt_clust_9="81.19286"></scales>
<clustering>
<clus scale="   81.193">  1  9  2 -1</clus>
<clus scale="   89.352">  5  6 -1 -1</clus>
<clus scale="   91.576">  1  5  2 -1</clus>
<clus scale="   93.785">  7  8 -1 -1</clus>
<clus scale="   81.193">  1  5  2 -1</clus>
</clustering>
</event>
<event>
 9    1  0.2423659E-006  0.1416554E+03  0.7546771E-02  0.1231264E+00
          1   -1    0    0  502    0  0.00000000000E+00  0.00000000000E+00  0.10203406057E+04  0.10203406057E+04  0.00000000000E+00 0. -1.
         -1   -1    0    0    0  501 -0.00000000000E+00 -0.00000000000E+00 -0.32479505830E+02  0.32479505830E+02  0.00000000000E+00 0.  1.
         23    2    1    2    0    0  0.70018590788E+01 -0.17749698705E+02  0.14909239647E+03  0.17565252543E+03  0.90891084104E+02 0.  0.
         23    2    1    2    0    0  0.86572405469E+02 -0.46489169275E+02  0.33659635398E+03  0.36232795703E+03  0.91260170298E+02 0.  0.
        -11    1    3    3    0    0  0.37801773527E+02  0.17723839483E+02  0.44638912412E+02  0.61120709004E+02  0.00000000000E+00 0.  1.
         11    1    3    3    0    0 -0.30799914448E+02 -0.35473538188E+02  0.10445348406E+03  0.11453181643E+03  0.00000000000E+00 0. -1.
        -11    1    4    4    0    0  0.65406192330E+02  0.16621812878E+02  0.17464311604E+03  0.18722839699E+03  0.00000000000E+00 0.  1.
         11    1    4    4    0    0  0.21166213139E+02 -0.63110982153E+02  0.16195323794E+03  0.17509956004E+03  0.00000000000E+00 0. -1.
         21    1    1    2  502  501 -0.93574264548E+02  0.64238867980E+02  0.50217234945E+03  0.51483962911E+03  0.00000000000E+00 0.  1.
<scales pt_clust_5="13000.00000" pt_clust_6="13000.00000" pt_clust_7="13000.00000" pt_clust_8="13000.00000" pt_clust_9="108.34126"></scales>
<clustering>
<clus scale="   90.891">  5  6 -1 -1</clus>
<clus scale="   91.260">  7  8 -1 -1</clus>
<clus scale="   92.872">  2  5  1 -1</clus>
<clus scale="  108.341">  1  9  2 -1</clus>
<clus scale="  108.341">  1  5  2 -1</clus>
</clustering>
</event>
<event>
 9    1  0.2423659E-006  0.2000689E+03  0.7546771E-02  0.1179381E+00
          3   -1    0    0  502    0  0.00000000000E+00  0.00000000000E+00  0.13404447507E+03  0.13404447507E+03  0.00000000000E+00 0. -1.
         -3   -1    0    0    0  501 -0.00000000000E+00 -0.00000000000E+00 -0.88422359585E+03  0.88422359585E+03  0.00000000000E+00 0.  1.
         23    2    1    2    0    0  0.31377162948E+02  0.18157183135E+03 -0.73287105131E+03  0.76089811496E+03  0.88955647351E+02 0.  0.
         23    2    1    2    0    0 -0.27388461748E+02 -0.31223994634E+02 -0.33321455704E+02  0.10611913685E+03  0.91792625613E+02 0.  0.
        -11    1    4    4    0    0  0.20658529740E+02 -0.27930441443E+02  0.15050913646E+02  0.37860459741E+02  0.00000000000E+00 0. -1.
         11    1    4    4    0    0 -0.48046991488E+02 -0.32935531911E+01 -0.48372369350E+02  0.68258677105E+02  0.00000000000E+00 0.  1.
        -13    1    3    3    0    0 -0.90588439394E+01  0.15053154573E+03 -0.48768192095E+03  0.51046592926E+03  0.00000000000E+00 0.  1.
         13    1    3    3    0    0  0.40436006888E+02  0.31040285623E+02 -0.24518913036E+03  0.25043218569E+03  0.00000000000E+00 0. -1.
         21    1    1    2  502  501 -0.39887012006E+01 -0.15034783672E+03  0.16013386238E+02  0.15125081911E+03  0.00000000000E+00 0. -1.
<scales pt_clust_5="13000.00000" pt_clust_6="13000.00000" pt_clust_7="13000.00000" pt_clust_8="13000.00000" pt_clust_9="179.20503"></scales>
<clustering>
<clus scale="   88.956">  7  8 -1 -1</clus>
<clus scale="   91.793">  5  6 -1 -1</clus>
<clus scale="  100.752">  1  5  2 -1</clus>
<clus scale="  179.205">  1  9  2 -1</clus>
<clus scale="  100.752">  1  5  2 -1</clus>
</clustering>
</event>
<event>
 9    1  0.2423659E-006  0.2166377E+03  0.7546771E-02  0.1170749E+00
          2   -1    0    0  502    0  0.00000000000E+00  0.00000000000E+00  0.59027866852E+03  0.59027866852E+03  0.00000000000E+00 0. -1.
         -2   -1    0    0    0  501 -0.00000000000E+00 -0.00000000000E+00 -0.15203876136E+03  0.15203876136E+03  0.00000000000E+00 0.  1.
         23    2    1    2    0    0  0.18926018508E+03 -0.75306004862E+02  0.35897230270E+01  0.22362789325E+03  0.92228718431E+02 0.  0.
         23    2    1    2    0    0 -0.25399051093E+02  0.25169161915E+02  0.82139138617E+02  0.12673518794E+03  0.89645810060E+02 0.  0.
        -11    1    3    3    0    0  0.12973278444E+03 -0.92911054255E+02  0.15835844411E+02  0.16035533458E+03  0.00000000000E+00 0.  1.
         11    1    3    3    0    0  0.59527400645E+02  0.17605049394E+02 -0.12246121384E+02  0.63272558670E+02  0.00000000000E+00 0. -1.
        -13    1    4    4    0    0 -0.32840842428E+02  0.54973708432E+02  0.66289112226E+02  0.92167651320E+02  0.00000000000E+00 0. -1.
         13    1    4    4    0    0  0.74417913351E+01 -0.29804546516E+02  0.15850026390E+02  0.34567536619E+02  0.00000000000E+00 0.  1.
         21    1    1    2  502  501 -0.16386113399E+03  0.50136842946E+02  0.35251104552E+03  0.39195434870E+03  0.00000000000E+00 0. -1.
<scales pt_clust_5="13000.00000" pt_clust_6="13000.00000" pt_clust_7="13000.00000" pt_clust_8="13000.00000" pt_clust_9="196.02487"></scales>
<clustering>
<clus scale="   89.646">  7  8 -1 -1</clus>
<clus scale="   92.229">  5  6 -1 -1</clus>
<clus scale="   96.514">  1  7  2 -1</clus>
<clus scale="  196.025">  1  9  2 -1</clus>
<clus scale="   96.514">  1  5  2 -1</clus>
</clustering>
</event>
<event>
 9    1  0.2423659E-006  0.1018594E+03  0.7546771E-02  0.1279793E+00
          2   -1    0    0  502    0  0.00000000000E+00  0.00000000000E+00  0.23492024588E+03  0.23492024588E+03  0.00000000000E+00 0. -1.
         -2   -1    0    0    0  501 -0.00000000000E+00 -0.00000000000E+00 -0.69986748288E+02  0.69986748288E+02  0.00000000000E+00 0.  1.
         23    2    1    2    0    0  0.11082879135E+02  0.39948210223E+02  0.22623541127E+02  0.10837232494E+03  0.97539973804E+02 0.  0.
         23    2    1    2    0    0 -0.18584743788E+02 -0.18927309342E+02  0.14588638024E+03  0.17393053124E+03  0.90914014413E+02 0.  0.
        -11    1    3    3    0    0 -0.95616607174E+01  0.54950978827E+02 -0.19528765837E+02  0.59096599943E+02  0.00000000000E+00 0. -1.
         11    1    3    3    0    0  0.20644539852E+02 -0.15002768604E+02  0.42152306964E+02  0.49275724996E+02  0.00000000000E+00 0.  1.
        -11    1    4    4    0    0  0.87652813557E+00 -0.52369485225E+02  0.59465135256E+02  0.79242877253E+02  0.00000000000E+00 0.  1.
         11    1    4    4    0    0 -0.19461271924E+02  0.33442175883E+02  0.86421244985E+02  0.94687653986E+02  0.00000000000E+00 0. -1.
         21    1    1    2  502  501  0.75018646533E+01 -0.21020900881E+02 -0.35764237769E+01  0.22604137987E+02  0.00000000000E+00 0.  1.
<scales pt_clust_5="13000.00000" pt_clust_6="13000.00000" pt_clust_7="13000.00000" pt_clust_8="13000.00000" pt_clust_9="22.31941"></scales>
<clustering>
<clus scale="   22.319">  2  9  1 -1</clus>
<clus scale="   90.914">  7  8 -1 -1</clus>
<clus scale="   95.533">  1  7  2 -1</clus>
<clus scale="   97.540">  5  6 -1 -1</clus>
<clus scale="   95.533">  1  5  2 -1</clus>
</clustering>
</event>
<event>
 9    1  0.2423659E-006  0.1560339E+03  0.7546771E-02  0.1201127E+00
         -1   -1    0    0    0  501 -0.00000000000E+00  0.00000000000E+00  0.14939290498E+03  0.14939290498E+03  0.00000000000E+00 0.  1.
          1   -1    0    0  502    0  0.00000000000E+00 -0.00000000000E+00 -0.55156450495E+03  0.55156450495E+03  0.00000000000E+00 0. -1.
         23    2    1    2    0    0 -0.13691539280E+02  0.12899277425E+03 -0.13694887326E+03  0.20751989625E+03  0.86503869254E+02 0.  0.
         23    2    1    2    0    0  0.92342963273E+02 -0.16940423925E+02 -0.32004861914E+03  0.34596665490E+03  0.91910863649E+02 0.  0.
        -11    1    3    3    0    0 -0.39704630519E+02  0.28303306791E+02 -0.64143076169E+02  0.80572135881E+02  0.00000000000E+00 0. -1.
         11    1    3    3    0    0  0.26013091239E+02  0.10068946746E+03 -0.72805797093E+02  0.12694776037E+03  0.00000000000E+00 0.  1.
        -11    1    4    4    0    0  0.82589813796E+02  0.25102619746E+02 -0.18411562162E+03  0.20334645555E+03  0.00000000000E+00 0.  1.
         11    1    4    4    0    0  0.97531494778E+01 -0.42043043671E+02 -0.13593299753E+03  0.14262019935E+03  0.00000000000E+00 0. -1.
         21    1    1    2  502  501 -0.78651423993E+02 -0.11205235032E+03  0.54825892435E+02  0.14747085878E+03  0.00000000000E+00 0.  1.
<scales pt_clust_5="13000.00000" pt_clust_6="13000.00000" pt_clust_7="13000.00000" pt_clust_8="13000.00000" pt_clust_9="129.86016"></scales>
<clustering>
<clus scale="   86.504">  5  6 -1 -1</clus>
<clus scale="   91.911">  7  8 -1 -1</clus>
<clus scale="  131.384">  2  7  1 -1</clus>
<clus scale="  129.860">  1  9  2 -1</clus>
<clus scale="  131.384">  2  5  1 -1</clus>
</clustering>
</event>
<event>
 9    1  0.2423659E-006  0.1335132E+03  0.7546771E-02  0.1247226E+00
         -2   -1    0    0    0  501 -0.00000000000E+00  0.00000000000E+00  0.52333806049E+02  0.52333806049E+02  0.00000000000E+00 0.  1.
          2   -1    0    0  502    0  0.00000000000E+00 -0.00000000000E+00 -0.85865475309E+03  0.85865475309E+03  0.00000000000E+00 0. -1.
         23    2    1    2    0    0  0.14136923595E+02 -0.10751214423E+01 -0.12492937984E+03  0.14844385641E+03  0.78912737018E+02 0.  0.
         23    2    1    2    0    0  0.19116086339E+02  0.93416501589E+02 -0.82015075542E+02  0.15518577104E+03  0.90907004074E+02 0.  0.
        -11    1    4    4    0    0 -0.14554829005E+02  0.70401886137E+02 -0.10217940760E+02  0.72613187042E+02  0.00000000000E+00 0.  1.
         11    1    4    4    0    0  0.33670915343E+02  0.23014615452E+02 -0.71797134783E+02  0.82572583994E+02  0.00000000000E+00 0. -1.
        -11    1    3    3    0    0 -0.32340255213E+02 -0.45710846669E+01 -0.62678850973E+02  0.70678322572E+02  0.00000000000E+00 0.  1.
         11    1    3    3    0    0  0.46477178808E+02  0.34959632247E+01 -0.62250528871E+02  0.77765533841E+02  0.00000000000E+00 0. -1.
         21    1    1    2  502  501 -0.33253009934E+02 -0.92341380147E+02 -0.59937649165E+03  0.60735893169E+03  0.00000000000E+00 0. -1.
<scales pt_clust_5="13000.00000" pt_clust_6="13000.00000" pt_clust_7="13000.00000" pt_clust_8="13000.00000" pt_clust_9="97.78389"></scales>
<clustering>
<clus scale="   78.913">  7  8 -1 -1</clus>
<clus scale="   80.176">  1  7  2 -1</clus>
<clus scale="   90.907">  5  6 -1 -1</clus>
<clus scale="   97.784">  2  9  1 -1</clus>
<clus scale="   97.784">  2  5  1 -1</clus>
</clustering>
</event>
<event>
 9    1  0.2423659E-006  0.1365592E+03  0.7546771E-02  0.1218498E+00
          2   -1    0    0  502    0  0.00000000000E+00  0.00000000000E+00  0.41165296993E+03  0.41165296993E+03  0.00000000000E+00 0. -1.
         -2   -1    0    0    0  501 -0.00000000000E+00 -0.00000000000E+00 -0.70956768374E+02  0.70956768374E+02  0.00000000000E+00 0.  1.
         23    2    1    2    0    0 -0.12247115404E+03 -0.30793827529E+01  0.18673588483E+03  0.24068717188E+03  0.89729358936E+02 0.  0.
         23    2    1    2    0    0  0.81684989856E+02  0.23084096153E+02  0.15155374322E+03  0.19643090408E+03  0.91712866760E+02 0.  0.
        -11    1    4    4    0    0 -0.16923237483E+02  0.17871724718E+02  0.44043497516E+02  0.50454179061E+02  0.00000000000E+00 0. -1.
         11    1    4    4    0    0  0.98608227339E+02  0.52123714350E+01  0.10751024571E+03  0.14597672502E+03  0.00000000000E+00 0.  1.
        -13    1    3    3    0    0 -0.28870951787E+02 -0.10746487371E+02 -0.94516526750E+00  0.30820645439E+02  0.00000000000E+00 0.  1.
         13    1    3    3    0    0 -0.93600202250E+02  0.76671046184E+01  0.18768105010E+03  0.20986652644E+03  0.00000000000E+00 0. -1.
         21    1    1    2  502  501  0.40786164181E+02 -0.20004713400E+02  0.24065735003E+01  0.45491662344E+02  0.00000000000E+00 0. -1.
<scales pt_clust_5="13000.00000" pt_clust_6="13000.00000" pt_clust_7="13000.00000" pt_clust_8="13000.00000" pt_clust_9="45.42796"></scales>
<clustering>
<clus scale="   45.428">  2  9  1 -1</clus>
<clus scale="   89.729">  7  8 -1 -1</clus>
<clus scale="   91.713">  5  6 -1 -1</clus>
<clus scale="  135.235">  2  7  1 -1</clus>
<clus scale="  136.559">  1  5  2 -1</clus>
</clustering>
</event>
<event>
 9    1  0.2423659E-006  0.9243384E+02  0.7546771E-02  0.1297824E+00
         -3   -1    0    0    0  501 -0.00000000000E+00  0.00000000000E+00  0.69828784307E+02  0.69828784307E+02  0.00000000000E+00 0.  1.
          3   -1    0    0  502    0  0.00000000000E+00 -0.00000000000E+00 -0.22260054345E+03  0.22260054345E+03  0.00000000000E+00 0. -1.
         23    2    1    2    0    0 -0.75032032973E+01 -0.53725182295E+01 -0.47747122841E+02  0.10229540718E+03  0.89996669824E+02 0.  0.
         23    2    1    2    0    0 -0.17906721336E+02 -0.22816577718E+02 -0.11617255879E+03  0.15057933075E+03  0.91306213070E+02 0.  0.
        -11    1    3    3    0    0  0.37277985014E+02 -0.11284445136E+02 -0.35667960432E+01  0.39111493231E+02  0.00000000000E+00 0.  1.
         11    1    3    3    0    0 -0.44781188312E+02  0.59119269068E+01 -0.44180326798E+02  0.63183913952E+02  0.00000000000E+00 0. -1.
        -11    1    4    4    0    0 -0.20829149767E+02  0.33466956933E+02 -0.49458302714E+02  0.63245666996E+02  0.00000000000E+00 0.  1.
         11    1    4    4    0    0  0.29224284314E+01 -0.56283534651E+02 -0.66714256077E+02  0.87333663754E+02  0.00000000000E+00 0. -1.
         21    1    1    2  502  501  0.25409924633E+02  0.28189095948E+02  0.11147922490E+02  0.39554589823E+02  0.00000000000E+00 0.  1.
<scales pt_clust_5="13000.00000" pt_clust_6="13000.00000" pt_clust_7="13000.00000" pt_clust_8="13000.00000" pt_clust_9="37.95114"></scales>
<clustering>
<clus scale="   37.951">  1  9  2 -1</clus>
<clus scale="   89.997">  5  6 -1 -1</clus>
<clus scale="   91.140">  1  5  2 -1</clus>
<clus scale="   91.306">  7  8 -1 -1</clus>
<clus scale="   92.434">  2  5  1 -1</clus>
</clustering>
</event>
<event>
 9    1  0.2423659E-006  0.1526349E+03  0.7546771E-02  0.1197700E+00
          1   -1    0    0  502    0  0.00000000000E+00  0.00000000000E+00  0.51017883026E+03  0.51017883026E+03  0.00000000000E+00 0. -1.
         -1   -1    0    0    0  501 -0.00000000000E+00 -0.00000000000E+00 -0.13196325659E+03  0.13196325659E+03  0.00000000000E+00 0.  1.
         23    2    1    2    0    0 -0.10370816132E+03  0.81126720514E+01 -0.84268506547E+01  0.13810156129E+03  0.90442419512E+02 0.  0.
         23    2    1    2    0    0  0.60400268163E+02 -0.12390997910E+03  0.32694728364E+03  0.36675214385E+03  0.92794037621E+02 0.  0.
        -11    1    4    4    0    0 -0.36050717178E+01 -0.67909174242E+02  0.76992689246E+02  0.10272549190E+03  0.00000000000E+00 0.  1.
         11    1    4    4    0    0  0.64005339881E+02 -0.56000804862E+02  0.24995459440E+03  0.26402665195E+03  0.00000000000E+00 0. -1.
        -13    1    3    3    0    0 -0.26910082823E+02 -0.29880718390E+02  0.23604110773E+02  0.46627930840E+02  0.00000000000E+00 0. -1.
         13    1    3    3    0    0 -0.76798078496E+02  0.37993390442E+02 -0.32030961428E+02  0.91473630451E+02  0.00000000000E+00 0.  1.
         21    1    1    2  502  501  0.43307893157E+02  0.11579730705E+03  0.59695140687E+02  0.13728838171E+03  0.00000000000E+00 0. -1.
<scales pt_clust_5="13000.00000" pt_clust_6="13000.00000" pt_clust_7="13000.00000" pt_clust_8="13000.00000" pt_clust_9="123.63086"></scales>
<clustering>
<clus scale="   90.442">  7  8 -1 -1</clus>
<clus scale="   92.794">  5  6 -1 -1</clus>
<clus scale="  123.631">  2  9  1 -1</clus>
<clus scale="  151.217">  2  7  1 -1</clus>
<clus scale="  152.635">  1  5  2 -1</clus>
</clustering>
</event>
<event>
 9    1  0.2423659E-006  0.1103435E+03  0.7546771E-02  0.1261734E+00
         -3   -1    0    0    0  501 -0.00000000000E+00  0.00000000000E+00  0.76354387050E+02  0.76354387050E+02  0.00000000000E+00 0.  1.
          3   -1    0    0  502    0  0.00000000000E+00 -0.00000000000E+00 -0.24395922291E+03  0.24395922291E+03  0.00000000000E+00 0. -1.
         23    2    1    2    0    0  0.40524008133E+02  0.13272679148E+02 -0.17487424095E+02  0.10390000823E+03  0.93118432446E+02 0.  0.
         23    2    1    2    0    0 -0.55904309075E+02  0.20210824898E+02 -0.13442004251E+03  0.17636230835E+03  0.97473826028E+02 0.  0.
        -11    1    3    3    0    0 -0.24858547539E+02 -0.16847726837E+02 -0.93651837439E+01  0.31456318155E+02  0.00000000000E+00 0.  1.
         11    1    3    3    0    0  0.65382555672E+02  0.30120405985E+02 -0.81222403509E+01  0.72443690072E+02  0.00000000000E+00 0. -1.
        -13    1    4    4    0    0 -0.87628470842E+01 -0.37791862441E+02 -0.37368193293E+02  0.53864591577E+02  0.00000000000E+00 0.  1.
         13    1    4    4    0    0 -0.47141461991E+02  0.58002687339E+02 -0.97051849218E+02  0.12249771677E+03  0.00000000000E+00 0. -1.
         21    1    1    2  502  501  0.15380300942E+02 -0.33483504046E+02 -0.15697369251E+02  0.40051293383E+02  0.00000000000E+00 0.  1.
<scales pt_clust_5="13000.00000" pt_clust_6="13000.00000" pt_clust_7="13000.00000" pt_clust_8="13000.00000" pt_clust_9="36.84696"></scales>
<clustering>
<clus scale="   36.847">  1  9  2 -1</clus>
<clus scale="   93.118">  5  6 -1 -1</clus>
<clus scale="   97.474">  7  8 -1 -1</clus>
<clus scale="  106.516">  1  5  2 -1</clus>
<clus scale="  110.344">  2  5  1 -1</clus>
</clustering>
</event>
<event>
 9    1  0.2423659E-006  0.1382764E+03  0.7546771E-02  0.1227173E+00
          2   -1    0    0  502    0  0.00000000000E+00  0.00000000000E+00  0.30308914747E+03  0.30308914747E+03  0.00000000000E+00 0. -1.
         -2   -1    0    0    0  501 -0.00000000000E+00 -0.00000000000E+00 -0.13069395166E+03  0.13069395166E+03  0.00000000000E+00 0.  1.
         23    2    1    2    0    0  0.49398087082E+02 -0.30389708735E+02 -0.59249426242E+01  0.10882367450E+03  0.91890052680E+02 0.  0.
         23    2    1    2    0    0  0.83147674689E+02 -0.16841763593E+02  0.12022301035E+03  0.17272780100E+03  0.90466237987E+02 0.  0.
        -13    1    4    4    0    0  0.31947412703E+02 -0.57653494851E+01 -0.86658423301E+01  0.33600197267E+02  0.00000000000E+00 0.  1.
         13    1    4    4    0    0  0.51200261985E+02 -0.11076414108E+02  0.12888885268E+03  0.13912760374E+03  0.00000000000E+00 0. -1.
        -13    1    3    3    0    0 -0.34056089823E+01  0.24883606330E+02  0.15402445085E+02  0.29462303901E+02  0.00000000000E+00 0. -1.
         13    1    3    3    0    0  0.52803696065E+02 -0.55273315065E+02 -0.21327387710E+02  0.79361370596E+02  0.00000000000E+00 0.  1.
         21    1    1    2  502  501 -0.13254576177E+03  0.47231472328E+02  0.58097128086E+02  0.15223162363E+03  0.00000000000E+00 0.  1.
<scales pt_clust_5="13000.00000" pt_clust_6="13000.00000" pt_clust_7="13000.00000" pt_clust_8="13000.00000" pt_clust_9="104.57643"></scales>
<clustering>
<clus scale="   90.466">  5  6 -1 -1</clus>
<clus scale="   91.890">  7  8 -1 -1</clus>
<clus scale="  108.662">  2  7  1 -1</clus>
<clus scale="  104.576">  2  9  1 -1</clus>
<clus scale="  138.276">  1  5  2 -1</clus>
</clustering>
</event>
<event>
 9    1  0.2423659E-006  0.1009313E+03  0.7546771E-02  0.1283704E+00
          1   -1    0    0  502    0  0.00000000000E+00  0.00000000000E+00  0.29061823879E+03  0.29061823879E+03  0.00000000000E+00 0. -1.
         -1   -1    0    0    0  501 -0.00000000000E+00 -0.00000000000E+00 -0.75902314956E+02  0.75902314956E+02  0.00000000000E+00 0.  1.
         23    2    1    2    0    0 -0.12371198751E+02 -0.49289290054E+02 -0.22329560275E+01  0.10895428954E+03  0.96351286681E+02 0.  0.
         23    2    1    2    0    0  0.23554308802E+02  0.15519060983E+02  0.19689671981E+03  0.21673025748E+03  0.86069968755E+02 0.  0.
        -11    1    3    3    0    0 -0.39084247607E+02 -0.77890792764E+01 -0.32181634205E+02  0.51224073901E+02  0.00000000000E+00 0.  1.
         11    1    3    3    0    0  0.26713048855E+02 -0.41500210777E+02  0.29948678177E+02  0.57730215644E+02  0.00000000000E+00 0. -1.
        -13    1    4    4    0    0 -0.24494691997E+01 -0.30097469523E+02  0.33485783349E+02  0.45090522924E+02  0.00000000000E+00 0.  1.
         13    1    4    4    0    0  0.26003778002E+02  0.45616530507E+02  0.16341093646E+03  0.17163973456E+03  0.00000000000E+00 0. -1.
         21    1    1    2  502  501 -0.11183110051E+02  0.33770229070E+02  0.20052160059E+02  0.40836006721E+02  0.00000000000E+00 0. -1.
<scales pt_clust_5="13000.00000" pt_clust_6="13000.00000" pt_clust_7="13000.00000" pt_clust_8="13000.00000" pt_clust_9="35.57373"></scales>
<clustering>
<clus scale="   35.574">  2  9  1 -1</clus>
<clus scale="   86.070">  7  8 -1 -1</clus>
<clus scale="   91.168">  1  7  2 -1</clus>
<clus scale="   96.351">  5  6 -1 -1</clus>
<clus scale="   91.168">  1  5  2 -1</clus>
</clustering>
</event>
<event>
 9    1  0.2423659E-006  0.1143211E+03  0.7546771E-02  0.1253297E+00
         -2   -1    0    0    0  501 -0.00000000000E+00  0.00000000000E+00  0.79773721472E+03  0.79773721472E+03  0.00000000000E+00 0.  1.
          2   -1    0    0  502    0  0.00000000000E+00 -0.00000000000E+00 -0.27352439598E+02  0.27352439598E+02  0.00000000000E+00 0. -1.
         23    2    1    2    0    0  0.67939341214E+02  0.10950789969E+02  0.47081436517E+03  0.48425832463E+03  0.90023800395E+02 0.  0.
         23    2    1    2    0    0 -0.57259019076E+02 -0.48206606450E+02  0.25909109739E+03  0.28478991743E+03  0.91512994440E+02 0.  0.
        -11    1    3    3    0    0  0.73408837866E+02 -0.23522938587E+02  0.28777261055E+03  0.29791821277E+03  0.00000000000E+00 0.  1.
         11    1    3    3    0    0 -0.54694966514E+01  0.34473728556E+02  0.18304175462E+03  0.18634011186E+03  0.00000000000E+00 0. -1.
        -13    1    4    4    0    0  0.90016165485E+01 -0.27404556724E+02  0.16686221453E+03  0.16933705285E+03  0.00000000000E+00 0.  1.
         13    1    4    4    0    0 -0.66260635624E+02 -0.20802049725E+02  0.92228882864E+02  0.11545286458E+03  0.00000000000E+00 0. -1.
         21    1    1    2  502  501 -0.10680322139E+02  0.37255816480E+02  0.40479312567E+02  0.56041412263E+02  0.00000000000E+00 0. -1.
<scales pt_clust_5="13000.00000" pt_clust_6="13000.00000" pt_clust_7="13000.00000" pt_clust_8="13000.00000" pt_clust_9="38.75649"></scales>
<clustering>
<clus scale="   38.756">  2  9  1 -1</clus>
<clus scale="   90.024">  5  6 -1 -1</clus>
<clus scale="   91.513">  7  8 -1 -1</clus>
<clus scale="  113.132">  1  5  2 -1</clus>
<clus scale="   38.756">  2  5  1 -1</clus>
</clustering>
</event>
<event>
 9    1  0.2423659E-006  0.1433540E+03  0.7546771E-02  0.1209705E+00
         -4   -1    0    0    0  501 -0.00000000000E+00  0.00000000000E+00  0.90159345895E+02  0.90159345895E+02  0.00000000000E+00 0.  1.
          4   -1    0    0  502    0  0.00000000000E+00 -0.00000000000E+00 -0.67959649571E+03  0.67959649571E+03  0.00000000000E+00 0. -1.
         23    2    1    2    0    0  0.15632894195E+01  0.11609132913E+03 -0.10974109873E+03  0.18697484036E+03  0.97143407409E+02 0.  0.
         23    2    1    2    0    0 -0.12774727549E+03 -0.53474469640E+02 -0.14814911943E+03  0.22254963487E+03  0.91658568040E+02 0.  0.
        -11    1    4    4    0    0 -0.50756001760E+02  0.20528899239E+02 -0.26978112257E+02  0.61036267576E+02  0.00000000000E+00 0. -1.
         11    1    4    4    0    0 -0.76991273726E+02 -0.74003368879E+02 -0.12117100717E+03  0.16151336729E+03  0.00000000000E+00 0.  1.
        -13    1    3    3    0    0 -0.37895732035E+02  0.88539472479E+02 -0.44993150332E+02  0.10630008594E+03  0.00000000000E+00 0.  1.
         13    1    3    3    0    0  0.39459021454E+02  0.27551856652E+02 -0.64747948401E+02  0.80674754423E+02  0.00000000000E+00 0. -1.
         21    1    1    2  502  501  0.12618398607E+03 -0.62616859491E+02 -0.33154693165E+03  0.36023136637E+03  0.00000000000E+00 0. -1.
<scales pt_clust_5="13000.00000" pt_clust_6="13000.00000" pt_clust_7="13000.00000" pt_clust_8="13000.00000" pt_clust_9="140.86614"></scales>
<clustering>
<clus scale="   91.659">  5  6 -1 -1</clus>
<clus scale="   97.143">  7  8 -1 -1</clus>
<clus scale="  140.866">  2  9  1 -1</clus>
<clus scale="  140.866">  2  5  1 -1</clus>
<clus scale="  140.866">  2  5  1 -1</clus>
</clustering>
</event>
<event>
 9    1  0.2423659E-006  0.9813256E+02  0.7546771E-02  0.1286902E+00
          1   -1    0    0  502    0  0.00000000000E+00  0.00000000000E+00  0.83346065699E+02  0.83346065699E+02  0.00000000000E+00 0. -1.
         -1   -1    0    0    0  501 -0.00000000000E+00 -0.00000000000E+00 -0.44477688628E+03  0.44477688628E+03  0.00000000000E+00 0.  1.
         23    2    1    2    0    0 -0.25155895407E+02  0.22849996017E+02 -0.28773188566E+03  0.30465495045E+03  0.94180992856E+02 0.  0.
         23    2    1    2    0    0  0.32918241302E+01  0.32673828696E+02  0.33479686778E+02  0.10079693863E+03  0.89222857067E+02 0.  0.
        -11    1    4    4    0    0  0.32265932790E+02 -0.17785795807E+02  0.11479944277E+02  0.38590336509E+02  0.00000000000E+00 0.  1.
         11    1    4    4    0    0 -0.28974108660E+02  0.50459624503E+02  0.21999742501E+02  0.62206602123E+02  0.00000000000E+00 0. -1.
        -13    1    3    3    0    0  0.34865327140E+02  0.18429700113E+02 -0.99263516410E+02  0.10681053587E+03  0.00000000000E+00 0. -1.
         13    1    3    3    0    0 -0.60021222547E+02  0.44202959041E+01 -0.18846836925E+03  0.19784441458E+03  0.00000000000E+00 0.  1.
         21    1    1    2  502  501  0.21864071277E+02 -0.55523824713E+02 -0.10717862170E+03  0.12267106290E+03  0.00000000000E+00 0. -1.
<scales pt_clust_5="13000.00000" pt_clust_6="13000.00000" pt_clust_7="13000.00000" pt_clust_8="13000.00000" pt_clust_9="59.67355"></scales>
<clustering>
<clus scale="   59.674">  2  9  1 -1</clus>
<clus scale="   89.223">  5  6 -1 -1</clus>
<clus scale="   93.384">  1  5  2 -1</clus>
<clus scale="   94.181">  7  8 -1 -1</clus>
<clus scale="   93.384">  1  5  2 -1</clus>
</clustering>
</event>
<event>
 9    1  0.2423659E-006  0.1536532E+03  0.7546771E-02  0.1197409E+00
          1   -1    0    0  502    0  0.00000000000E+00  0.00000000000E+00  0.65231547247E+03  0.65231547247E+03  0.00000000000E+00 0. -1.
         -1   -1    0    0    0  501 -0.00000000000E+00 -0.00000000000E+00 -0.31912779950E+03  0.31912779950E+03  0.00000000000E+00 0.  1.
         23    2    1    2    0    0 -0.38425368313E+02  0.11584879950E+03 -0.28225696061E+03  0.31899856487E+03  0.84815324658E+02 0.  0.
         23    2    1    2    0    0  0.77050901640E+02 -0.11998214722E+03  0.41823909630E+03  0.45144958198E+03  0.92467433720E+02 0.  0.
        -11    1    4    4    0    0  0.57615352075E+02 -0.11911781860E+02  0.12018638337E+03  0.13381399810E+03  0.00000000000E+00 0.  1.
         11    1    4    4    0    0  0.19435549565E+02 -0.10807036536E+03  0.29805271293E+03  0.31763558387E+03  0.00000000000E+00 0. -1.
        -13    1    3    3    0    0 -0.58271334441E+01  0.11236112077E+03 -0.24348630018E+03  0.26822482234E+03  0.00000000000E+00 0.  1.
         13    1    3    3    0    0 -0.32598234869E+02  0.34876787281E+01 -0.38770660432E+02  0.50773742523E+02  0.00000000000E+00 0. -1.
         21    1    1    2  502  501 -0.38625533327E+02  0.41333477204E+01  0.19720553729E+03  0.20099512513E+03  0.00000000000E+00 0.  1.
<scales pt_clust_5="13000.00000" pt_clust_6="13000.00000" pt_clust_7="13000.00000" pt_clust_8="13000.00000" pt_clust_9="38.84606"></scales>
<clustering>
<clus scale="   38.846">  1  9  2 -1</clus>
<clus scale="   84.815">  7  8 -1 -1</clus>
<clus scale="   92.467">  5  6 -1 -1</clus>
<clus scale="  149.173">  2  7  1 -1</clus>
<clus scale="   38.846">  1  5  2 -1</clus>
</clustering>
</event>
<event>
 9    1  0.2423659E-006  0.1179496E+03  0.7546771E-02  0.1246648E+00
         -1   -1    0    0    0  501 -0.00000000000E+00  0.00000000000E+00  0.85334100543E+02  0.85334100543E+02  0.00000000000E+00 0.  1.
          1   -1    0    0  502    0  0.00000000000E+00 -0.00000000000E+00 -0.46232999010E+03  0.46232999010E+03  0.00000000000E+00 0. -1.
         23    2    1    2    0    0  0.63317334963E+02  0.57438658422E+02 -0.10558814610E+02  0.12582962914E+03  0.91724165922E+02 0.  0.
         23    2    1    2    0    0 -0.59184429711E+02  0.30381554463E+02 -0.26195367398E+03  0.28528318259E+03  0.91328699669E+02 0.  0.
        -11    1    3    3    0    0  0.34373291175E+02  0.69218661021E+00  0.33793921274E+02  0.48208208674E+02  0.00000000000E+00 0.  1.
         11    1    3    3    0    0  0.28944043789E+02  0.56746471812E+02 -0.44352735885E+02  0.77621420461E+02  0.00000000000E+00 0. -1.
        -11    1    4    4    0    0 -0.21785091796E+02  0.60320652793E+02 -0.13136890254E+03  0.14618809778E+03  0.00000000000E+00 0.  1.
         11    1    4    4    0    0 -0.37399337915E+02 -0.29939098330E+02 -0.13058477145E+03  0.13909508481E+03  0.00000000000E+00 0. -1.
         21    1    1    2  502  501 -0.41329052519E+01 -0.87820212885E+02 -0.10448340096E+03  0.13655127892E+03  0.00000000000E+00 0. -1.
<scales pt_clust_5="13000.00000" pt_clust_6="13000.00000" pt_clust_7="13000.00000" pt_clust_8="13000.00000" pt_clust_9="87.91741"></scales>
<clustering>
<clus scale="   87.917">  2  9  1 -1</clus>
<clus scale="   91.329">  7  8 -1 -1</clus>
<clus scale="   91.724">  5  6 -1 -1</clus>
<clus scale="  117.642">  2  7  1 -1</clus>
<clus scale="   87.917">  2  5  1 -1</clus>
</clustering>
</event>
<event>
 9    1  0.2423659E-006  0.1042358E+03  0.7546771E-02  0.1272838E+00
         -1   -1    0    0    0  501 -0.00000000000E+00  0.00000000000E+00  0.42706534618E+03  0.42706534618E+03  0.00000000000E+00 0.  1.
          1   -1    0    0  502    0  0.00000000000E+00 -0.00000000000E+00 -0.12694490744E+03  0.12694490744E+03  0.00000000000E+00 0. -1.
         23    2    1    2    0    0 -0.19142446126E+02 -0.20369025593E+02  0.37367709272E+03  0.38592047501E+03  0.92296874065E+02 0.  0.
         23    2    1    2    0    0  0.97467460794E+01  0.43150138297E+02 -0.90309304043E+02  0.13829196729E+03  0.94931366397E+02 0.  0.
        -11    1    3    3    0    0 -0.44975850568E+01 -0.51452456437E+02  0.30257070968E+03  0.30694725589E+03  0.00000000000E+00 0.  1.
         11    1    3    3    0    0 -0.14644861069E+02  0.31083430844E+02  0.71106383045E+02  0.78973219122E+02  0.00000000000E+00 0. -1.
        -11    1    4    4    0    0  0.48608823626E+02  0.11213759969E+02 -0.65133773160E+02  0.82042516740E+02  0.00000000000E+00 0. -1.
         11    1    4    4    0    0 -0.38862077547E+02  0.31936378328E+02 -0.25175530883E+02  0.56249450550E+02  0.00000000000E+00 0.  1.
         21    1    1    2  502  501  0.93957000462E+01 -0.22781112704E+02  0.16752650057E+02  0.29797811318E+02  0.00000000000E+00 0.  1.
<scales pt_clust_5="13000.00000" pt_clust_6="13000.00000" pt_clust_7="13000.00000" pt_clust_8="13000.00000" pt_clust_9="24.64261"></scales>
<clustering>
<clus scale="   24.643">  1  9  2 -1</clus>
<clus scale="   92.297">  5  6 -1 -1</clus>
<clus scale="   94.931">  7  8 -1 -1</clus>
<clus scale="  101.842">  1  5  2 -1</clus>
<clus scale="  104.236">  2  5  1 -1</clus>
</clustering>
</event>
<event>
 9    1  0.2423659E-006  0.3838980E+03  0.7546771E-02  0.1098981E+00
         -1   -1    0    0    0  501 -0.00000000000E+00  0.00000000000E+00  0.90321180736E+02  0.90321180736E+02  0.00000000000E+00 0.  1.
          1   -1    0    0  502    0  0.00000000000E+00 -0.00000000000E+00 -0.21241934524E+04  0.21241934524E+04  0.00000000000E+00 0. -1.
         23    2    1    2    0    0  0.41060514606E+02 -0.55966050976E+01 -0.14001922025E+03  0.17188856376E+03  0.90680805368E+02 0.  0.
         23    2    1    2    0    0 -0.26898393706E+03  0.27866586209E+03 -0.11774854230E+04  0.12428145387E+04  0.90050180876E+02 0.  0.
        -11    1    3    3    0    0  0.15972063544E+02 -0.47357539313E+02 -0.83057164923E+02  0.96934699611E+02  0.00000000000E+00 0.  1.
         11    1    3    3    0    0  0.25088451062E+02  0.41760934215E+02 -0.56962055330E+02  0.74953864147E+02  0.00000000000E+00 0. -1.
        -11    1    4    4    0    0 -0.24507249058E+03  0.20862369299E+03 -0.90809228053E+03  0.96343965087E+03  0.00000000000E+00 0.  1.
         11    1    4    4    0    0 -0.23911446479E+02  0.70042169094E+02 -0.26939314246E+03  0.27937488779E+03  0.00000000000E+00 0. -1.
         21    1    1    2  502  501  0.22792342246E+03 -0.27306925699E+03 -0.71636762846E+03  0.79981153075E+03  0.00000000000E+00 0. -1.
<scales pt_clust_5="13000.00000" pt_clust_6="13000.00000" pt_clust_7="13000.00000" pt_clust_8="13000.00000" pt_clust_9="373.18716"></scales>
<clustering>
<clus scale="   90.050">  7  8 -1 -1</clus>
<clus scale="   90.681">  5  6 -1 -1</clus>
<clus scale="   99.701">  1  5  2 -1</clus>
<clus scale="  373.187">  1  9  2 -1</clus>
<clus scale="  383.898">  2  5  1 -1</clus>
</clustering>
</event>
<event>
 9    1  0.2423659E-006  0.1120080E+03  0.7546771E-02  0.1256966E+00
         -4   -1    0    0    0  501 -0.00000000000E+00  0.00000000000E+00  0.39287414692E+03  0.39287414692E+03  0.00000000000E+00 0.  1.
          4   -1    0    0  502    0  0.00000000000E+00 -0.00000000000E+00 -0.59061506749E+02  0.59061506749E+02  0.00000000000E+00 0. -1.
         23    2    1    2    0    0  0.12475943186E+02 -0.53017708336E+02  0.20639181562E+03  0.23216054236E+03  0.91292986141E+02 0.  0.
         23    2    1    2    0    0  0.11406090076E+02  0.93807923412E+02  0.10102084691E+03  0.16563499699E+03  0.91102773461E+02 0.  0.
        -13    1    4    4    0    0 -0.24743879546E+02  0.55359776619E+02  0.11503516201E+02  0.61719489040E+02  0.00000000000E+00 0. -1.
         13    1    4    4    0    0  0.36149969622E+02  0.38448146792E+02  0.89517330712E+02  0.10391550795E+03  0.00000000000E+00 0.  1.
        -13    1    3    3    0    0 -0.33185730369E+02 -0.37565652829E+02  0.14902674342E+03  0.15723053529E+03  0.00000000000E+00 0.  1.
         13    1    3    3    0    0  0.45661673555E+02 -0.15452055507E+02  0.57365072198E+02  0.74930007070E+02  0.00000000000E+00 0. -1.
         21    1    1    2  502  501 -0.23882033261E+02 -0.40790215076E+02  0.26399977632E+02  0.54140114311E+02  0.00000000000E+00 0.  1.
<scales pt_clust_5="13000.00000" pt_clust_6="13000.00000" pt_clust_7="13000.00000" pt_clust_8="13000.00000" pt_clust_9="47.26725"></scales>
<clustering>
<clus scale="   47.267">  2  9  1 -1</clus>
<clus scale="   91.103">  5  6 -1 -1</clus>
<clus scale="   91.293">  7  8 -1 -1</clus>
<clus scale="  111.853">  2  5  1 -1</clus>
<clus scale="   47.267">  2  5  1 -1</clus>
</clustering>
</event>
<event>
 9    1  0.2423659E-006  0.1145516E+03  0.7546771E-02  0.1253805E+00
         -3   -1    0    0    0  501 -0.00000000000E+00  0.00000000000E+00  0.35927318732E+02  0.35927318732E+02  0.00000000000E+00 0. -1.
          3   -1    0    0  502    0  0.00000000000E+00 -0.00000000000E+00 -0.54027359629E+03  0.54027359629E+03  0.00000000000E+00 0.  1.
         23    2    1    2    0    0  0.80523681642E+02 -0.19985067511E+02 -0.15463736971E+03  0.19984369692E+03  0.95610254987E+02 0.  0.
         23    2    1    2    0    0 -0.54988956873E+02  0.45655031798E+01 -0.29829502039E+03  0.31691671881E+03  0.91715092937E+02 0.  0.
        -11    1    3    3    0    0 -0.19301086985E+02 -0.18394098476E+02 -0.35719133972E+02  0.44572764658E+02  0.00000000000E+00 0.  1.
         11    1    3    3    0    0  0.99824768627E+02 -0.15909690345E+01 -0.11891823574E+03  0.15527093226E+03  0.00000000000E+00 0. -1.
        -11    1    4    4    0    0 -0.71283341741E+02 -0.21887845004E+02 -0.18565529193E+03  0.20007068748E+03  0.00000000000E+00 0.  1.
         11    1    4    4    0    0  0.16294384868E+02  0.26453348184E+02 -0.11263972846E+03  0.11684603133E+03  0.00000000000E+00 0. -1.
         21    1    1    2  502  501 -0.25534724769E+02  0.15419564331E+02 -0.51413887461E+02  0.59440499300E+02  0.00000000000E+00 0. -1.
<scales pt_clust_5="13000.00000" pt_clust_6="13000.00000" pt_clust_7="13000.00000" pt_clust_8="13000.00000" pt_clust_9="29.82927"></scales>
<clustering>
<clus scale="   29.829">  1  9  2 -1</clus>
<clus scale="   91.715">  7  8 -1 -1</clus>
<clus scale="   95.610">  5  6 -1 -1</clus>
<clus scale="  111.321">  2  7  1 -1</clus>
<clus scale="  111.321">  2  5  1 -1</clus>
</clustering>
</event>
<event>
 9    1  0.2423659E-006  0.9042350E+02  0.7546771E-02  0.1302411E+00
         -1   -1    0    0    0  501 -0.00000000000E+00  0.00000000000E+00  0.97735459815E+02  0.97735459815E+02  0.00000000000E+00 0.  1.
          1   -1    0    0  502    0  0.00000000000E+00 -0.00000000000E+00 -0.18881721072E+03  0.18881721072E+03  0.00000000000E+00 0. -1.
         23    2    1    2    0    0  0.51197159231E+02  0.18843621135E+02 -0.20243179969E+02  0.10631674179E+03  0.88978829382E+02 0.  0.
         23    2    1    2    0    0  0.64609012028E+01  0.21843925572E+02 -0.59802809136E+02  0.10880962807E+03  0.88001470734E+02 0.  0.
        -11    1    3    3    0    0 -0.19610640296E+02 -0.81684424060E+01  0.11494577059E+02  0.24154212178E+02  0.00000000000E+00 0. -1.
         11    1    3    3    0    0  0.70807799527E+02  0.27012063541E+02 -0.31737757028E+02  0.82162529610E+02  0.00000000000E+00 0.  1.
        -13    1    4    4    0    0  0.42982619362E+01  0.54608264774E+02 -0.22784095802E+02  0.59326660608E+02  0.00000000000E+00 0. -1.
         13    1    4    4    0    0  0.21626392667E+01 -0.32764339202E+02 -0.37018713334E+02  0.49482967462E+02  0.00000000000E+00 0.  1.
         21    1    1    2  502  501 -0.57658060434E+02 -0.40687546708E+02 -0.11035761802E+02  0.71426300679E+02  0.00000000000E+00 0.  1.
<scales pt_clust_5="13000.00000" pt_clust_6="13000.00000" pt_clust_7="13000.00000" pt_clust_8="13000.00000" pt_clust_9="70.56861"></scales>
<clustering>
<clus scale="   70.569">  1  9  2 -1</clus>
<clus scale="   88.001">  7  8 -1 -1</clus>
<clus scale="   88.979">  5  6 -1 -1</clus>
<clus scale="   89.462">  2  7  1 -1</clus>
<clus scale="   89.462">  2  5  1 -1</clus>
</clustering>
</event>
<event>
 9    1  0.2423659E-006  0.1954808E+03  0.7546771E-02  0.1181207E+00
         -2   -1    0    0    0  501 -0.00000000000E+00  0.00000000000E+00  0.27350783781E+03  0.27350783781E+03  0.00000000000E+00 0.  1.
          2   -1    0    0  502    0  0.00000000000E+00 -0.00000000000E+00 -0.43303422595E+03  0.43303422595E+03  0.00000000000E+00 0. -1.
         23    2    1    2    0    0  0.47720971032E+02  0.11457327466E+02  0.16446722706E+03  0.19441572728E+03  0.91320560718E+02 0.  0.
         23    2    1    2    0    0  0.10993828728E+03 -0.12190202793E+03 -0.23313139237E+03  0.29926389938E+03  0.90896116189E+02 0.  0.
        -11    1    4    4    0    0  0.10565776448E+03 -0.85515732199E+02 -0.22315242681E+03  0.26129199995E+03  0.00000000000E+00 0. -1.
         11    1    4    4    0    0  0.42805228083E+01 -0.36386295727E+02 -0.99789655592E+01  0.37971899424E+02  0.00000000000E+00 0.  1.
        -13    1    3    3    0    0  0.34945885843E+02  0.48056746699E+02  0.12833264204E+03  0.14142111884E+03  0.00000000000E+00 0.  1.
         13    1    3    3    0    0  0.12775085188E+02 -0.36599419233E+02  0.36134585018E+02  0.52994608444E+02  0.00000000000E+00 0. -1.
         21    1    1    2  502  501 -0.15765925832E+03  0.11044470046E+03 -0.90862222828E+02  0.21286243710E+03  0.00000000000E+00 0.  1.
<scales pt_clust_5="13000.00000" pt_clust_6="13000.00000" pt_clust_7="13000.00000" pt_clust_8="13000.00000" pt_clust_9="173.06253"></scales>
<clustering>
<clus scale="   90.896">  5  6 -1 -1</clus>
<clus scale="   91.321">  7  8 -1 -1</clus>
<clus scale="  103.673">  1  7  2 -1</clus>
<clus scale="  173.063">  1  9  2 -1</clus>
<clus scale="  195.481">  2  5  1 -1</clus>
</clustering>
</event>
<event>
 9    1  0.2423659E-006  0.1075912E+03  0.7546771E-02  0.1267145E+00
          1   -1    0    0  502    0  0.00000000000E+00  0.00000000000E+00  0.20547498039E+03  0.20547498039E+03  0.00000000000E+00 0. -1.
         -1   -1    0    0    0  501 -0.00000000000E+00 -0.00000000000E+00 -0.21032543546E+03  0.21032543546E+03  0.00000000000E+00 0.  1.
         23    2    1    2    0    0 -0.26393087732E+02  0.42174185735E+02 -0.14952709573E+03  0.18439001577E+03  0.95739587093E+02 0.  0.
         23    2    1    2    0    0  0.72248876040E+02 -0.15586623749E+01  0.11447707568E+03  0.16311407672E+03  0.90988305018E+02 0.  0.
        -11    1    4    4    0    0  0.24243035540E+02 -0.37095857121E+02  0.14450104127E+02  0.46611510349E+02  0.00000000000E+00 0.  1.
         11    1    4    4    0    0  0.48005840500E+02  0.35537194746E+02  0.10002697156E+03  0.11650256637E+03  0.00000000000E+00 0. -1.
        -13    1    3    3    0    0 -0.45633817876E+02 -0.36338441067E+01 -0.11530438245E+03  0.12405946465E+03  0.00000000000E+00 0.  1.
         13    1    3    3    0    0  0.19240730145E+02  0.45808029842E+02 -0.34222713278E+02  0.60330551121E+02  0.00000000000E+00 0. -1.
         21    1    1    2  502  501 -0.45855788308E+02 -0.40615523360E+02  0.30199564984E+02  0.68296323359E+02  0.00000000000E+00 0. -1.
<scales pt_clust_5="13000.00000" pt_clust_6="13000.00000" pt_clust_7="13000.00000" pt_clust_8="13000.00000" pt_clust_9="61.25662"></scales>
<clustering>
<clus scale="   61.257">  1  9  2 -1</clus>
<clus scale="   90.988">  5  6 -1 -1</clus>
<clus scale="   95.740">  7  8 -1 -1</clus>
<clus scale="  103.386">  1  5  2 -1</clus>
<clus scale="   61.257">  1  5  2 -1</clus>
</clustering>
</event>
<event>
 9    1  0.2423659E-006  0.1855735E+03  0.7546771E-02  0.1186997E+00
         -1   -1    0    0    0  501 -0.00000000000E+00  0.00000000000E+00  0.49541607626E+03  0.49541607626E+03  0.00000000000E+00 0.  1.
          1   -1    0    0  502    0  0.00000000000E+00 -0.00000000000E+00 -0.17037007554E+03  0.17037007554E+03  0.00000000000E+00 0. -1.
         23    2    1    2    0    0 -0.23646014291E+02 -0.51343188382E+02  0.28851131220E+03  0.30753591106E+03  0.90245788498E+02 0.  0.
         23    2    1    2    0    0  0.90689424216E+02 -0.11699541665E+03  0.38473787774E+01  0.17412755072E+03  0.91613876750E+02 0.  0.
        -13    1    3    3    0    0  0.30611209059E+02 -0.29732481937E+02  0.76169904464E+02  0.87309340555E+02  0.00000000000E+00 0. -1.
         13    1    3    3    0    0 -0.54257223350E+02 -0.21610706446E+02  0.21234140773E+03  0.22022657051E+03  0.00000000000E+00 0.  1.
        -13    1    4    4    0    0  0.59125506699E+02 -0.14430534310E+02  0.23109206019E+02  0.65100700962E+02  0.00000000000E+00 0. -1.
         13    1    4    4    0    0  0.31563917517E+02 -0.10256488234E+03 -0.19261827241E+02  0.10902684976E+03  0.00000000000E+00 0.  1.
         21    1    1    2  502  501 -0.67043409925E+02  0.16833860504E+03  0.32687309746E+02  0.18412269001E+03  0.00000000000E+00 0. -1.
<scales pt_clust_5="13000.00000" pt_clust_6="13000.00000" pt_clust_7="13000.00000" pt_clust_8="13000.00000" pt_clust_9="161.38279"></scales>
<clustering>
<clus scale="   90.246">  5  6 -1 -1</clus>
<clus scale="   91.614">  7  8 -1 -1</clus>
<clus scale="  106.487">  1  5  2 -1</clus>
<clus scale="  161.383">  1  9  2 -1</clus>
<clus scale="  185.573">  2  5  1 -1</clus>
</clustering>
</event>
<event>
 9    1  0.2423659E-006  0.1622318E+03  0.7546771E-02  0.1189381E+00
         -2   -1    0    0    0  501 -0.00000000000E+00  0.00000000000E+00  0.95871504729E+02  0.95871504729E+02  0.00000000000E+00 0.  1.
          2   -1    0    0  502    0  0.00000000000E+00 -0.00000000000E+00 -0.48737793153E+03  0.48737793153E+03  0.00000000000E+00 0. -1.
         23    2    1    2    0    0  0.46506624035E+02  0.13493182403E+03 -0.88834419727E+02  0.20006585578E+03  0.10846810272E+03 0.  0.
         23    2    1    2    0    0  0.38355112932E+02 -0.95344356033E+02 -0.21360621696E+03  0.25394969563E+03  0.91110762654E+02 0.  0.
        -11    1    3    3    0    0  0.25362012311E+02  0.39448035751E+02 -0.90858469381E+02  0.10224793715E+03  0.00000000000E+00 0. -1.
         11    1    3    3    0    0  0.21144611724E+02  0.95483788279E+02  0.20240496538E+01  0.97817918634E+02  0.00000000000E+00 0.  1.
        -13    1    4    4    0    0  0.63998629845E+02 -0.75374259567E+02 -0.18857312541E+03  0.21292469856E+03  0.00000000000E+00 0. -1.
         13    1    4    4    0    0 -0.25643516913E+02 -0.19970096467E+02 -0.25033091546E+02  0.41024997073E+02  0.00000000000E+00 0.  1.
         21    1    1    2  502  501 -0.84861736967E+02 -0.39587467997E+02 -0.89065790113E+02  0.12923388484E+03  0.00000000000E+00 0.  1.
<scales pt_clust_5="13000.00000" pt_clust_6="13000.00000" pt_clust_7="13000.00000" pt_clust_8="13000.00000" pt_clust_9="93.64124"></scales>
<clustering>
<clus scale="   91.111">  7  8 -1 -1</clus>
<clus scale="   93.641">  2  9  1 -1</clus>
<clus scale="  108.468">  5  6 -1 -1</clus>
<clus scale="  151.179">  2  7  1 -1</clus>
<clus scale="   93.641">  2  5  1 -1</clus>
</clustering>
</event>
<event>
 9    1  0.2423659E-006  0.2152279E+03  0.7546771E-02  0.1138236E+00
         -1   -1    0    0    0  501 -0.00000000000E+00  0.00000000000E+00  0.63218859350E+02  0.63218859350E+02  0.00000000000E+00 0.  1.
          1   -1    0    0  502    0  0.00000000000E+00 -0.00000000000E+00 -0.10133111248E+04  0.10133111248E+04  0.00000000000E+00 0. -1.
         23    2    1    2    0    0 -0.15389952475E+03  0.10341004285E+03 -0.37889854343E+03  0.43050436247E+03  0.85972083912E+02 0.  0.
         23    2    1    2    0    0  0.20174487903E+03 -0.49419127856E+02 -0.40778665093E+03  0.46740292517E+03  0.95038388913E+02 0.  0.
        -11    1    3    3    0    0 -0.94020366050E+02  0.56695256736E+02 -0.12939097754E+03  0.16969445022E+03  0.00000000000E+00 0.  1.
         11    1    3    3    0    0 -0.59879158698E+02  0.46714786114E+02 -0.24950756590E+03  0.26080991225E+03  0.00000000000E+00 0. -1.
        -11    1    4    4    0    0  0.10223975230E+03  0.22558377934E+02 -0.20858831480E+03  0.23339008641E+03  0.00000000000E+00 0.  1.
         11    1    4    4    0    0  0.99505126728E+02 -0.71977505789E+02 -0.19919833613E+03  0.23401283876E+03  0.00000000000E+00 0. -1.
         21    1    1    2  502  501 -0.47845354278E+02 -0.53990914994E+02 -0.16340707110E+03  0.17862269652E+03  0.00000000000E+00 0.  1.
<scales pt_clust_5="13000.00000" pt_clust_6="13000.00000" pt_clust_7="13000.00000" pt_clust_8="13000.00000" pt_clust_9="72.14012"></scales>
<clustering>
<clus scale="   72.140">  2  9  1 -1</clus>
<clus scale="   85.972">  5  6 -1 -1</clus>
<clus scale="   95.038">  7  8 -1 -1</clus>
<clus scale="  211.381">  1  5  2 -1</clus>
<clus scale="   72.140">  2  5  1 -1</clus>
</clustering>
</event>
<event>
 9    1  0.2423659E-006  0.1770758E+03  0.7546771E-02  0.1198755E+00
         -1   -1    0    0    0  501 -0.00000000000E+00  0.00000000000E+00  0.64821847301E+02  0.64821847301E+02  0.00000000000E+00 0.  1.
          1   -1    0    0  502    0  0.00000000000E+00 -0.00000000000E+00 -0.95358078100E+03  0.95358078100E+03  0.00000000000E+00 0. -1.
         23    2    1    2    0    0  0.15060808269E+00 -0.18254033678E+02 -0.86227221857E+02  0.12803547223E+03  0.92869348726E+02 0.  0.
         23    2    1    2    0    0 -0.96692700901E+02 -0.11202652514E+03 -0.63014583140E+03  0.65370222105E+03  0.91342236811E+02 0.  0.
        -13    1    3    3    0    0 -0.43748875869E+02 -0.24227491626E+02 -0.40347262704E+02  0.64256027717E+02  0.00000000000E+00 0. -1.
         13    1    3    3    0    0  0.43899483952E+02  0.59734579480E+01 -0.45879959153E+02  0.63779444517E+02  0.00000000000E+00 0.  1.
        -13    1    4    4    0    0 -0.95799755745E+02 -0.52279494883E+02 -0.47667914333E+03  0.48901303099E+03  0.00000000000E+00 0. -1.
         13    1    4    4    0    0 -0.89294515632E+00 -0.59747030261E+02 -0.15346668807E+03  0.16468919006E+03  0.00000000000E+00 0.  1.
         21    1    1    2  502  501  0.96542092819E+02  0.13028055882E+03 -0.17238588044E+03  0.23666493502E+03  0.00000000000E+00 0.  1.
<scales pt_clust_5="13000.00000" pt_clust_6="13000.00000" pt_clust_7="13000.00000" pt_clust_8="13000.00000" pt_clust_9="151.69849"></scales>
<clustering>
<clus scale="   91.342">  7  8 -1 -1</clus>
<clus scale="   92.869">  5  6 -1 -1</clus>
<clus scale="   94.646">  1  5  2 -1</clus>
<clus scale="  151.698">  1  9  2 -1</clus>
<clus scale="  177.076">  2  5  1 -1</clus>
</clustering>
</event>
<event>
 9    1  0.2423659E-006  0.1799020E+03  0.7546771E-02  0.1183801E+00
         -1   -1    0    0    0  501 -0.00000000000E+00  0.00000000000E+00  0.38336014119E+02  0.38336014119E+02  0.00000000000E+00 0.  1.
          1   -1    0    0  502    0  0.00000000000E+00 -0.00000000000E+00 -0.15512160637E+04  0.15512160637E+04  0.00000000000E+00 0. -1.
         23    2    1    2    0    0  0.34528564736E+01  0.82072749561E+02 -0.30195575414E+03  0.32699843461E+03  0.94883298517E+02 0.  0.
         23    2    1    2    0    0  0.12926226773E+03 -0.11615921877E+03 -0.92345315196E+03  0.94409666039E+03  0.91384256405E+02 0.  0.
        -13    1    3    3    0    0 -0.24964419019E+00  0.35111159815E+02 -0.18562782890E+02  0.39716907916E+02  0.00000000000E+00 0.  1.
         13    1    3    3    0    0  0.37025006638E+01  0.46961589746E+02 -0.28339297125E+03  0.28728152669E+03  0.00000000000E+00 0. -1.
        -13    1    4    4    0    0  0.17441600689E+02 -0.17889171447E+02 -0.33565648269E+02  0.41843573382E+02  0.00000000000E+00 0.  1.
         13    1    4    4    0    0  0.11182066704E+03 -0.98270047321E+02 -0.88988750370E+03  0.90225308701E+03  0.00000000000E+00 0. -1.
         21    1    1    2  502  501 -0.13271512421E+03  0.34086469207E+02 -0.28747114343E+03  0.31845698278E+03  0.00000000000E+00 0.  1.
<scales pt_clust_5="13000.00000" pt_clust_6="13000.00000" pt_clust_7="13000.00000" pt_clust_8="13000.00000" pt_clust_9="154.96337"></scales>
<clustering>
<clus scale="   91.384">  7  8 -1 -1</clus>
<clus scale="   94.883">  5  6 -1 -1</clus>
<clus scale="  125.502">  1  5  2 -1</clus>
<clus scale="  154.963">  1  9  2 -1</clus>
<clus scale="  179.902">  2  5  1 -1</clus>
</clustering>
</event>
<event>
 9    1  0.2423659E-006  0.9480250E+02  0.7546771E-02  0.1291910E+00
         -1   -1    0    0    0  501 -0.00000000000E+00  0.00000000000E+00  0.68653640048E+03  0.68653640048E+03  0.00000000000E+00 0.  1.
          1   -1    0    0  502    0  0.00000000000E+00 -0.00000000000E+00 -0.36041026088E+02  0.36041026088E+02  0.00000000000E+00 0. -1.
         23    2    1    2    0    0 -0.80337906879E+01 -0.37468809495E+02  0.48926788586E+03  0.49915603016E+03  0.91133006270E+02 0.  0.
         23    2    1    2    0    0  0.23732581779E+02  0.67522500003E+01  0.50656236817E+02  0.10759410785E+03  0.91660293464E+02 0.  0.
        -11    1    4    4    0    0 -0.14748581426E+02  0.40882725281E+02  0.24440370013E+02  0.49862306072E+02  0.00000000000E+00 0.  1.
         11    1    4    4    0    0  0.38481163205E+02 -0.34130475280E+02  0.26215866805E+02  0.57731801780E+02  0.00000000000E+00 0. -1.
        -13    1    3    3    0    0  0.38045967089E+02 -0.36562864586E+02  0.25832032490E+03  0.26365456365E+03  0.00000000000E+00 0. -1.
         13    1    3    3    0    0 -0.46079757777E+02 -0.90594490920E+00  0.23094756096E+03  0.23550146650E+03  0.00000000000E+00 0.  1.
         21    1    1    2  502  501 -0.15698791091E+02  0.30716559495E+02  0.11057125172E+03  0.11582728856E+03  0.00000000000E+00 0.  1.
<scales pt_clust_5="13000.00000" pt_clust_6="13000.00000" pt_clust_7="13000.00000" pt_clust_8="13000.00000" pt_clust_9="34.49578"></scales>
<clustering>
<clus scale="   34.496">  1  9  2 -1</clus>
<clus scale="   91.133">  7  8 -1 -1</clus>
<clus scale="   91.660">  5  6 -1 -1</clus>
<clus scale="   94.293">  1  7  2 -1</clus>
<clus scale="   94.802">  2  5  1 -1</clus>
</clustering>
</event>
<event>
 9    1  0.2423659E-006  0.1328369E+03  0.7546771E-02  0.1223437E+00
          2   -1    0    0  502    0  0.00000000000E+00  0.00000000000E+00  0.23630130889E+03  0.23630130889E+03  0.00000000000E+00 0. -1.
         -2   -1    0    0    0  501 -0.00000000000E+00 -0.00000000000E+00 -0.23366099623E+03  0.23366099623E+03  0.00000000000E+00 0.  1.
         23    2    1    2    0    0 -0.85139338415E+02  0.83341476911E+02 -0.10734086751E+03  0.18424876897E+03  0.90725069907E+02 0.  0.
         23    2    1    2    0    0  0.98922196315E+02  0.21375155126E+02  0.11735339119E+03  0.17983676962E+03  0.91252107385E+02 0.  0.
        -13    1    4    4    0    0 -0.10506227282E+02  0.24645587177E+02  0.23339128527E+02  0.35531685851E+02  0.00000000000E+00 0.  1.
         13    1    4    4    0    0  0.10942842360E+03 -0.32704320509E+01  0.94014262661E+02  0.14430508377E+03  0.00000000000E+00 0. -1.
        -13    1    3    3    0    0 -0.22294734749E+02  0.82623216054E+02 -0.73828819586E+02  0.11302365076E+03  0.00000000000E+00 0. -1.
         13    1    3    3    0    0 -0.62844603667E+02  0.71826085720E+00 -0.33512047928E+02  0.71225118217E+02  0.00000000000E+00 0.  1.
         21    1    1    2  502  501 -0.13782857900E+02 -0.10471663204E+03 -0.73722110173E+01  0.10587676654E+03  0.00000000000E+00 0. -1.
<scales pt_clust_5="13000.00000" pt_clust_6="13000.00000" pt_clust_7="13000.00000" pt_clust_8="13000.00000" pt_clust_9="105.61979"></scales>
<clustering>
<clus scale="   90.725">  7  8 -1 -1</clus>
<clus scale="   91.252">  5  6 -1 -1</clus>
<clus scale="  105.620">  2  9  1 -1</clus>
<clus scale="  132.475">  2  7  1 -1</clus>
<clus scale="  132.837">  1  5  2 -1</clus>
</clustering>
</event>
<event>
 9    1  0.2423659E-006  0.1775284E+03  0.7546771E-02  0.1170264E+00
          3   -1    0    0  502    0  0.00000000000E+00  0.00000000000E+00  0.30634163173E+03  0.30634163173E+03  0.00000000000E+00 0. -1.
         -3   -1    0    0    0  501 -0.00000000000E+00 -0.00000000000E+00 -0.20508081008E+03  0.20508081008E+03  0.00000000000E+00 0.  1.
         23    2    1    2    0    0  0.11552538782E+03 -0.66435733086E+02 -0.52579113417E+02  0.16976031384E+03  0.91072383979E+02 0.  0.
         23    2    1    2    0    0 -0.16463832190E+03  0.12096744893E+03  0.80388034675E+02  0.23783067802E+03  0.91445582461E+02 0.  0.
        -11    1    3    3    0    0  0.19625959888E+02 -0.51526588256E+02 -0.47164470064E+02  0.72557941228E+02  0.00000000000E+00 0. -1.
         11    1    3    3    0    0  0.95899427937E+02 -0.14909144830E+02 -0.54146433522E+01  0.97202372609E+02  0.00000000000E+00 0.  1.
        -13    1    4    4    0    0 -0.77492697570E+02  0.28518142692E+02 -0.81505346178E+01  0.82974898939E+02  0.00000000000E+00 0.  1.
         13    1    4    4    0    0 -0.87145624332E+02  0.92449306236E+02  0.88538569293E+02  0.15485577909E+03  0.00000000000E+00 0. -1.
         21    1    1    2  502  501  0.49112934077E+02 -0.54531715841E+02  0.73451900391E+02  0.10383144994E+03  0.00000000000E+00 0.  1.
<scales pt_clust_5="13000.00000" pt_clust_6="13000.00000" pt_clust_7="13000.00000" pt_clust_8="13000.00000" pt_clust_9="73.38793"></scales>
<clustering>
<clus scale="   73.388">  1  9  2 -1</clus>
<clus scale="   91.072">  5  6 -1 -1</clus>
<clus scale="   91.446">  7  8 -1 -1</clus>
<clus scale="  177.336">  2  5  1 -1</clus>
<clus scale="   73.388">  1  5  2 -1</clus>
</clustering>
</event>
<event>
 9    1  0.2423659E-006  0.9866114E+02  0.7546771E-02  0.1285801E+00
          1   -1    0    0  502    0  0.00000000000E+00  0.00000000000E+00  0.81374151664E+03  0.81374151664E+03  0.00000000000E+00 0. -1.
         -1   -1    0    0    0  501 -0.00000000000E+00 -0.00000000000E+00 -0.82427014015E+02  0.82427014015E+02  0.00000000000E+00 0.  1.
         23    2    1    2    0    0 -0.18796927379E+02 -0.28656086566E+02 -0.29094500056E+02  0.10219864447E+03  0.91780048063E+02 0.  0.
         23    2    1    2    0    0  0.10447483638E+03 -0.13864008311E+01  0.50478394728E+03  0.52269986556E+03  0.86552888327E+02 0.  0.
        -11    1    4    4    0    0  0.29858332385E+02 -0.40597937381E+02  0.15928831357E+03  0.16707028273E+03  0.00000000000E+00 0.  1.
         11    1    4    4    0    0  0.74616503999E+02  0.39211536549E+02  0.34549563372E+03  0.35562958283E+03  0.00000000000E+00 0. -1.
        -11    1    3    3    0    0  0.24908498049E+02  0.19993924868E+02 -0.41704671491E+01  0.32211536798E+02  0.00000000000E+00 0. -1.
         11    1    3    3    0    0 -0.43705425427E+02 -0.48650011435E+02 -0.24924032907E+02  0.69987107675E+02  0.00000000000E+00 0.  1.
         21    1    1    2  502  501 -0.85677909006E+02  0.30042487398E+02  0.25562505540E+03  0.27127002062E+03  0.00000000000E+00 0.  1.
<scales pt_clust_5="13000.00000" pt_clust_6="13000.00000" pt_clust_7="13000.00000" pt_clust_8="13000.00000" pt_clust_9="90.79237"></scales>
<clustering>
<clus scale="   86.553">  5  6 -1 -1</clus>
<clus scale="   90.792">  1  9  2 -1</clus>
<clus scale="   91.780">  7  8 -1 -1</clus>
<clus scale="   93.818">  1  5  2 -1</clus>
<clus scale="   90.792">  1  5  2 -1</clus>
</clustering>
</event>
<event>
 9    1  0.2423659E-006  0.2424089E+03  0.7546771E-02  0.1147315E+00
          1   -1    0    0  502    0  0.00000000000E+00  0.00000000000E+00  0.12958133498E+04  0.12958133498E+04  0.00000000000E+00 0. -1.
         -1   -1    0    0    0  501 -0.00000000000E+00 -0.00000000000E+00 -0.84007485435E+02  0.84007485435E+02  0.00000000000E+00 0.  1.
         23    2    1    2    0    0  0.17234251130E+03  0.21634252069E+03  0.63035289626E+03  0.69390652840E+03  0.87495536351E+02 0.  0.
         23    2    1    2    0    0 -0.66395893238E+02 -0.37816439495E+02  0.37383523382E+03  0.39231360667E+03  0.91206831982E+02 0.  0.
        -11    1    3    3    0    0  0.54198068877E+02  0.17383342951E+02  0.96007076990E+02  0.11161079748E+03  0.00000000000E+00 0.  1.
         11    1    3    3    0    0  0.11814444242E+03  0.19895917774E+03  0.53434581927E+03  0.58229573092E+03  0.00000000000E+00 0. -1.
        -13    1    4    4    0    0  0.22945896776E+02 -0.44294227047E+01  0.64150786967E+02  0.68274866773E+02  0.00000000000E+00 0.  1.
         13    1    4    4    0    0 -0.89341790014E+02 -0.33387016790E+02  0.30968444685E+03  0.32403873990E+03  0.00000000000E+00 0. -1.
         21    1    1    2  502  501 -0.10594661806E+03 -0.17852608119E+03  0.20761773428E+03  0.29360070016E+03  0.00000000000E+00 0.  1.
<scales pt_clust_5="13000.00000" pt_clust_6="13000.00000" pt_clust_7="13000.00000" pt_clust_8="13000.00000" pt_clust_9="226.06769"></scales>
<clustering>
<clus scale="   87.496">  5  6 -1 -1</clus>
<clus scale="   91.207">  7  8 -1 -1</clus>
<clus scale="  118.984">  1  7  2 -1</clus>
<clus scale="  226.068">  2  9  1 -1</clus>
<clus scale="  118.984">  1  5  2 -1</clus>
</clustering>
</event>
<event>
 9    1  0.2423659E-006  0.2909546E+03  0.7546771E-02  0.1132097E+00
         -1   -1    0    0    0  501 -0.00000000000E+00  0.00000000000E+00  0.18971025568E+03  0.18971025568E+03  0.00000000000E+00 0.  1.
          1   -1    0    0  502    0  0.00000000000E+00 -0.00000000000E+00 -0.76788596269E+03  0.76788596269E+03  0.00000000000E+00 0. -1.
         23    2    1    2    0    0  0.12488466877E+02  0.20883764195E+02  0.30372662183E+02  0.10388866240E+03  0.96323736199E+02 0.  0.
         23    2    1    2    0    0 -0.18677041529E+03 -0.21362436922E+03 -0.47581010265E+03  0.56191553111E+03  0.93996016783E+02 0.  0.
        -11    1    3    3    0    0  0.43060847153E+02 -0.29373986296E+01  0.45102533428E+02  0.62426784235E+02  0.00000000000E+00 0. -1.
         11    1    3    3    0    0 -0.30572380276E+02  0.23821162825E+02 -0.14729871246E+02  0.41461878165E+02  0.00000000000E+00 0.  1.
        -13    1    4    4    0    0 -0.16658569448E+01 -0.53872638198E+02 -0.99154852535E+02  0.11285708222E+03  0.00000000000E+00 0.  1.
         13    1    4    4    0    0 -0.18510455834E+03 -0.15975173103E+03 -0.37665525011E+03  0.44905844889E+03  0.00000000000E+00 0. -1.
         21    1    1    2  502  501  0.17428194841E+03  0.19274060503E+03 -0.13273826654E+03  0.29179202486E+03  0.00000000000E+00 0.  1.
<scales pt_clust_5="13000.00000" pt_clust_6="13000.00000" pt_clust_7="13000.00000" pt_clust_8="13000.00000" pt_clust_9="275.35315"></scales>
<clustering>
<clus scale="   93.996">  7  8 -1 -1</clus>
<clus scale="   96.324">  5  6 -1 -1</clus>
<clus scale="   99.350">  1  5  2 -1</clus>
<clus scale="  275.353">  1  9  2 -1</clus>
<clus scale="  290.955">  2  5  1 -1</clus>
</clustering>
</event>
<event>
 9    1  0.2423659E-006  0.9322658E+02  0.7546771E-02  0.1297184E+00
         -2   -1    0    0    0  501 -0.00000000000E+00  0.00000000000E+00  0.77068374242E+02  0.77068374242E+02  0.00000000000E+00 0. -1.
          2   -1    0    0  502    0  0.00000000000E+00 -0.00000000000E+00 -0.42521267926E+03  0.42521267926E+03  0.00000000000E+00 0.  1.
         23    2    1    2    0    0 -0.33723665776E+02 -0.22626242242E+01  0.14637329907E+02  0.98193121596E+02  0.91023253075E+02 0.  0.
         23    2    1    2    0    0  0.15169577417E+02 -0.12423764317E+02 -0.36888377878E+03  0.37965065785E+03  0.87606585174E+02 0.  0.
        -11    1    3    3    0    0  0.68812371941E+01  0.31760852301E+02 -0.16809209410E+02  0.36587602890E+02  0.00000000000E+00 0.  1.
         11    1    3    3    0    0 -0.40604902970E+02 -0.34023476525E+02  0.31446539318E+02  0.61605518707E+02  0.00000000000E+00 0. -1.
        -13    1    4    4    0    0 -0.36825808035E+02 -0.67004530830E+01 -0.15905122998E+03  0.16339623608E+03  0.00000000000E+00 0. -1.
         13    1    4    4    0    0  0.51995385452E+02 -0.57233112342E+01 -0.20983254880E+03  0.21625442177E+03  0.00000000000E+00 0.  1.
         21    1    1    2  502  501  0.18554088359E+02  0.14686388541E+02  0.61021438559E+01  0.24437274047E+02  0.00000000000E+00 0. -1.
<scales pt_clust_5="13000.00000" pt_clust_6="13000.00000" pt_clust_7="13000.00000" pt_clust_8="13000.00000" pt_clust_9="23.66314"></scales>
<clustering>
<clus scale="   23.663">  1  9  2 -1</clus>
<clus scale="   87.607">  7  8 -1 -1</clus>
<clus scale="   89.894">  2  7  1 -1</clus>
<clus scale="   91.023">  5  6 -1 -1</clus>
<clus scale="   89.894">  2  5  1 -1</clus>
</clustering>
</event>
<event>
 9    1  0.2423659E-006  0.1025775E+03  0.7546771E-02  0.1276007E+00
          2   -1    0    0  502    0  0.00000000000E+00  0.00000000000E+00  0.19619034934E+03  0.19619034934E+03  0.00000000000E+00 0. -1.
         -2   -1    0    0    0  501 -0.00000000000E+00 -0.00000000000E+00 -0.16746623528E+03  0.16746623528E+03  0.00000000000E+00 0.  1.
         23    2    1    2    0    0  0.66702702214E+00 -0.61085469838E+02 -0.85944086789E+02  0.14166527237E+03  0.94608582018E+02 0.  0.
         23    2    1    2    0    0 -0.18537431137E+02 -0.28708466325E+02  0.59237246217E+02  0.11496377820E+03  0.92411073830E+02 0.  0.
        -11    1    3    3    0    0 -0.19079156279E+02 -0.76928576169E+02 -0.39010978349E+02  0.88339552113E+02  0.00000000000E+00 0.  1.
         11    1    3    3    0    0  0.19746183301E+02  0.15843106331E+02 -0.46933108440E+02  0.53325720258E+02  0.00000000000E+00 0. -1.
        -11    1    4    4    0    0 -0.54338243901E+02 -0.10960245919E+02  0.19913776758E+02  0.58901020752E+02  0.00000000000E+00 0.  1.
         11    1    4    4    0    0  0.35800812764E+02 -0.17748220406E+02  0.39323469460E+02  0.56062757446E+02  0.00000000000E+00 0. -1.
         21    1    1    2  502  501  0.17870404115E+02  0.89793936163E+02  0.55430954629E+02  0.10702753406E+03  0.00000000000E+00 0. -1.
<scales pt_clust_5="13000.00000" pt_clust_6="13000.00000" pt_clust_7="13000.00000" pt_clust_8="13000.00000" pt_clust_9="91.55491"></scales>
<clustering>
<clus scale="   91.555">  1  9  2 -1</clus>
<clus scale="   92.411">  7  8 -1 -1</clus>
<clus scale="   94.609">  5  6 -1 -1</clus>
<clus scale="  100.554">  1  7  2 -1</clus>
<clus scale="   91.555">  1  5  2 -1</clus>
</clustering>
</event>
<event>
 9    1  0.2423659E-006  0.9492328E+02  0.7546771E-02  0.1291449E+00
         -2   -1    0    0    0  501 -0.00000000000E+00  0.00000000000E+00  0.52172736254E+02  0.52172736254E+02  0.00000000000E+00 0.  1.
          2   -1    0    0  502    0  0.00000000000E+00 -0.00000000000E+00 -0.28098658541E+03  0.28098658541E+03  0.00000000000E+00 0. -1.
         23    2    1    2    0    0 -0.62727724141E+00 -0.68903146186E+01 -0.75549409858E+02  0.11829415900E+03  0.90763014554E+02 0.  0.
         23    2    1    2    0    0 -0.15221488797E+02  0.39471197895E+02 -0.14720467644E+03  0.17813073650E+03  0.90948740156E+02 0.  0.
        -13    1    4    4    0    0 -0.22873988456E+02 -0.10339020045E+02 -0.11638002998E+03  0.11905639865E+03  0.00000000000E+00 0. -1.
         13    1    4    4    0    0  0.76524996593E+01  0.49810217940E+02 -0.30824646464E+02  0.59074337846E+02  0.00000000000E+00 0.  1.
        -13    1    3    3    0    0  0.28810777719E+02 -0.30776534867E+02 -0.67431061942E+02  0.79524864827E+02  0.00000000000E+00 0. -1.
         13    1    3    3    0    0 -0.29438054960E+02  0.23886220248E+02 -0.81183479157E+01  0.38769294170E+02  0.00000000000E+00 0.  1.
         21    1    1    2  502  501  0.15848766038E+02 -0.32580883276E+02 -0.60597628618E+01  0.36734426169E+02  0.00000000000E+00 0.  1.
<scales pt_clust_5="13000.00000" pt_clust_6="13000.00000" pt_clust_7="13000.00000" pt_clust_8="13000.00000" pt_clust_9="36.23117"></scales>
<clustering>
<clus scale="   36.231">  1  9  2 -1</clus>
<clus scale="   90.763">  7  8 -1 -1</clus>
<clus scale="   90.949">  5  6 -1 -1</clus>
<clus scale="   94.745">  1  7  2 -1</clus>
<clus scale="   94.923">  2  5  1 -1</clus>
</clustering>
</event>
<event>
 9    1  0.2423659E-006  0.1096921E+03  0.7546771E-02  0.1261797E+00
         -4   -1    0    0    0  501 -0.00000000000E+00  0.00000000000E+00  0.15330140732E+03  0.15330140732E+03  0.00000000000E+00 0.  1.
          4   -1    0    0  502    0  0.00000000000E+00 -0.00000000000E+00 -0.15606809078E+03  0.15606809078E+03  0.00000000000E+00 0. -1.
         23    2    1    2    0    0  0.94944509076E+01  0.13414589163E+02  0.48044314691E+02  0.10258291947E+03  0.89134187567E+02 0.  0.
         23    2    1    2    0    0 -0.51059691018E+02 -0.68053164776E+02 -0.58847713520E+02  0.13766616251E+03  0.90832778397E+02 0.  0.
        -11    1    3    3    0    0 -0.39364801961E+02  0.53324797986E+01  0.12571829126E+02  0.41666219672E+02  0.00000000000E+00 0. -1.
         11    1    3    3    0    0  0.48859252868E+02  0.80821093644E+01  0.35472485565E+02  0.60916699802E+02  0.00000000000E+00 0.  1.
        -13    1    4    4    0    0 -0.52370222768E+02 -0.47981086034E+02 -0.81009226868E+02  0.10773727158E+03  0.00000000000E+00 0. -1.
         13    1    4    4    0    0  0.13105317500E+01 -0.20072078742E+02  0.22161513348E+02  0.29928890931E+02  0.00000000000E+00 0.  1.
         21    1    1    2  502  501  0.41565240111E+02  0.54638575613E+02  0.80367153633E+01  0.69120416118E+02  0.00000000000E+00 0.  1.
<scales pt_clust_5="13000.00000" pt_clust_6="13000.00000" pt_clust_7="13000.00000" pt_clust_8="13000.00000" pt_clust_9="68.65161"></scales>
<clustering>
<clus scale="   68.652">  1  9  2 -1</clus>
<clus scale="   89.134">  5  6 -1 -1</clus>
<clus scale="   90.833">  7  8 -1 -1</clus>
<clus scale="  108.290">  1  5  2 -1</clus>
<clus scale="  109.692">  2  5  1 -1</clus>
</clustering>
</event>
<event>
 9    1  0.2423659E-006  0.1059356E+03  0.7546771E-02  0.1272964E+00
          1   -1    0    0  502    0  0.00000000000E+00  0.00000000000E+00  0.59199992445E+03  0.59199992445E+03  0.00000000000E+00 0. -1.
         -1   -1    0    0    0  501 -0.00000000000E+00 -0.00000000000E+00 -0.30316595689E+02  0.30316595689E+02  0.00000000000E+00 0.  1.
         23    2    1    2    0    0 -0.25754571521E+02 -0.16517147802E+02  0.96801199361E+02  0.13523529996E+03  0.89342039548E+02 0.  0.
         23    2    1    2    0    0  0.49160108828E+02  0.33910873174E+02  0.38562448875E+03  0.40262925478E+03  0.99183702603E+02 0.  0.
        -11    1    4    4    0    0  0.77982200227E+02  0.32688394215E+02  0.24814976383E+03  0.26216037068E+03  0.00000000000E+00 0. -1.
         11    1    4    4    0    0 -0.28822091399E+02  0.12224789591E+01  0.13747472492E+03  0.14046888410E+03  0.00000000000E+00 0.  1.
        -13    1    3    3    0    0  0.80458065667E+01  0.31793376659E+02  0.20004297499E+02  0.38415175662E+02  0.00000000000E+00 0. -1.
         13    1    3    3    0    0 -0.33800378088E+02 -0.48310524461E+02  0.76796901862E+02  0.96820124294E+02  0.00000000000E+00 0.  1.
         21    1    1    2  502  501 -0.23405537307E+02 -0.17393725372E+02  0.79257640643E+02  0.84451965396E+02  0.00000000000E+00 0.  1.
<scales pt_clust_5="13000.00000" pt_clust_6="13000.00000" pt_clust_7="13000.00000" pt_clust_8="13000.00000" pt_clust_9="29.16095"></scales>
<clustering>
<clus scale="   29.161">  1  9  2 -1</clus>
<clus scale="   89.342">  7  8 -1 -1</clus>
<clus scale="   96.783">  2  7  1 -1</clus>
<clus scale="   99.184">  5  6 -1 -1</clus>
<clus scale="   29.161">  1  5  2 -1</clus>
</clustering>
</event>
<event>
 9    1  0.2423659E-006  0.4937968E+03  0.7546771E-02  0.1064085E+00
         -2   -1    0    0    0  501 -0.00000000000E+00  0.00000000000E+00  0.35320670514E+03  0.35320670514E+03  0.00000000000E+00 0.  1.
          2   -1    0    0  502    0  0.00000000000E+00 -0.00000000000E+00 -0.17106093812E+04  0.17106093812E+04  0.00000000000E+00 0. -1.
         23    2    1    2    0    0  0.25887807398E+03  0.48803984422E+03 -0.10808305346E+04  0.12182873319E+04  0.10406071219E+03 0.  0.
         23    2    1    2    0    0 -0.32325786387E+02 -0.75690907322E+02 -0.34951180985E+03  0.36942185473E+03  0.86832779602E+02 0.  0.
        -11    1    4    4    0    0  0.27691546830E+02 -0.43399107741E+02 -0.14843186070E+03  0.15710608387E+03  0.00000000000E+00 0.  1.
         11    1    4    4    0    0 -0.60017333217E+02 -0.32291799582E+02 -0.20107994915E+03  0.21231577086E+03  0.00000000000E+00 0. -1.
        -13    1    3    3    0    0  0.26556752012E+03  0.44485606873E+03 -0.10080214094E+04  0.11333711623E+04  0.00000000000E+00 0. -1.
         13    1    3    3    0    0 -0.66894461389E+01  0.43183775481E+02 -0.72809125177E+02  0.84916169623E+02  0.00000000000E+00 0.  1.
         21    1    1    2  502  501 -0.22655228759E+03 -0.41234893689E+03  0.72939668351E+02  0.47610689975E+03  0.00000000000E+00 0.  1.
<scales pt_clust_5="13000.00000" pt_clust_6="13000.00000" pt_clust_7="13000.00000" pt_clust_8="13000.00000" pt_clust_9="482.70766"></scales>
<clustering>
<clus scale="   86.833">  5  6 -1 -1</clus>
<clus scale="  104.061">  7  8 -1 -1</clus>
<clus scale="  119.641">  2  5  1 -1</clus>
<clus scale="  482.708">  1  9  2 -1</clus>
<clus scale="  119.641">  2  5  1 -1</clus>
</clustering>
</event>
<event>
 9    1  0.2423659E-006  0.9806972E+02  0.7546771E-02  0.1285341E+00
         -1   -1    0    0    0  501 -0.00000000000E+00  0.00000000000E+00  0.40053307383E+02  0.40053307383E+02  0.00000000000E+00 0.  1.
          1   -1    0    0  502    0  0.00000000000E+00 -0.00000000000E+00 -0.40481349594E+03  0.40481349594E+03  0.00000000000E+00 0. -1.
         23    2    1    2    0    0 -0.19082417047E+02  0.20148268312E+02 -0.63968061998E+02  0.11559958664E+03  0.92202278270E+02 0.  0.
         23    2    1    2    0    0  0.18640256967E+02 -0.44066693634E+02 -0.18847672916E+03  0.21443240024E+03  0.90379445509E+02 0.  0.
        -11    1    3    3    0    0 -0.48418193340E+02  0.11047992762E+02 -0.60350952119E+01  0.50028011800E+02  0.00000000000E+00 0. -1.
         11    1    3    3    0    0  0.29335776293E+02  0.91002755500E+01 -0.57932966786E+02  0.65571574836E+02  0.00000000000E+00 0.  1.
        -13    1    4    4    0    0  0.52648973206E+02 -0.95650034843E+01 -0.10718442283E+03  0.11979943309E+03  0.00000000000E+00 0.  1.
         13    1    4    4    0    0 -0.34008716238E+02 -0.34501690150E+02 -0.81292306337E+02  0.94632967157E+02  0.00000000000E+00 0. -1.
         21    1    1    2  502  501  0.44216007961E+00  0.23918425322E+02 -0.11231539739E+03  0.11483481644E+03  0.00000000000E+00 0. -1.
<scales pt_clust_5="13000.00000" pt_clust_6="13000.00000" pt_clust_7="13000.00000" pt_clust_8="13000.00000" pt_clust_9="23.92251"></scales>
<clustering>
<clus scale="   23.923">  2  9  1 -1</clus>
<clus scale="   90.379">  7  8 -1 -1</clus>
<clus scale="   92.202">  5  6 -1 -1</clus>
<clus scale="   96.358">  2  7  1 -1</clus>
<clus scale="   23.923">  2  5  1 -1</clus>
</clustering>
</event>
<event>
 9    1  0.2423659E-006  0.2167449E+03  0.7546771E-02  0.1160033E+00
          2   -1    0    0  502    0  0.00000000000E+00  0.00000000000E+00  0.13022607748E+03  0.13022607748E+03  0.00000000000E+00 0. -1.
         -2   -1    0    0    0  501 -0.00000000000E+00 -0.00000000000E+00 -0.70212058399E+03  0.70212058399E+03  0.00000000000E+00 0.  1.
         23    2    1    2    0    0 -0.10024860644E+03  0.14721415098E+03 -0.32292186673E+03  0.37802344348E+03  0.83074680069E+02 0.  0.
         23    2    1    2    0    0 -0.84000327642E+01  0.85009236847E+02 -0.73062146715E+02  0.14339439940E+03  0.89032272788E+02 0.  0.
        -11    1    3    3    0    0 -0.27517579935E+02 -0.41236632935E+01 -0.58755019043E+02  0.65010568888E+02  0.00000000000E+00 0. -1.
         11    1    3    3    0    0 -0.72731026509E+02  0.15133781427E+03 -0.26416684769E+03  0.31301287459E+03  0.00000000000E+00 0.  1.
        -13    1    4    4    0    0 -0.35016801078E+02  0.15248607159E+01 -0.14104599205E+02  0.37781493838E+02  0.00000000000E+00 0. -1.
         13    1    4    4    0    0  0.26616768314E+02  0.83484376131E+02 -0.58957547510E+02  0.10561290556E+03  0.00000000000E+00 0.  1.
         21    1    1    2  502  501  0.10864863921E+03 -0.23222338782E+03 -0.17591049307E+03  0.31092881858E+03  0.00000000000E+00 0. -1.
<scales pt_clust_5="13000.00000" pt_clust_6="13000.00000" pt_clust_7="13000.00000" pt_clust_8="13000.00000" pt_clust_9="200.19224"></scales>
<clustering>
<clus scale="   83.075">  5  6 -1 -1</clus>
<clus scale="   89.032">  7  8 -1 -1</clus>
<clus scale="  123.385">  1  7  2 -1</clus>
<clus scale="  200.192">  1  9  2 -1</clus>
<clus scale="  123.385">  1  5  2 -1</clus>
</clustering>
</event>
<event>
 9    1  0.2423659E-006  0.3023326E+03  0.7546771E-02  0.1119010E+00
         -2   -1    0    0    0  501 -0.00000000000E+00  0.00000000000E+00  0.17826001367E+03  0.17826001367E+03  0.00000000000E+00 0.  1.
          2   -1    0    0  502    0  0.00000000000E+00 -0.00000000000E+00 -0.89512841693E+03  0.89512841693E+03  0.00000000000E+00 0. -1.
         23    2    1    2    0    0  0.30042817804E+02 -0.76034466600E+02  0.10335023610E+02  0.12286999218E+03  0.91139515316E+02 0.  0.
         23    2    1    2    0    0 -0.71098788602E+02 -0.23600817614E+03 -0.17743704943E+03  0.31703657333E+03  0.90958151756E+02 0.  0.
        -11    1    3    3    0    0  0.52164122852E+02 -0.80696415928E+02  0.20225266884E+02  0.98194035853E+02  0.00000000000E+00 0.  1.
         11    1    3    3    0    0 -0.22121305048E+02  0.46619493275E+01 -0.98902432736E+01  0.24675956326E+02  0.00000000000E+00 0. -1.
        -13    1    4    4    0    0 -0.50960029656E+02 -0.40967421554E+02 -0.58300486999E+02  0.87602517291E+02  0.00000000000E+00 0. -1.
         13    1    4    4    0    0 -0.20138758946E+02 -0.19504075459E+03 -0.11913656243E+03  0.22943405604E+03  0.00000000000E+00 0.  1.
         21    1    1    2  502  501  0.41055970798E+02  0.31204264274E+03 -0.54976637745E+03  0.63348186509E+03  0.00000000000E+00 0. -1.
<scales pt_clust_5="13000.00000" pt_clust_6="13000.00000" pt_clust_7="13000.00000" pt_clust_8="13000.00000" pt_clust_9="288.32559"></scales>
<clustering>
<clus scale="   90.958">  7  8 -1 -1</clus>
<clus scale="   91.140">  5  6 -1 -1</clus>
<clus scale="  122.435">  1  5  2 -1</clus>
<clus scale="  288.326">  2  9  1 -1</clus>
<clus scale="  288.326">  2  5  1 -1</clus>
</clustering>
</event>
<event>
 9    1  0.2423659E-006  0.1016346E+03  0.7546771E-02  0.1279428E+00
          3   -1    0    0  502    0  0.00000000000E+00  0.00000000000E+00  0.16016932937E+03  0.16016932937E+03  0.00000000000E+00 0. -1.
         -3   -1    0    0    0  501 -0.00000000000E+00 -0.00000000000E+00 -0.31713588474E+03  0.31713588474E+03  0.00000000000E+00 0.  1.
         23    2    1    2    0    0 -0.93714035917E+01 -0.44768232245E+02 -0.17560917349E+03  0.20590777345E+03  0.97300624508E+02 0.  0.
         23    2    1    2    0    0  0.30718613323E+02 -0.95388925258E+01  0.11980799767E+03  0.15460959375E+03  0.92279718795E+02 0.  0.
        -13    1    4    4    0    0  0.29893770593E+01  0.34321475975E+02  0.14831477658E+02  0.37508303318E+02  0.00000000000E+00 0. -1.
         13    1    4    4    0    0  0.27729236264E+02 -0.43860368500E+02  0.10497652001E+03  0.11710129044E+03  0.00000000000E+00 0.  1.
        -13    1    3    3    0    0 -0.12902790337E+02 -0.67233126567E+02 -0.16882358022E+03  0.18217622388E+03  0.00000000000E+00 0.  1.
         13    1    3    3    0    0  0.35313867455E+01  0.22464894322E+02 -0.67855932693E+01  0.23731549576E+02  0.00000000000E+00 0. -1.
         21    1    1    2  502  501 -0.21347209732E+02  0.54307124771E+02 -0.10116537955E+03  0.11678784690E+03  0.00000000000E+00 0. -1.
<scales pt_clust_5="13000.00000" pt_clust_6="13000.00000" pt_clust_7="13000.00000" pt_clust_8="13000.00000" pt_clust_9="58.35210"></scales>
<clustering>
<clus scale="   58.352">  2  9  1 -1</clus>
<clus scale="   92.280">  5  6 -1 -1</clus>
<clus scale="   96.839">  1  5  2 -1</clus>
<clus scale="   97.301">  7  8 -1 -1</clus>
<clus scale="   96.839">  1  5  2 -1</clus>
</clustering>
</event>
<event>
 9    1  0.2423659E-006  0.9757855E+02  0.7546771E-02  0.1286426E+00
          1   -1    0    0  502    0  0.00000000000E+00  0.00000000000E+00  0.10234646457E+03  0.10234646457E+03  0.00000000000E+00 0. -1.
         -1   -1    0    0    0  501 -0.00000000000E+00 -0.00000000000E+00 -0.21195393773E+03  0.21195393773E+03  0.00000000000E+00 0.  1.
         23    2    1    2    0    0  0.29288026382E+02  0.31893589020E+02 -0.14682372288E+03  0.17812159369E+03  0.91077478153E+02 0.  0.
         23    2    1    2    0    0 -0.55805597933E+01 -0.27716592983E+02  0.49666621174E+02  0.10907709248E+03  0.92906870961E+02 0.  0.
        -13    1    4    4    0    0 -0.23967192677E+02 -0.48404413295E+02  0.21119487707E+01  0.54054360406E+02  0.00000000000E+00 0. -1.
         13    1    4    4    0    0  0.18386632884E+02  0.20687820312E+02  0.47554672403E+02  0.55022732079E+02  0.00000000000E+00 0.  1.
        -13    1    3    3    0    0 -0.15802853988E+02 -0.19902699197E+02 -0.15072779369E+02  0.29547187809E+02  0.00000000000E+00 0. -1.
         13    1    3    3    0    0  0.45090880370E+02  0.51796288217E+02 -0.13175094351E+03  0.14857440588E+03  0.00000000000E+00 0.  1.
         21    1    1    2  502  501 -0.23707466588E+02 -0.41769960368E+01 -0.12450371444E+02  0.27101716127E+02  0.00000000000E+00 0. -1.
<scales pt_clust_5="13000.00000" pt_clust_6="13000.00000" pt_clust_7="13000.00000" pt_clust_8="13000.00000" pt_clust_9="24.07262"></scales>
<clustering>
<clus scale="   24.073">  2  9  1 -1</clus>
<clus scale="   91.077">  7  8 -1 -1</clus>
<clus scale="   92.907">  5  6 -1 -1</clus>
<clus scale="   95.838">  2  7  1 -1</clus>
<clus scale="   97.579">  1  5  2 -1</clus>
</clustering>
</event>
<event>
 9    1  0.2423659E-006  0.1850242E+03  0.7546771E-02  0.1189662E+00
         -1   -1    0    0    0  501 -0.00000000000E+00  0.00000000000E+00  0.15557348016E+03  0.15557348016E+03  0.00000000000E+00 0.  1.
          1   -1    0    0  502    0  0.00000000000E+00 -0.00000000000E+00 -0.38820130805E+03  0.38820130805E+03  0.00000000000E+00 0. -1.
         23    2    1    2    0    0 -0.20476337545E+02 -0.30955421433E+02  0.28655341022E+01  0.10132005667E+03  0.94233879693E+02 0.  0.
         23    2    1    2    0    0  0.50065551125E+02 -0.13785811829E+03 -0.26723578724E+02  0.17234668805E+03  0.86474337426E+02 0.  0.
        -11    1    3    3    0    0  0.29652611315E+02 -0.16222971384E+02 -0.25059677374E+02  0.42076710760E+02  0.00000000000E+00 0. -1.
         11    1    3    3    0    0 -0.50128948860E+02 -0.14732450049E+02  0.27925211476E+02  0.59243345907E+02  0.00000000000E+00 0.  1.
        -11    1    4    4    0    0  0.32714708760E+01 -0.11911651294E+03 -0.25841744311E+02  0.12193130003E+03  0.00000000000E+00 0.  1.
         11    1    4    4    0    0  0.46794080249E+02 -0.18741605347E+02 -0.88183441318E+00  0.50415388020E+02  0.00000000000E+00 0. -1.
         21    1    1    2  502  501 -0.29589213580E+02  0.16881353972E+03 -0.20876978327E+03  0.27010804349E+03  0.00000000000E+00 0. -1.
<scales pt_clust_5="13000.00000" pt_clust_6="13000.00000" pt_clust_7="13000.00000" pt_clust_8="13000.00000" pt_clust_9="163.57302"></scales>
<clustering>
<clus scale="   86.474">  7  8 -1 -1</clus>
<clus scale="   94.234">  5  6 -1 -1</clus>
<clus scale="  101.280">  1  5  2 -1</clus>
<clus scale="  163.573">  2  9  1 -1</clus>
<clus scale="  163.573">  2  5  1 -1</clus>
</clustering>
</event>
<event>
 9    1  0.2423659E-006  0.1413172E+03  0.7546771E-02  0.1227850E+00
         -1   -1    0    0    0  501 -0.00000000000E+00  0.00000000000E+00  0.38461429465E+03  0.38461429465E+03  0.00000000000E+00 0.  1.
          1   -1    0    0  502    0  0.00000000000E+00 -0.00000000000E+00 -0.13737389205E+03  0.13737389205E+03  0.00000000000E+00 0. -1.
         23    2    1    2    0    0 -0.42635149990E+02  0.30911922330E+01  0.61187873429E+02  0.11755803256E+03  0.90821933912E+02 0.  0.
         23    2    1    2    0    0  0.11904059461E+03 -0.73396484669E+02  0.23598646360E+03  0.28921720384E+03  0.91647546975E+02 0.  0.
        -13    1    3    3    0    0  0.42960918714E+01 -0.35751193455E+02  0.84615980786E+01  0.36989226552E+02  0.00000000000E+00 0.  1.
         13    1    3    3    0    0 -0.46931241861E+02  0.38842385688E+02  0.52726275351E+02  0.80568806004E+02  0.00000000000E+00 0. -1.
        -13    1    4    4    0    0  0.13375309385E+02 -0.58922246212E+02  0.79912927754E+02  0.10018386109E+03  0.00000000000E+00 0.  1.
         13    1    4    4    0    0  0.10566528523E+03 -0.14474238457E+02  0.15607353584E+03  0.18903334275E+03  0.00000000000E+00 0. -1.
         21    1    1    2  502  501 -0.76405444622E+02  0.70305292436E+02 -0.49933934428E+02  0.11521295031E+03  0.00000000000E+00 0. -1.
<scales pt_clust_5="13000.00000" pt_clust_6="13000.00000" pt_clust_7="13000.00000" pt_clust_8="13000.00000" pt_clust_9="107.56984"></scales>
<clustering>
<clus scale="   90.822">  5  6 -1 -1</clus>
<clus scale="   91.648">  7  8 -1 -1</clus>
<clus scale="  100.379">  1  5  2 -1</clus>
<clus scale="  107.570">  2  9  1 -1</clus>
<clus scale="  107.570">  2  5  1 -1</clus>
</clustering>
</event>
<event>
 9    1  0.2423659E-006  0.1129913E+03  0.7546771E-02  0.1258385E+00
          3   -1    0    0  502    0  0.00000000000E+00  0.00000000000E+00  0.23680821404E+03  0.23680821404E+03  0.00000000000E+00 0. -1.
         -3   -1    0    0    0  501 -0.00000000000E+00 -0.00000000000E+00 -0.16500796206E+03  0.16500796206E+03  0.00000000000E+00 0.  1.
         23    2    1    2    0    0  0.36195110271E+02 -0.47824005697E+02 -0.79622150828E+02  0.13695242780E+03  0.93909845326E+02 0.  0.
         23    2    1    2    0    0 -0.26870477075E+00  0.34112104193E+02 -0.13157364395E+01  0.10735926572E+03  0.10178689954E+03 0.  0.
        -11    1    4    4    0    0  0.17052485794E+02 -0.14129859219E+02 -0.38238200552E+02  0.44188235705E+02  0.00000000000E+00 0.  1.
         11    1    4    4    0    0 -0.17321190565E+02  0.48241963413E+02  0.36922464112E+02  0.63171030011E+02  0.00000000000E+00 0. -1.
        -13    1    3    3    0    0 -0.32171230528E+02 -0.12955044453E+02 -0.24441770951E+02  0.42429016223E+02  0.00000000000E+00 0. -1.
         13    1    3    3    0    0  0.68366340799E+02 -0.34868961244E+02 -0.55180379878E+02  0.94523411576E+02  0.00000000000E+00 0.  1.
         21    1    1    2  502  501 -0.35926405500E+02  0.13711901503E+02  0.15273813925E+03  0.15750448259E+03  0.00000000000E+00 0. -1.
<scales pt_clust_5="13000.00000" pt_clust_6="13000.00000" pt_clust_7="13000.00000" pt_clust_8="13000.00000" pt_clust_9="38.45417"></scales>
<clustering>
<clus scale="   38.454">  1  9  2 -1</clus>
<clus scale="   93.910">  7  8 -1 -1</clus>
<clus scale="  101.787">  5  6 -1 -1</clus>
<clus scale="  105.951">  2  7  1 -1</clus>
<clus scale="   38.454">  1  5  2 -1</clus>
</clustering>
</event>
<event>
 9    1  0.2423659E-006  0.9847168E+02  0.7546771E-02  0.1284228E+00
         -1   -1    0    0    0  501 -0.00000000000E+00  0.00000000000E+00  0.17570544367E+02  0.17570544367E+02  0.00000000000E+00 0.  1.
          1   -1    0    0  502    0  0.00000000000E+00 -0.00000000000E+00 -0.92276557529E+03  0.92276557529E+03  0.00000000000E+00 0. -1.
         23    2    1    2    0    0  0.45435123897E+02 -0.22723326847E+02 -0.37392512777E+03  0.38850844895E+03  0.92401913747E+02 0.  0.
         23    2    1    2    0    0 -0.14208552572E+00  0.23568553261E+02 -0.43244709846E+03  0.44311649161E+03  0.93734920276E+02 0.  0.
        -11    1    3    3    0    0 -0.17791462263E+02  0.14639173398E+02 -0.36348331312E+02  0.43035365880E+02  0.00000000000E+00 0. -1.
         11    1    3    3    0    0  0.63226586161E+02 -0.37362500245E+02 -0.33757679646E+03  0.34547308307E+03  0.00000000000E+00 0.  1.
        -13    1    4    4    0    0 -0.16844226978E+02 -0.33263241804E+02 -0.15589595244E+03  0.16029260502E+03  0.00000000000E+00 0. -1.
         13    1    4    4    0    0  0.16702141452E+02  0.56831795065E+02 -0.27655114602E+03  0.28282388658E+03  0.00000000000E+00 0.  1.
         21    1    1    2  502  501 -0.45293038372E+02 -0.84522641401E+00 -0.98822804696E+02  0.10871117910E+03  0.00000000000E+00 0. -1.
<scales pt_clust_5="13000.00000" pt_clust_6="13000.00000" pt_clust_7="13000.00000" pt_clust_8="13000.00000" pt_clust_9="45.30092"></scales>
<clustering>
<clus scale="   45.301">  1  9  2 -1</clus>
<clus scale="   92.402">  5  6 -1 -1</clus>
<clus scale="   93.735">  7  8 -1 -1</clus>
<clus scale="   97.204">  1  5  2 -1</clus>
<clus scale="   98.472">  2  5  1 -1</clus>
</clustering>
</event>
<event>
 9    1  0.2423659E-006  0.1302154E+03  0.7546771E-02  0.1227155E+00
          2   -1    0    0  502    0  0.00000000000E+00  0.00000000000E+00  0.11493233593E+04  0.11493233593E+04  0.00000000000E+00 0. -1.
         -2   -1    0    0    0  501 -0.00000000000E+00 -0.00000000000E+00 -0.34209255836E+02  0.34209255836E+02  0.00000000000E+00 0.  1.
         23    2    1    2    0    0 -0.10229632187E+03  0.63806544246E+02  0.21452236652E+03  0.26222016367E+03  0.90574587722E+02 0.  0.
         23    2    1    2    0    0  0.22942316851E+02 -0.51580090397E+02  0.38618256399E+03  0.40067501379E+03  0.90645674598E+02 0.  0.
        -13    1    3    3    0    0 -0.57200226803E+02 -0.13969026920E+02  0.64602969316E+02  0.87410201371E+02  0.00000000000E+00 0. -1.
         13    1    3    3    0    0 -0.45096095063E+02  0.77775571166E+02  0.14991939721E+03  0.17480996230E+03  0.00000000000E+00 0.  1.
        -13    1    4    4    0    0  0.58959741092E+01  0.26356452487E+02  0.97250620325E+02  0.10093120554E+03  0.00000000000E+00 0.  1.
         13    1    4    4    0    0  0.17046342742E+02 -0.77936542884E+02  0.28893194366E+03  0.29974380825E+03  0.00000000000E+00 0. -1.
         21    1    1    2  502  501  0.79354005015E+02 -0.12226453849E+02  0.51440917293E+03  0.52063743765E+03  0.00000000000E+00 0. -1.
<scales pt_clust_5="13000.00000" pt_clust_6="13000.00000" pt_clust_7="13000.00000" pt_clust_8="13000.00000" pt_clust_9="80.29037"></scales>
<clustering>
<clus scale="   80.290">  1  9  2 -1</clus>
<clus scale="   90.575">  5  6 -1 -1</clus>
<clus scale="   90.646">  7  8 -1 -1</clus>
<clus scale="  130.166">  2  5  1 -1</clus>
<clus scale="   80.290">  1  5  2 -1</clus>
</clustering>
</event>
<event>
 9    1  0.2423659E-006  0.1137465E+03  0.7546771E-02  0.1253835E+00
          1   -1    0    0  502    0  0.00000000000E+00  0.00000000000E+00  0.35606837110E+03  0.35606837110E+03  0.00000000000E+00 0. -1.
         -1   -1    0    0    0  501 -0.00000000000E+00 -0.00000000000E+00 -0.54913398378E+02  0.54913398378E+02  0.00000000000E+00 0.  1.
         23    2    1    2    0    0 -0.44730249154E+02  0.75651735729E+01  0.74060989766E+02  0.12662623661E+03  0.92147417502E+02 0.  0.
         23    2    1    2    0    0  0.80503915963E+02  0.10307831311E+02  0.20404785880E+03  0.23820010654E+03  0.92285590448E+02 0.  0.
        -11    1    3    3    0    0 -0.67448335574E+02 -0.10047270794E+02  0.69772626479E+02  0.97562518561E+02  0.00000000000E+00 0.  1.
         11    1    3    3    0    0  0.22718086420E+02  0.17612444367E+02  0.42883632863E+01  0.29063718049E+02  0.00000000000E+00 0. -1.
        -13    1    4    4    0    0 -0.51626032947E+01 -0.28406803909E+02  0.46284762465E+02  0.54551610586E+02  0.00000000000E+00 0.  1.
         13    1    4    4    0    0  0.85666519258E+02  0.38714635220E+02  0.15776309633E+03  0.18364849595E+03  0.00000000000E+00 0. -1.
         21    1    1    2  502  501 -0.35773666809E+02 -0.17873004884E+02  0.23046124156E+02  0.46155426324E+02  0.00000000000E+00 0.  1.
<scales pt_clust_5="13000.00000" pt_clust_6="13000.00000" pt_clust_7="13000.00000" pt_clust_8="13000.00000" pt_clust_9="39.98999"></scales>
<clustering>
<clus scale="   39.990">  2  9  1 -1</clus>
<clus scale="   92.147">  5  6 -1 -1</clus>
<clus scale="   92.286">  7  8 -1 -1</clus>
<clus scale="  113.634">  2  5  1 -1</clus>
<clus scale="  113.747">  1  5  2 -1</clus>
</clustering>
</event>
<event>
 9    1  0.2423659E-006  0.1076321E+03  0.7546771E-02  0.1266745E+00
         -2   -1    0    0    0  501 -0.00000000000E+00  0.00000000000E+00  0.25199548203E+03  0.25199548203E+03  0.00000000000E+00 0.  1.
          2   -1    0    0  502    0  0.00000000000E+00 -0.00000000000E+00 -0.28078455213E+03  0.28078455213E+03  0.00000000000E+00 0. -1.
         23    2    1    2    0    0 -0.10099957692E+03 -0.27846066962E+02 -0.13333898322E+03  0.19171034019E+03  0.89427356597E+02 0.  0.
         23    2    1    2    0    0  0.57171355529E+01  0.24263298251E+02 -0.85039395211E+02  0.12885356429E+03  0.93542231160E+02 0.  0.
        -11    1    4    4    0    0 -0.37646278688E+01  0.59579140383E+02 -0.59234745453E+02  0.84098760161E+02  0.00000000000E+00 0.  1.
         11    1    4    4    0    0  0.94817634217E+01 -0.35315842132E+02 -0.25804649758E+02  0.44754804124E+02  0.00000000000E+00 0. -1.
        -11    1    3    3    0    0 -0.19422782591E+02 -0.49641268565E+02 -0.51305086005E+02  0.73984538103E+02  0.00000000000E+00 0.  1.
         11    1    3    3    0    0 -0.81576794324E+02  0.21795201603E+02 -0.82033897214E+02  0.11772580209E+03  0.00000000000E+00 0. -1.
         21    1    1    2  502  501  0.95282441363E+02  0.35827687109E+01  0.18958930833E+03  0.21221612968E+03  0.00000000000E+00 0.  1.
<scales pt_clust_5="13000.00000" pt_clust_6="13000.00000" pt_clust_7="13000.00000" pt_clust_8="13000.00000" pt_clust_9="95.34978"></scales>
<clustering>
<clus scale="   89.427">  7  8 -1 -1</clus>
<clus scale="   93.542">  5  6 -1 -1</clus>
<clus scale="   95.350">  1  9  2 -1</clus>
<clus scale="  104.076">  1  7  2 -1</clus>
<clus scale="  107.632">  2  5  1 -1</clus>
</clustering>
</event>
<event>
 9    1  0.2423659E-006  0.9703319E+02  0.7546771E-02  0.1286976E+00
          1   -1    0    0  502    0  0.00000000000E+00  0.00000000000E+00  0.11570502206E+03  0.11570502206E+03  0.00000000000E+00 0. -1.
         -1   -1    0    0    0  501 -0.00000000000E+00 -0.00000000000E+00 -0.28507211966E+03  0.28507211966E+03  0.00000000000E+00 0.  1.
         23    2    1    2    0    0  0.23406312498E+01  0.63084013903E+02 -0.20418563368E+03  0.23239562987E+03  0.91273678656E+02 0.  0.
         23    2    1    2    0    0  0.12526490255E+02 -0.25293434640E+02  0.66496685324E+02  0.11687748946E+03  0.91879636427E+02 0.  0.
        -11    1    4    4    0    0  0.77106269130E+00 -0.41540525589E+02 -0.57095835581E+01  0.41938158618E+02  0.00000000000E+00 0.  1.
         11    1    4    4    0    0  0.11755427564E+02  0.16247090949E+02  0.72206268882E+02  0.74939330844E+02  0.00000000000E+00 0. -1.
        -13    1    3    3    0    0 -0.39734953028E+01 -0.23638193189E+02 -0.41151827623E+02  0.47623794042E+02  0.00000000000E+00 0.  1.
         13    1    3    3    0    0  0.63141265526E+01  0.86722207093E+02 -0.16303380606E+03  0.18477183583E+03  0.00000000000E+00 0. -1.
         21    1    1    2  502  501 -0.14867121505E+02 -0.37790579263E+02 -0.31678149235E+02  0.51504022385E+02  0.00000000000E+00 0.  1.
<scales pt_clust_5="13000.00000" pt_clust_6="13000.00000" pt_clust_7="13000.00000" pt_clust_8="13000.00000" pt_clust_9="40.60984"></scales>
<clustering>
<clus scale="   40.610">  2  9  1 -1</clus>
<clus scale="   91.274">  7  8 -1 -1</clus>
<clus scale="   91.880">  5  6 -1 -1</clus>
<clus scale="   96.460">  2  7  1 -1</clus>
<clus scale="   97.033">  1  5  2 -1</clus>
</clustering>
</event>
<event>
 9    1  0.2423659E-006  0.1356231E+03  0.7546771E-02  0.1219430E+00
         -3   -1    0    0    0  501 -0.00000000000E+00  0.00000000000E+00  0.79063832458E+02  0.79063832458E+02  0.00000000000E+00 0.  1.
          3   -1    0    0  502    0  0.00000000000E+00 -0.00000000000E+00 -0.58200156369E+03  0.58200156369E+03  0.00000000000E+00 0. -1.
         23    2    1    2    0    0  0.31483369965E+00 -0.10421656363E+03 -0.32331305819E+01  0.13857531966E+03  0.91276912908E+02 0.  0.
         23    2    1    2    0    0 -0.75493321317E+01  0.78547688474E+02 -0.34689585156E+03  0.36737159623E+03  0.91642927192E+02 0.  0.
        -11    1    3    3    0    0  0.28534102352E+02  0.66418093556E+00  0.72837554887E+01  0.29456565098E+02  0.00000000000E+00 0. -1.
         11    1    3    3    0    0 -0.28219268653E+02 -0.10488074457E+03 -0.10516886071E+02  0.10911875456E+03  0.00000000000E+00 0.  1.
        -13    1    4    4    0    0  0.11687558611E+02 -0.17185092239E+02 -0.36775986536E+02  0.42242154387E+02  0.00000000000E+00 0.  1.
         13    1    4    4    0    0 -0.19236890743E+02  0.95732780714E+02 -0.31011986502E+03  0.32512944184E+03  0.00000000000E+00 0. -1.
         21    1    1    2  502  501  0.72344984321E+01  0.25668875159E+02 -0.15280874909E+03  0.15511848026E+03  0.00000000000E+00 0. -1.
<scales pt_clust_5="13000.00000" pt_clust_6="13000.00000" pt_clust_7="13000.00000" pt_clust_8="13000.00000" pt_clust_9="26.66888"></scales>
<clustering>
<clus scale="   26.669">  2  9  1 -1</clus>
<clus scale="   91.277">  5  6 -1 -1</clus>
<clus scale="   91.643">  7  8 -1 -1</clus>
<clus scale="  135.376">  1  5  2 -1</clus>
<clus scale="   26.669">  2  5  1 -1</clus>
</clustering>
</event>
<event>
 9    1  0.2423659E-006  0.2238356E+03  0.7546771E-02  0.1157716E+00
          2   -1    0    0  502    0  0.00000000000E+00  0.00000000000E+00  0.65054067761E+03  0.65054067761E+03  0.00000000000E+00 0. -1.
         -2   -1    0    0    0  501 -0.00000000000E+00 -0.00000000000E+00 -0.19517364872E+03  0.19517364872E+03  0.00000000000E+00 0.  1.
         23    2    1    2    0    0  0.57862140340E+02 -0.48331935234E+02  0.31550022725E+02  0.12238405474E+03  0.91095826873E+02 0.  0.
         23    2    1    2    0    0 -0.24541901120E+03  0.99050234875E+02  0.26465383198E+02  0.28102015639E+03  0.90721947177E+02 0.  0.
        -13    1    3    3    0    0  0.39440848502E+02  0.46307390212E+01  0.49541910285E+02  0.63493504779E+02  0.00000000000E+00 0. -1.
         13    1    3    3    0    0  0.18421291838E+02 -0.52962674255E+02 -0.17991887560E+02  0.58890549965E+02  0.00000000000E+00 0.  1.
        -13    1    4    4    0    0 -0.12898198805E+03  0.54183204036E+01 -0.10172161317E+01  0.12909975278E+03  0.00000000000E+00 0. -1.
         13    1    4    4    0    0 -0.11643702315E+03  0.93631914471E+02  0.27482599330E+02  0.15192040361E+03  0.00000000000E+00 0.  1.
         21    1    1    2  502  501  0.18755687086E+03 -0.50718299641E+02  0.39735162297E+03  0.44231011520E+03  0.00000000000E+00 0. -1.
<scales pt_clust_5="13000.00000" pt_clust_6="13000.00000" pt_clust_7="13000.00000" pt_clust_8="13000.00000" pt_clust_9="204.62629"></scales>
<clustering>
<clus scale="   90.722">  7  8 -1 -1</clus>
<clus scale="   91.096">  5  6 -1 -1</clus>
<clus scale="  118.247">  2  5  1 -1</clus>
<clus scale="  204.626">  1  9  2 -1</clus>
<clus scale="  204.626">  1  5  2 -1</clus>
</clustering>
</event>
<event>
 9    1  0.2423659E-006  0.1433582E+03  0.7546771E-02  0.1209057E+00
         -2   -1    0    0    0  501 -0.00000000000E+00  0.00000000000E+00  0.35857639129E+03  0.35857639129E+03  0.00000000000E+00 0.  1.
          2   -1    0    0  502    0  0.00000000000E+00 -0.00000000000E+00 -0.18745570128E+03  0.18745570128E+03  0.00000000000E+00 0. -1.
         23    2    1    2    0    0  0.31525523099E+02 -0.14319365412E+03  0.20883895773E+03  0.27150024229E+03  0.92738288260E+02 0.  0.
         23    2    1    2    0    0  0.58175071256E+02  0.92110799554E+02 -0.79464509881E+02  0.16318373224E+03  0.91899857595E+02 0.  0.
        -11    1    3    3    0    0 -0.24078559397E+02 -0.77499134590E+02  0.13771639913E+03  0.15984898959E+03  0.00000000000E+00 0.  1.
         11    1    3    3    0    0  0.55604082496E+02 -0.65694519528E+02  0.71122558606E+02  0.11165125270E+03  0.00000000000E+00 0. -1.
        -13    1    4    4    0    0  0.78622534337E+02  0.78537957855E+02 -0.82568616216E+02  0.13844598266E+03  0.00000000000E+00 0. -1.
         13    1    4    4    0    0 -0.20447463081E+02  0.13572841699E+02  0.31041063349E+01  0.24737749582E+02  0.00000000000E+00 0.  1.
         21    1    1    2  502  501 -0.89700594355E+02  0.51082854565E+02  0.41746242151E+02  0.11134811804E+03  0.00000000000E+00 0. -1.
<scales pt_clust_5="13000.00000" pt_clust_6="13000.00000" pt_clust_7="13000.00000" pt_clust_8="13000.00000" pt_clust_9="103.22623"></scales>
<clustering>
<clus scale="   91.900">  7  8 -1 -1</clus>
<clus scale="   92.738">  5  6 -1 -1</clus>
<clus scale="  103.226">  1  9  2 -1</clus>
<clus scale="  142.817">  2  7  1 -1</clus>
<clus scale="  142.817">  2  5  1 -1</clus>
</clustering>
</event>
<event>
 9    1  0.2423659E-006  0.1525252E+03  0.7546771E-02  0.1208410E+00
          2   -1    0    0  502    0  0.00000000000E+00  0.00000000000E+00  0.27598232442E+03  0.27598232442E+03  0.00000000000E+00 0. -1.
         -2   -1    0    0    0  501 -0.00000000000E+00 -0.00000000000E+00 -0.21322980609E+03  0.21322980609E+03  0.00000000000E+00 0.  1.
         23    2    1    2    0    0 -0.51669256560E+02  0.59337420649E+02  0.11724587387E+02  0.12080682221E+03  0.90918539256E+02 0.  0.
         23    2    1    2    0    0  0.58957385475E+02  0.71566819612E+02 -0.10347802469E+03  0.16576985417E+03  0.90411061206E+02 0.  0.
        -11    1    4    4    0    0  0.36073814605E+02  0.88136644966E+02 -0.98631947557E+02  0.13710451986E+03  0.00000000000E+00 0.  1.
         11    1    4    4    0    0  0.22883570870E+02 -0.16569825354E+02 -0.48460771291E+01  0.28665334318E+02  0.00000000000E+00 0. -1.
        -13    1    3    3    0    0  0.14401273673E+02  0.42029277423E+02  0.25363711553E+02  0.51158329799E+02  0.00000000000E+00 0.  1.
         13    1    3    3    0    0 -0.66070530233E+02  0.17308143226E+02 -0.13639124166E+02  0.69648492412E+02  0.00000000000E+00 0. -1.
         21    1    1    2  502  501 -0.72881289148E+01 -0.13090424026E+03  0.15450595563E+03  0.20263545412E+03  0.00000000000E+00 0. -1.
<scales pt_clust_5="13000.00000" pt_clust_6="13000.00000" pt_clust_7="13000.00000" pt_clust_8="13000.00000" pt_clust_9="122.84040"></scales>
<clustering>
<clus scale="   90.411">  5  6 -1 -1</clus>
<clus scale="   90.919">  7  8 -1 -1</clus>
<clus scale="  120.237">  2  7  1 -1</clus>
<clus scale="  122.840">  1  9  2 -1</clus>
<clus scale="  122.840">  1  5  2 -1</clus>
</clustering>
</event>
<event>
 9    1  0.2423659E-006  0.1104883E+03  0.7546771E-02  0.1259988E+00
         -1   -1    0    0    0  501 -0.00000000000E+00  0.00000000000E+00  0.49112104744E+03  0.49112104744E+03  0.00000000000E+00 0.  1.
          1   -1    0    0  502    0  0.00000000000E+00 -0.00000000000E+00 -0.11034710292E+03  0.11034710292E+03  0.00000000000E+00 0. -1.
         23    2    1    2    0    0  0.11221934632E+03 -0.71527976156E+02  0.16240869808E+03  0.22866939293E+03  0.90574129809E+02 0.  0.
         23    2    1    2    0    0 -0.51287215517E+02 -0.11782807288E+02 -0.25044030370E+02  0.10840986349E+03  0.91412701646E+02 0.  0.
        -11    1    4    4    0    0 -0.73105859439E+02 -0.22916494959E+02 -0.50307950292E+01  0.76778521242E+02  0.00000000000E+00 0.  1.
         11    1    4    4    0    0  0.21818643922E+02  0.11133687672E+02 -0.20013235341E+02  0.31631342250E+02  0.00000000000E+00 0. -1.
        -11    1    3    3    0    0  0.22910826806E+02 -0.16666171549E+02  0.10583744565E+03  0.10956382688E+03  0.00000000000E+00 0.  1.
         11    1    3    3    0    0  0.89308519517E+02 -0.54861804607E+02  0.56571252428E+02  0.11910556605E+03  0.00000000000E+00 0. -1.
         21    1    1    2  502  501 -0.60932130806E+02  0.83310783444E+02  0.24340927681E+03  0.26438889394E+03  0.00000000000E+00 0.  1.
<scales pt_clust_5="13000.00000" pt_clust_6="13000.00000" pt_clust_7="13000.00000" pt_clust_8="13000.00000" pt_clust_9="103.21536"></scales>
<clustering>
<clus scale="   90.574">  7  8 -1 -1</clus>
<clus scale="   91.413">  5  6 -1 -1</clus>
<clus scale="  103.215">  1  9  2 -1</clus>
<clus scale="  109.796">  1  7  2 -1</clus>
<clus scale="  110.488">  2  5  1 -1</clus>
</clustering>
</event>
<event>
 9    1  0.2423659E-006  0.1609616E+03  0.7546771E-02  0.1188652E+00
          2   -1    0    0  502    0  0.00000000000E+00  0.00000000000E+00  0.72989058727E+03  0.72989058727E+03  0.00000000000E+00 0. -1.
         -2   -1    0    0    0  501 -0.00000000000E+00 -0.00000000000E+00 -0.68526889292E+02  0.68526889292E+02  0.00000000000E+00 0.  1.
         23    2    1    2    0    0  0.10314014845E+03  0.96915007928E+02  0.27880798792E+03  0.32700277898E+03  0.95741915348E+02 0.  0.
         23    2    1    2    0    0 -0.12359249556E+03 -0.33099669241E+02  0.37218673249E+03  0.40360458292E+03  0.89459501720E+02 0.  0.
        -13    1    4    4    0    0 -0.80416356348E+02 -0.44600462679E+01  0.10991608253E+03  0.13626528384E+03  0.00000000000E+00 0.  1.
         13    1    4    4    0    0 -0.43176139207E+02 -0.28639622974E+02  0.26227064996E+03  0.26733929908E+03  0.00000000000E+00 0. -1.
        -13    1    3    3    0    0  0.22470407981E+02 -0.12348981516E+02  0.13560185876E+02  0.29005089558E+02  0.00000000000E+00 0. -1.
         13    1    3    3    0    0  0.80669740466E+02  0.10926398944E+03  0.26524780204E+03  0.29799768943E+03  0.00000000000E+00 0.  1.
         21    1    1    2  502  501  0.20452347109E+02 -0.63815338686E+02  0.10368977566E+02  0.67810114656E+02  0.00000000000E+00 0. -1.
<scales pt_clust_5="13000.00000" pt_clust_6="13000.00000" pt_clust_7="13000.00000" pt_clust_8="13000.00000" pt_clust_9="67.01266"></scales>
<clustering>
<clus scale="   67.013">  2  9  1 -1</clus>
<clus scale="   89.460">  5  6 -1 -1</clus>
<clus scale="   95.742">  7  8 -1 -1</clus>
<clus scale="  157.306">  1  5  2 -1</clus>
<clus scale="  157.306">  1  5  2 -1</clus>
</clustering>
</event>
<event>
 9    1  0.2423659E-006  0.1071218E+03  0.7546771E-02  0.1271708E+00
         -1   -1    0    0    0  501 -0.00000000000E+00  0.00000000000E+00  0.10953062962E+03  0.10953062962E+03  0.00000000000E+00 0.  1.
          1   -1    0    0  502    0  0.00000000000E+00 -0.00000000000E+00 -0.17137350734E+03  0.17137350734E+03  0.00000000000E+00 0. -1.
         23    2    1    2    0    0  0.21972880991E+02 -0.59946410146E+02  0.33145710443E+02  0.10782512237E+03  0.80319607220E+02 0.  0.
         23    2    1    2    0    0 -0.14298834315E+02  0.16044385924E+02 -0.83292632711E+02  0.12700218640E+03  0.93434542343E+02 0.  0.
        -11    1    3    3    0    0  0.31108918157E+02  0.62633839649E+01  0.25190681236E+02  0.40516233644E+02  0.00000000000E+00 0. -1.
         11    1    3    3    0    0 -0.91360371661E+01 -0.66209794111E+02  0.79550292074E+01  0.67308888722E+02  0.00000000000E+00 0.  1.
        -13    1    4    4    0    0 -0.15509981759E+02 -0.36339323243E+02 -0.18369255557E+02  0.43572187203E+02  0.00000000000E+00 0.  1.
         13    1    4    4    0    0  0.12111474442E+01  0.52383709167E+02 -0.64923377154E+02  0.83429999193E+02  0.00000000000E+00 0. -1.
         21    1    1    2  502  501 -0.76740466752E+01  0.43902024222E+02 -0.11695955444E+02  0.46076828199E+02  0.00000000000E+00 0.  1.
<scales pt_clust_5="13000.00000" pt_clust_6="13000.00000" pt_clust_7="13000.00000" pt_clust_8="13000.00000" pt_clust_9="44.56769"></scales>
<clustering>
<clus scale="   44.568">  2  9  1 -1</clus>
<clus scale="   80.320">  5  6 -1 -1</clus>
<clus scale="   93.435">  7  8 -1 -1</clus>
<clus scale="   95.897">  1  5  2 -1</clus>
<clus scale="   44.568">  2  5  1 -1</clus>
</clustering>
</event>
<event>
 9    1  0.2423659E-006  0.1183383E+03  0.7546771E-02  0.1247300E+00
         -4   -1    0    0    0  501 -0.00000000000E+00  0.00000000000E+00  0.38606379290E+03  0.38606379290E+03  0.00000000000E+00 0.  1.
          4   -1    0    0  502    0  0.00000000000E+00 -0.00000000000E+00 -0.10324680096E+03  0.10324680096E+03  0.00000000000E+00 0. -1.
         23    2    1    2    0    0  0.12798160259E+02 -0.10385402101E+03  0.95300454408E+02  0.16796810938E+03  0.90452521097E+02 0.  0.
         23    2    1    2    0    0 -0.71984166403E+02 -0.60197240854E+00  0.33841245165E+02  0.12632932244E+03  0.98141659103E+02 0.  0.
        -11    1    4    4    0    0 -0.52320732281E+02 -0.46717282393E+02  0.10122956013E+02  0.70869159294E+02  0.00000000000E+00 0. -1.
         11    1    4    4    0    0 -0.19663434121E+02  0.46115309984E+02  0.23718289152E+02  0.55460163150E+02  0.00000000000E+00 0.  1.
        -11    1    3    3    0    0  0.44903493793E+02 -0.91233298122E+02  0.83283397819E+02  0.13143805687E+03  0.00000000000E+00 0. -1.
         11    1    3    3    0    0 -0.32105333534E+02 -0.12620722889E+02  0.12017056589E+02  0.36530052514E+02  0.00000000000E+00 0.  1.
         21    1    1    2  502  501  0.59186006144E+02  0.10445599342E+03  0.15367529236E+03  0.19501316204E+03  0.00000000000E+00 0.  1.
<scales pt_clust_5="13000.00000" pt_clust_6="13000.00000" pt_clust_7="13000.00000" pt_clust_8="13000.00000" pt_clust_9="120.05848"></scales>
<clustering>
<clus scale="   90.453">  7  8 -1 -1</clus>
<clus scale="   98.142">  5  6 -1 -1</clus>
<clus scale="  120.058">  1  9  2 -1</clus>
<clus scale="  120.058">  1  7  2 -1</clus>
<clus scale="  116.643">  2  5  1 -1</clus>
</clustering>
</event>
<event>
 9    1  0.2423659E-006  0.9843265E+02  0.7546771E-02  0.1285029E+00
         -1   -1    0    0    0  501 -0.00000000000E+00  0.00000000000E+00  0.75385135882E+02  0.75385135882E+02  0.00000000000E+00 0.  1.
          1   -1    0    0  502    0  0.00000000000E+00 -0.00000000000E+00 -0.64447250343E+03  0.64447250343E+03  0.00000000000E+00 0. -1.
         23    2    1    2    0    0  0.10761100621E+02  0.28221771508E+02 -0.17802790867E+03  0.20194659153E+03  0.90422452378E+02 0.  0.
         23    2    1    2    0    0  0.40386630493E+02 -0.18425043674E+02 -0.43666302336E+03  0.44868857045E+03  0.93146525057E+02 0.  0.
        -13    1    3    3    0    0  0.48402806540E+02  0.20564442120E+02 -0.13140347141E+03  0.14153656863E+03  0.00000000000E+00 0. -1.
         13    1    3    3    0    0 -0.37641705919E+02  0.76573293887E+01 -0.46624437259E+02  0.60410022906E+02  0.00000000000E+00 0.  1.
        -13    1    4    4    0    0 -0.22860608725E+02 -0.30085723031E+02 -0.13143781928E+03  0.13676131945E+03  0.00000000000E+00 0.  1.
         13    1    4    4    0    0  0.63247239218E+02  0.11660679357E+02 -0.30522520408E+03  0.31192725100E+03  0.00000000000E+00 0. -1.
         21    1    1    2  502  501 -0.51147731115E+02 -0.97967278344E+01  0.45603564475E+02  0.69222477327E+02  0.00000000000E+00 0.  1.
<scales pt_clust_5="13000.00000" pt_clust_6="13000.00000" pt_clust_7="13000.00000" pt_clust_8="13000.00000" pt_clust_9="52.07750"></scales>
<clustering>
<clus scale="   52.078">  1  9  2 -1</clus>
<clus scale="   90.422">  5  6 -1 -1</clus>
<clus scale="   93.147">  7  8 -1 -1</clus>
<clus scale="   95.859">  1  5  2 -1</clus>
<clus scale="   98.433">  2  5  1 -1</clus>
</clustering>
</event>
<event>
 9    1  0.2423659E-006  0.1824544E+03  0.7546771E-02  0.1188281E+00
         -1   -1    0    0    0  501 -0.00000000000E+00  0.00000000000E+00  0.12573425756E+03  0.12573425756E+03  0.00000000000E+00 0.  1.
          1   -1    0    0  502    0  0.00000000000E+00 -0.00000000000E+00 -0.86218638065E+03  0.86218638065E+03  0.00000000000E+00 0. -1.
         23    2    1    2    0    0  0.18607048127E+01 -0.77062521272E+02  0.54544352732E+02  0.12179362884E+03  0.76918835169E+02 0.  0.
         23    2    1    2    0    0  0.15259981717E+03  0.19239943224E+02 -0.32213168622E+03  0.36910015466E+03  0.93857451954E+02 0.  0.
        -11    1    4    4    0    0  0.18487683379E+02 -0.78676563835E+01 -0.10944429479E+01  0.20121934775E+02  0.00000000000E+00 0.  1.
         11    1    4    4    0    0  0.13411213379E+03  0.27107599608E+02 -0.32103724327E+03  0.34897821988E+03  0.00000000000E+00 0. -1.
        -13    1    3    3    0    0 -0.35540452411E+02 -0.35045531488E+02  0.39257223921E+02  0.63501517028E+02  0.00000000000E+00 0.  1.
         13    1    3    3    0    0  0.37401157224E+02 -0.42016989784E+02  0.15287128811E+02  0.58292111812E+02  0.00000000000E+00 0. -1.
         21    1    1    2  502  501 -0.15446052198E+03  0.57822578048E+02 -0.46886478960E+03  0.49702685472E+03  0.00000000000E+00 0. -1.
<scales pt_clust_5="13000.00000" pt_clust_6="13000.00000" pt_clust_7="13000.00000" pt_clust_8="13000.00000" pt_clust_9="156.46209"></scales>
<clustering>
<clus scale="   76.919">  7  8 -1 -1</clus>
<clus scale="   93.857">  5  6 -1 -1</clus>
<clus scale="  108.897">  1  7  2 -1</clus>
<clus scale="  156.462">  2  9  1 -1</clus>
<clus scale="  156.462">  2  5  1 -1</clus>
</clustering>
</event>
<event>
 9    1  0.2423659E-006  0.1060877E+03  0.7546771E-02  0.1268215E+00
         -3   -1    0    0    0  501 -0.00000000000E+00  0.00000000000E+00  0.59915169830E+02  0.59915169830E+02  0.00000000000E+00 0.  1.
          3   -1    0    0  502    0  0.00000000000E+00 -0.00000000000E+00 -0.55605188177E+03  0.55605188177E+03  0.00000000000E+00 0. -1.
         23    2    1    2    0    0  0.13006592108E+02 -0.17466850840E+02 -0.57125636407E+02  0.10934456599E+03  0.90656679066E+02 0.  0.
         23    2    1    2    0    0  0.44150854843E+02  0.51933432201E+02 -0.42290406173E+03  0.43796132580E+03  0.91191546248E+02 0.  0.
        -11    1    3    3    0    0 -0.36233255765E+02 -0.38624027942E+01 -0.57419163879E+01  0.36888163176E+02  0.00000000000E+00 0.  1.
         11    1    3    3    0    0  0.49239847873E+02 -0.13604448046E+02 -0.51383720019E+02  0.72456402810E+02  0.00000000000E+00 0. -1.
        -13    1    4    4    0    0 -0.25715645481E+02  0.15688710847E+02 -0.67038022231E+02  0.73495078034E+02  0.00000000000E+00 0.  1.
         13    1    4    4    0    0  0.69866500324E+02  0.36244721355E+02 -0.35586603950E+03  0.36446624777E+03  0.00000000000E+00 0. -1.
         21    1    1    2  502  501 -0.57157446951E+02 -0.34466581361E+02 -0.16107013801E+02  0.68661159809E+02  0.00000000000E+00 0.  1.
<scales pt_clust_5="13000.00000" pt_clust_6="13000.00000" pt_clust_7="13000.00000" pt_clust_8="13000.00000" pt_clust_9="66.74518"></scales>
<clustering>
<clus scale="   66.745">  1  9  2 -1</clus>
<clus scale="   90.657">  5  6 -1 -1</clus>
<clus scale="   91.192">  7  8 -1 -1</clus>
<clus scale="  105.628">  1  5  2 -1</clus>
<clus scale="  106.088">  2  5  1 -1</clus>
</clustering>
</event>
<event>
 9    1  0.2423659E-006  0.1336239E+03  0.7546771E-02  0.1225812E+00
          1   -1    0    0  502    0  0.00000000000E+00  0.00000000000E+00  0.30358108874E+03  0.30358108874E+03  0.00000000000E+00 0. -1.
         -1   -1    0    0    0  501 -0.00000000000E+00 -0.00000000000E+00 -0.84720166387E+02  0.84720166387E+02  0.00000000000E+00 0.  1.
         23    2    1    2    0    0 -0.38861013553E+02  0.90915474181E+02  0.21089324079E+02  0.13713090850E+03  0.92651630619E+02 0.  0.
         23    2    1    2    0    0  0.53901932771E+02 -0.75714189401E+02  0.12039515537E+03  0.17089318782E+03  0.77919390227E+02 0.  0.
        -11    1    3    3    0    0 -0.94692450076E+01  0.10295300953E+03  0.20289106743E+02  0.10535955878E+03  0.00000000000E+00 0.  1.
         11    1    3    3    0    0 -0.29391768546E+02 -0.12037535352E+02  0.80021733596E+00  0.31771349726E+02  0.00000000000E+00 0. -1.
        -11    1    4    4    0    0  0.36532659591E+02 -0.86020602631E+02  0.70501871495E+02  0.11706704565E+03  0.00000000000E+00 0. -1.
         11    1    4    4    0    0  0.17369273180E+02  0.10306413230E+02  0.49893283879E+02  0.53826142168E+02  0.00000000000E+00 0.  1.
         21    1    1    2  502  501 -0.15040919217E+02 -0.15201284780E+02  0.77376442900E+02  0.80277158805E+02  0.00000000000E+00 0.  1.
<scales pt_clust_5="13000.00000" pt_clust_6="13000.00000" pt_clust_7="13000.00000" pt_clust_8="13000.00000" pt_clust_9="21.38477"></scales>
<clustering>
<clus scale="   21.385">  1  9  2 -1</clus>
<clus scale="   77.919">  7  8 -1 -1</clus>
<clus scale="   92.652">  5  6 -1 -1</clus>
<clus scale="  123.865">  1  7  2 -1</clus>
<clus scale="   21.385">  1  5  2 -1</clus>
</clustering>
</event>
<event>
 9    1  0.2423659E-006  0.1180556E+03  0.7546771E-02  0.1246582E+00
         -2   -1    0    0    0  501 -0.00000000000E+00  0.00000000000E+00  0.17668716788E+02  0.17668716788E+02  0.00000000000E+00 0.  1.
          2   -1    0    0  502    0  0.00000000000E+00 -0.00000000000E+00 -0.14271079797E+04  0.14271079797E+04  0.00000000000E+00 0. -1.
         23    2    1    2    0    0  0.90015431226E+02 -0.54394241472E+02 -0.66575051179E+03  0.68012052562E+03  0.90987219210E+02 0.  0.
         23    2    1    2    0    0 -0.19219432242E+02  0.51593435417E+02 -0.45022335921E+03  0.46275907873E+03  0.91725801275E+02 0.  0.
        -11    1    3    3    0    0 -0.13031243948E+01 -0.47443317262E+02 -0.23340812575E+03  0.23818463354E+03  0.00000000000E+00 0.  1.
         11    1    3    3    0    0  0.91318555621E+02 -0.69509242097E+01 -0.43234238603E+03  0.44193589208E+03  0.00000000000E+00 0. -1.
        -13    1    4    4    0    0  0.16464854484E+02 -0.20646009560E+02 -0.11024568944E+03  0.11336428531E+03  0.00000000000E+00 0.  1.
         13    1    4    4    0    0 -0.35684286727E+02  0.72239444977E+02 -0.33997766977E+03  0.34939479342E+03  0.00000000000E+00 0. -1.
         21    1    1    2  502  501 -0.70795998984E+02  0.28008060547E+01 -0.29346539191E+03  0.30189709213E+03  0.00000000000E+00 0.  1.
<scales pt_clust_5="13000.00000" pt_clust_6="13000.00000" pt_clust_7="13000.00000" pt_clust_8="13000.00000" pt_clust_9="70.85138"></scales>
<clustering>
<clus scale="   70.851">  1  9  2 -1</clus>
<clus scale="   90.987">  5  6 -1 -1</clus>
<clus scale="   91.726">  7  8 -1 -1</clus>
<clus scale="  117.483">  1  5  2 -1</clus>
<clus scale="  118.056">  2  5  1 -1</clus>
</clustering>
</event>
<event>
 9    1  0.2423659E-006  0.1606108E+03  0.7546771E-02  0.1202602E+00
         -2   -1    0    0    0  501 -0.00000000000E+00  0.00000000000E+00  0.13599933268E+03  0.13599933268E+03  0.00000000000E+00 0.  1.
          2   -1    0    0  502    0  0.00000000000E+00 -0.00000000000E+00 -0.37949016198E+03  0.37949016198E+03  0.00000000000E+00 0. -1.
         23    2    1    2    0    0  0.87571670316E+02 -0.10430249132E+03 -0.18073694041E+03  0.24264107104E+03  0.87527370527E+02 0.  0.
         23    2    1    2    0    0  0.45897112057E+02  0.63218631029E+02 -0.64226329345E+02  0.13319181787E+03  0.86671210691E+02 0.  0.
        -11    1    3    3    0    0  0.33420891364E+02 -0.61730536522E+02 -0.28905524498E+02  0.75915377002E+02  0.00000000000E+00 0.  1.
         11    1    3    3    0    0  0.54150778952E+02 -0.42571954802E+02 -0.15183141591E+03  0.16672569404E+03  0.00000000000E+00 0. -1.
        -13    1    4    4    0    0  0.28933187615E+02 -0.15266332951E+01  0.12343264471E+02  0.31493112463E+02  0.00000000000E+00 0. -1.
         13    1    4    4    0    0  0.16963924442E+02  0.64745264324E+02 -0.76569593816E+02  0.10169870541E+03  0.00000000000E+00 0.  1.
         21    1    1    2  502  501 -0.13346878237E+03  0.41083860295E+02  0.14724404502E+01  0.13965660574E+03  0.00000000000E+00 0.  1.
<scales pt_clust_5="13000.00000" pt_clust_6="13000.00000" pt_clust_7="13000.00000" pt_clust_8="13000.00000" pt_clust_9="134.66549"></scales>
<clustering>
<clus scale="   86.671">  7  8 -1 -1</clus>
<clus scale="   87.527">  5  6 -1 -1</clus>
<clus scale="  116.683">  2  7  1 -1</clus>
<clus scale="  134.665">  1  9  2 -1</clus>
<clus scale="  116.683">  2  5  1 -1</clus>
</clustering>
</event>
<event>
 9    1  0.2423659E-006  0.1194879E+03  0.7546771E-02  0.1244425E+00
         -1   -1    0    0    0  501 -0.00000000000E+00  0.00000000000E+00  0.17563622318E+03  0.17563622318E+03  0.00000000000E+00 0.  1.
          1   -1    0    0  502    0  0.00000000000E+00 -0.00000000000E+00 -0.13562134346E+03  0.13562134346E+03  0.00000000000E+00 0. -1.
         23    2    1    2    0    0 -0.38739587371E+02  0.99681176349E+02  0.76221170891E+00  0.14122746489E+03  0.92236236509E+02 0.  0.
         23    2    1    2    0    0  0.22620135796E+01 -0.49605084268E+02  0.22584285406E+02  0.10587354818E+03  0.90737958793E+02 0.  0.
        -11    1    4    4    0    0  0.42749909918E+02 -0.11044145804E+02 -0.32666700583E+01  0.44274135653E+02  0.00000000000E+00 0.  1.
         11    1    4    4    0    0 -0.40487896338E+02 -0.38560938464E+02  0.25850955464E+02  0.61599412526E+02  0.00000000000E+00 0. -1.
        -13    1    3    3    0    0  0.21627545504E+02  0.18117642810E+02  0.24099747796E+02  0.37105222669E+02  0.00000000000E+00 0.  1.
         13    1    3    3    0    0 -0.60367132876E+02  0.81563533539E+02 -0.23337536087E+02  0.10412224222E+03  0.00000000000E+00 0. -1.
         21    1    1    2  502  501  0.36477573792E+02 -0.50076092081E+02  0.16668382602E+02  0.64156553573E+02  0.00000000000E+00 0.  1.
<scales pt_clust_5="13000.00000" pt_clust_6="13000.00000" pt_clust_7="13000.00000" pt_clust_8="13000.00000" pt_clust_9="61.95344"></scales>
<clustering>
<clus scale="   61.953">  1  9  2 -1</clus>
<clus scale="   90.738">  5  6 -1 -1</clus>
<clus scale="   92.236">  7  8 -1 -1</clus>
<clus scale="  118.335">  2  5  1 -1</clus>
<clus scale="  118.335">  2  5  1 -1</clus>
</clustering>
</event>
<event>
 9    1  0.2423659E-006  0.1387851E+03  0.7546771E-02  0.1229607E+00
         -2   -1    0    0    0  501 -0.00000000000E+00  0.00000000000E+00  0.14296156256E+03  0.14296156256E+03  0.00000000000E+00 0.  1.
          2   -1    0    0  502    0  0.00000000000E+00 -0.00000000000E+00 -0.34811682239E+03  0.34811682239E+03  0.00000000000E+00 0. -1.
         23    2    1    2    0    0 -0.31428327368E+02  0.31959106431E+02  0.52760792844E+02  0.11500522587E+03  0.91833416959E+02 0.  0.
         23    2    1    2    0    0 -0.14225740310E+02 -0.12382482190E+03 -0.85278189036E+02  0.17525623864E+03  0.88923683308E+02 0.  0.
        -11    1    4    4    0    0 -0.26619665561E+02 -0.18618632170E+02 -0.57010289295E+02  0.65615799500E+02  0.00000000000E+00 0. -1.
         11    1    4    4    0    0  0.12393925251E+02 -0.10520618973E+03 -0.28267899740E+02  0.10964043914E+03  0.00000000000E+00 0.  1.
        -13    1    3    3    0    0 -0.63763572743E+02  0.14356084774E+02  0.32880067889E+02  0.73164125385E+02  0.00000000000E+00 0.  1.
         13    1    3    3    0    0  0.32335245375E+02  0.17603021658E+02  0.19880724954E+02  0.41841100483E+02  0.00000000000E+00 0. -1.
         21    1    1    2  502  501  0.45654067678E+02  0.91865715465E+02 -0.17263786364E+03  0.20081692044E+03  0.00000000000E+00 0. -1.
<scales pt_clust_5="13000.00000" pt_clust_6="13000.00000" pt_clust_7="13000.00000" pt_clust_8="13000.00000" pt_clust_9="106.55455"></scales>
<clustering>
<clus scale="   88.924">  5  6 -1 -1</clus>
<clus scale="   91.833">  7  8 -1 -1</clus>
<clus scale="  102.189">  1  7  2 -1</clus>
<clus scale="  106.555">  2  9  1 -1</clus>
<clus scale="  106.555">  2  5  1 -1</clus>
</clustering>
</event>
<event>
 9    1  0.2423659E-006  0.1000019E+03  0.7546771E-02  0.1281231E+00
          1   -1    0    0  502    0  0.00000000000E+00  0.00000000000E+00  0.24346917546E+03  0.24346917546E+03  0.00000000000E+00 0. -1.
         -1   -1    0    0    0  501 -0.00000000000E+00 -0.00000000000E+00 -0.81542870530E+02  0.81542870530E+02  0.00000000000E+00 0.  1.
         23    2    1    2    0    0  0.13382086479E+02  0.14558015285E+02 -0.18514355804E+02  0.93547509349E+02  0.89539595080E+02 0.  0.
         23    2    1    2    0    0 -0.35685826672E+02 -0.28180778319E+02  0.17798094706E+03  0.20521407587E+03  0.91476581306E+02 0.  0.
        -11    1    4    4    0    0 -0.60705854795E+02 -0.22267727388E+01  0.77555003946E+02  0.98513643524E+02  0.00000000000E+00 0.  1.
         11    1    4    4    0    0  0.25020028122E+02 -0.25954005580E+02  0.10042594312E+03  0.10670043235E+03  0.00000000000E+00 0. -1.
        -11    1    3    3    0    0 -0.47666482255E+01  0.47858285123E+02  0.58821640167E+01  0.48453444086E+02  0.00000000000E+00 0.  1.
         11    1    3    3    0    0  0.18148734704E+02 -0.33300269838E+02 -0.24396519820E+02  0.45094065264E+02  0.00000000000E+00 0. -1.
         21    1    1    2  502  501  0.22303740194E+02  0.13622763034E+02  0.24597136741E+01  0.26250460770E+02  0.00000000000E+00 0. -1.
<scales pt_clust_5="13000.00000" pt_clust_6="13000.00000" pt_clust_7="13000.00000" pt_clust_8="13000.00000" pt_clust_9="26.13497"></scales>
<clustering>
<clus scale="   26.135">  2  9  1 -1</clus>
<clus scale="   89.540">  7  8 -1 -1</clus>
<clus scale="   91.477">  5  6 -1 -1</clus>
<clus scale="   98.233">  2  7  1 -1</clus>
<clus scale="  100.002">  1  5  2 -1</clus>
</clustering>
</event>
<event>
 9    1  0.2423659E-006  0.1352463E+03  0.7546771E-02  0.1220155E+00
          2   -1    0    0  502    0  0.00000000000E+00  0.00000000000E+00  0.35409958671E+03  0.35409958671E+03  0.00000000000E+00 0. -1.
         -2   -1    0    0    0  501 -0.00000000000E+00 -0.00000000000E+00 -0.86591428236E+02  0.86591428236E+02  0.00000000000E+00 0.  1.
         23    2    1    2    0    0 -0.27549964309E+02  0.92014915874E+02  0.10691704778E+02  0.13187359624E+03  0.89725066494E+02 0.  0.
         23    2    1    2    0    0  0.15205967450E+02 -0.11368829748E+03  0.21400363961E+03  0.25926899009E+03  0.90920850331E+02 0.  0.
        -11    1    4    4    0    0  0.34901824793E+02 -0.12025211446E+03  0.17653529214E+03  0.21643340264E+03  0.00000000000E+00 0. -1.
         11    1    4    4    0    0 -0.19695857344E+02  0.65638169852E+01  0.37468347469E+02  0.42835587448E+02  0.00000000000E+00 0.  1.
        -13    1    3    3    0    0  0.13314474000E+02  0.46217127276E+02 -0.31408652506E+02  0.57443898926E+02  0.00000000000E+00 0.  1.
         13    1    3    3    0    0 -0.40864438309E+02  0.45797788597E+02  0.42100357284E+02  0.74429697313E+02  0.00000000000E+00 0. -1.
         21    1    1    2  502  501  0.12343996859E+02  0.21673381605E+02  0.42812814080E+02  0.49548428614E+02  0.00000000000E+00 0. -1.
<scales pt_clust_5="13000.00000" pt_clust_6="13000.00000" pt_clust_7="13000.00000" pt_clust_8="13000.00000" pt_clust_9="24.94213"></scales>
<clustering>
<clus scale="   24.942">  1  9  2 -1</clus>
<clus scale="   89.725">  7  8 -1 -1</clus>
<clus scale="   90.921">  5  6 -1 -1</clus>
<clus scale="  134.445">  2  7  1 -1</clus>
<clus scale="   24.942">  1  5  2 -1</clus>
</clustering>
</event>
<event>
 9    1  0.2423659E-006  0.2133477E+03  0.7546771E-02  0.1139099E+00
          2   -1    0    0  502    0  0.00000000000E+00  0.00000000000E+00  0.58427612344E+02  0.58427612344E+02  0.00000000000E+00 0. -1.
         -2   -1    0    0    0  501 -0.00000000000E+00 -0.00000000000E+00 -0.98344706284E+03  0.98344706284E+03  0.00000000000E+00 0.  1.
         23    2    1    2    0    0  0.20538914434E+03 -0.89074949900E+01 -0.62376455422E+03  0.66318926234E+03  0.92052889688E+02 0.  0.
         23    2    1    2    0    0 -0.16960822939E+03  0.85191406279E+01 -0.23747200883E+03  0.30555073280E+03  0.90159681145E+02 0.  0.
        -11    1    4    4    0    0 -0.14979533023E+03 -0.17528950319E+02 -0.15244129891E+03  0.21443939627E+03  0.00000000000E+00 0. -1.
         11    1    4    4    0    0 -0.19812899156E+02  0.26048090947E+02 -0.85030709927E+02  0.91111336537E+02  0.00000000000E+00 0.  1.
        -13    1    3    3    0    0  0.59633590166E+02 -0.45326472845E+02 -0.19787959006E+03  0.21158210316E+03  0.00000000000E+00 0.  1.
         13    1    3    3    0    0  0.14575555418E+03  0.36418977855E+02 -0.42588496416E+03  0.45160715918E+03  0.00000000000E+00 0. -1.
         21    1    1    2  502  501 -0.35780914955E+02  0.38835436208E+00 -0.63782887446E+02  0.73134680044E+02  0.00000000000E+00 0. -1.
<scales pt_clust_5="13000.00000" pt_clust_6="13000.00000" pt_clust_7="13000.00000" pt_clust_8="13000.00000" pt_clust_9="35.78302"></scales>
<clustering>
<clus scale="   35.783">  1  9  2 -1</clus>
<clus scale="   90.160">  5  6 -1 -1</clus>
<clus scale="   92.053">  7  8 -1 -1</clus>
<clus scale="  212.538">  1  5  2 -1</clus>
<clus scale="   35.783">  1  5  2 -1</clus>
</clustering>
</event>
<event>
 9    1  0.2423659E-006  0.1044806E+03  0.7546771E-02  0.1271659E+00
         -2   -1    0    0    0  501 -0.00000000000E+00  0.00000000000E+00  0.32460124900E+02  0.32460124900E+02  0.00000000000E+00 0.  1.
          2   -1    0    0  502    0  0.00000000000E+00 -0.00000000000E+00 -0.54144916109E+03  0.54144916109E+03  0.00000000000E+00 0. -1.
         23    2    1    2    0    0  0.19294923832E+02 -0.23983363656E+02 -0.17360575526E+03  0.19784342714E+03  0.89752813793E+02 0.  0.
         23    2    1    2    0    0 -0.27232023634E+02  0.64816866711E+02 -0.30065138984E+03  0.32187474534E+03  0.90935604427E+02 0.  0.
        -11    1    3    3    0    0  0.53621006862E+02 -0.49159089069E+01 -0.81087804790E+02  0.97337611554E+02  0.00000000000E+00 0.  1.
         11    1    3    3    0    0 -0.34326083030E+02 -0.19067454749E+02 -0.92517950474E+02  0.10050581559E+03  0.00000000000E+00 0. -1.
        -11    1    4    4    0    0 -0.42898496072E+02  0.87880876748E+01 -0.20733190015E+03  0.21190570609E+03  0.00000000000E+00 0. -1.
         11    1    4    4    0    0  0.15666472438E+02  0.56028779036E+02 -0.93319489688E+02  0.10996903925E+03  0.00000000000E+00 0.  1.
         21    1    1    2  502  501  0.79370998020E+01 -0.40833503055E+02 -0.34731891080E+02  0.54191113506E+02  0.00000000000E+00 0. -1.
<scales pt_clust_5="13000.00000" pt_clust_6="13000.00000" pt_clust_7="13000.00000" pt_clust_8="13000.00000" pt_clust_9="41.59775"></scales>
<clustering>
<clus scale="   41.598">  1  9  2 -1</clus>
<clus scale="   89.753">  5  6 -1 -1</clus>
<clus scale="   90.936">  7  8 -1 -1</clus>
<clus scale="  103.453">  1  5  2 -1</clus>
<clus scale="  104.481">  2  5  1 -1</clus>
</clustering>
</event>
<event>
 9    1  0.2423659E-006  0.3198284E+03  0.7546771E-02  0.1107646E+00
          1   -1    0    0  502    0  0.00000000000E+00  0.00000000000E+00  0.84779441161E+03  0.84779441161E+03  0.00000000000E+00 0. -1.
         -1   -1    0    0    0  501 -0.00000000000E+00 -0.00000000000E+00 -0.20722424824E+03  0.20722424824E+03  0.00000000000E+00 0.  1.
         23    2    1    2    0    0 -0.45949468489E+02  0.32297106959E+03  0.60793098708E+02  0.34428801049E+03  0.91742944527E+02 0.  0.
         23    2    1    2    0    0  0.91491473934E+02 -0.53698545056E+02  0.18724201445E+03  0.23254079964E+03  0.88098966949E+02 0.  0.
        -11    1    3    3    0    0 -0.56326573334E+02  0.99316342552E+02  0.93538140603E+01  0.11455964647E+03  0.00000000000E+00 0.  1.
         11    1    3    3    0    0  0.10377104845E+02  0.22365472703E+03  0.51439284648E+02  0.22972836402E+03  0.00000000000E+00 0. -1.
        -11    1    4    4    0    0  0.36907171130E+02 -0.71159410779E+02  0.10007010139E+03  0.12821788571E+03  0.00000000000E+00 0.  1.
         11    1    4    4    0    0  0.54584302804E+02  0.17460865724E+02  0.87171913060E+02  0.10432291393E+03  0.00000000000E+00 0. -1.
         21    1    1    2  502  501 -0.45542005445E+02 -0.26927252453E+03  0.39253505021E+03  0.47818984971E+03  0.00000000000E+00 0.  1.
<scales pt_clust_5="13000.00000" pt_clust_6="13000.00000" pt_clust_7="13000.00000" pt_clust_8="13000.00000" pt_clust_9="306.38770"></scales>
<clustering>
<clus scale="   88.099">  7  8 -1 -1</clus>
<clus scale="   91.743">  5  6 -1 -1</clus>
<clus scale="  137.897">  1  7  2 -1</clus>
<clus scale="  306.388">  1  9  2 -1</clus>
<clus scale="  137.897">  1  5  2 -1</clus>
</clustering>
</event>
<event>
 9    1  0.2423659E-006  0.1905124E+03  0.7546771E-02  0.1158198E+00
          2   -1    0    0  502    0  0.00000000000E+00  0.00000000000E+00  0.69285408537E+03  0.69285408537E+03  0.00000000000E+00 0. -1.
         -2   -1    0    0    0  501 -0.00000000000E+00 -0.00000000000E+00 -0.16443997137E+03  0.16443997137E+03  0.00000000000E+00 0.  1.
         23    2    1    2    0    0 -0.61622829301E+02  0.11959358130E+03  0.71516244284E+02  0.17840391383E+03  0.92808326633E+02 0.  0.
         23    2    1    2    0    0  0.14963834104E+03 -0.10385965359E+03  0.52719883684E+03  0.56515135108E+03  0.90988874674E+02 0.  0.
        -13    1    3    3    0    0 -0.85359009873E+02  0.10135448900E+03  0.50400346083E+02  0.14177125199E+03  0.00000000000E+00 0.  1.
         13    1    3    3    0    0  0.23736180572E+02  0.18239092307E+02  0.21115898200E+02  0.36632661835E+02  0.00000000000E+00 0. -1.
        -13    1    4    4    0    0  0.84572737132E+02 -0.45637949481E+01  0.20724250268E+03  0.22388128776E+03  0.00000000000E+00 0.  1.
         13    1    4    4    0    0  0.65065603904E+02 -0.99295858637E+02  0.31995633416E+03  0.34127006332E+03  0.00000000000E+00 0. -1.
         21    1    1    2  502  501 -0.88015511735E+02 -0.15733927717E+02 -0.70300967128E+02  0.11373879183E+03  0.00000000000E+00 0.  1.
<scales pt_clust_5="13000.00000" pt_clust_6="13000.00000" pt_clust_7="13000.00000" pt_clust_8="13000.00000" pt_clust_9="89.41078"></scales>
<clustering>
<clus scale="   89.411">  2  9  1 -1</clus>
<clus scale="   90.989">  7  8 -1 -1</clus>
<clus scale="   92.808">  5  6 -1 -1</clus>
<clus scale="  189.633">  1  7  2 -1</clus>
<clus scale="  189.633">  1  5  2 -1</clus>
</clustering>
</event>
<event>
 9    1  0.2423659E-006  0.1009067E+03  0.7546771E-02  0.1279167E+00
          2   -1    0    0  502    0  0.00000000000E+00  0.00000000000E+00  0.45542727248E+03  0.45542727248E+03  0.00000000000E+00 0. -1.
         -2   -1    0    0    0  501 -0.00000000000E+00 -0.00000000000E+00 -0.11208558322E+03  0.11208558322E+03  0.00000000000E+00 0.  1.
         23    2    1    2    0    0 -0.19568621860E+02 -0.36380856682E+02 -0.73413395623E+02  0.12381864102E+03  0.90747074398E+02 0.  0.
         23    2    1    2    0    0 -0.18748603741E+02  0.44424296993E+02  0.35980948816E+03  0.37458771935E+03  0.92347514387E+02 0.  0.
        -11    1    3    3    0    0  0.26708122289E+02 -0.41573040359E+02 -0.20953389317E+02  0.53672022551E+02  0.00000000000E+00 0.  1.
         11    1    3    3    0    0 -0.46276744149E+02  0.51921836766E+01 -0.52460006306E+02  0.70146618465E+02  0.00000000000E+00 0. -1.
        -11    1    4    4    0    0  0.22835228728E+02 -0.96373824548E+01  0.36221725222E+02  0.43890092159E+02  0.00000000000E+00 0.  1.
         11    1    4    4    0    0 -0.41583832470E+02  0.54061679448E+02  0.32358776294E+03  0.33069762719E+03  0.00000000000E+00 0. -1.
         21    1    1    2  502  501  0.38317225601E+02 -0.80434403111E+01  0.56945596730E+02  0.69106495330E+02  0.00000000000E+00 0.  1.
<scales pt_clust_5="13000.00000" pt_clust_6="13000.00000" pt_clust_7="13000.00000" pt_clust_8="13000.00000" pt_clust_9="39.15235"></scales>
<clustering>
<clus scale="   39.152">  1  9  2 -1</clus>
<clus scale="   90.747">  5  6 -1 -1</clus>
<clus scale="   92.348">  7  8 -1 -1</clus>
<clus scale="   99.444">  2  5  1 -1</clus>
<clus scale="   39.152">  1  5  2 -1</clus>
</clustering>
</event>
<event>
 9    1  0.2423659E-006  0.1382232E+03  0.7546771E-02  0.1215943E+00
         -1   -1    0    0    0  501 -0.00000000000E+00  0.00000000000E+00  0.90139276910E+02  0.90139276910E+02  0.00000000000E+00 0.  1.
          1   -1    0    0  502    0  0.00000000000E+00 -0.00000000000E+00 -0.29330673846E+03  0.29330673846E+03  0.00000000000E+00 0. -1.
         23    2    1    2    0    0 -0.78935124260E+02 -0.77359209335E+02 -0.21445143055E+02  0.14538123805E+03  0.91981569383E+02 0.  0.
         23    2    1    2    0    0  0.71290091658E+02  0.53737937910E+02 -0.13897454137E+03  0.18863013930E+03  0.91089863113E+02 0.  0.
        -11    1    4    4    0    0  0.56289155380E+02 -0.13215603419E+02 -0.76032528322E+02  0.95519979848E+02  0.00000000000E+00 0.  1.
         11    1    4    4    0    0  0.15000936278E+02  0.66953541329E+02 -0.62942013053E+02  0.93110159450E+02  0.00000000000E+00 0. -1.
        -13    1    3    3    0    0 -0.28461097481E+02 -0.77966466293E+02  0.13360197105E+02  0.84067227876E+02  0.00000000000E+00 0.  1.
         13    1    3    3    0    0 -0.50474026779E+02  0.60725695812E+00 -0.34805340160E+02  0.61314010177E+02  0.00000000000E+00 0. -1.
         21    1    1    2  502  501  0.76450326023E+01  0.23621271425E+02 -0.42747777118E+02  0.49434638016E+02  0.00000000000E+00 0. -1.
<scales pt_clust_5="13000.00000" pt_clust_6="13000.00000" pt_clust_7="13000.00000" pt_clust_8="13000.00000" pt_clust_9="24.82763"></scales>
<clustering>
<clus scale="   24.828">  2  9  1 -1</clus>
<clus scale="   91.090">  5  6 -1 -1</clus>
<clus scale="   91.982">  7  8 -1 -1</clus>
<clus scale="  137.631">  2  5  1 -1</clus>
<clus scale="   24.828">  2  5  1 -1</clus>
</clustering>
</event>
<event>
 9    1  0.2423659E-006  0.1708551E+03  0.7546771E-02  0.1177003E+00
         -1   -1    0    0    0  501 -0.00000000000E+00  0.00000000000E+00  0.46763914516E+03  0.46763914516E+03  0.00000000000E+00 0.  1.
          1   -1    0    0  502    0  0.00000000000E+00 -0.00000000000E+00 -0.28410544385E+03  0.28410544385E+03  0.00000000000E+00 0. -1.
         23    2    1    2    0    0 -0.11690831521E+03 -0.90073419745E+02  0.41423862496E+03  0.44896449555E+03  0.90524608498E+02 0.  0.
         23    2    1    2    0    0  0.94018477563E+02  0.55193301036E+02 -0.21663169867E+03  0.25875029662E+03  0.90203373181E+02 0.  0.
        -11    1    3    3    0    0 -0.91568843060E+02 -0.10260879606E+03  0.38244107185E+03  0.40641677067E+03  0.00000000000E+00 0.  1.
         11    1    3    3    0    0 -0.25339472152E+02  0.12535376311E+02  0.31797553113E+02  0.42547724877E+02  0.00000000000E+00 0. -1.
        -13    1    4    4    0    0  0.57447877167E+02  0.69284541502E+02 -0.19307909529E+03  0.21302615643E+03  0.00000000000E+00 0. -1.
         13    1    4    4    0    0  0.36570600396E+02 -0.14091240467E+02 -0.23552603373E+02  0.45724140198E+02  0.00000000000E+00 0.  1.
         21    1    1    2  502  501  0.22889837648E+02  0.34880118709E+02 -0.14073224982E+02  0.44029796844E+02  0.00000000000E+00 0.  1.
<scales pt_clust_5="13000.00000" pt_clust_6="13000.00000" pt_clust_7="13000.00000" pt_clust_8="13000.00000" pt_clust_9="41.72011"></scales>
<clustering>
<clus scale="   41.720">  2  9  1 -1</clus>
<clus scale="   90.203">  7  8 -1 -1</clus>
<clus scale="   90.525">  5  6 -1 -1</clus>
<clus scale="  170.685">  2  7  1 -1</clus>
<clus scale="   41.720">  2  5  1 -1</clus>
</clustering>
</event>
<event>
 9    1  0.2423659E-006  0.1121097E+03  0.7546771E-02  0.1258222E+00
          1   -1    0    0  502    0  0.00000000000E+00  0.00000000000E+00  0.95814803211E+02  0.95814803211E+02  0.00000000000E+00 0. -1.
         -1   -1    0    0    0  501 -0.00000000000E+00 -0.00000000000E+00 -0.29671683804E+03  0.29671683804E+03  0.00000000000E+00 0.  1.
         23    2    1    2    0    0  0.31000377491E+02 -0.11166982458E+02 -0.48342804539E+02  0.10776739881E+03  0.90504478306E+02 0.  0.
         23    2    1    2    0    0 -0.62679860711E+02  0.58412741494E+02 -0.61128078508E+01  0.12765820803E+03  0.94437483819E+02 0.  0.
        -11    1    3    3    0    0  0.40116670956E+02 -0.32178123100E+02  0.30337742333E+01  0.51516819398E+02  0.00000000000E+00 0.  1.
         11    1    3    3    0    0 -0.91162934647E+01  0.21011140642E+02 -0.51376578773E+02  0.56250579410E+02  0.00000000000E+00 0. -1.
        -13    1    4    4    0    0 -0.33296305971E+02 -0.21708257393E+02 -0.13553979279E+02  0.41995270979E+02  0.00000000000E+00 0.  1.
         13    1    4    4    0    0 -0.29383554741E+02  0.80120998888E+02  0.74411714278E+01  0.85662937051E+02  0.00000000000E+00 0. -1.
         21    1    1    2  502  501  0.31679483220E+02 -0.47245759036E+02 -0.14644642244E+03  0.15710603441E+03  0.00000000000E+00 0.  1.
<scales pt_clust_5="13000.00000" pt_clust_6="13000.00000" pt_clust_7="13000.00000" pt_clust_8="13000.00000" pt_clust_9="56.88367"></scales>
<clustering>
<clus scale="   56.884">  2  9  1 -1</clus>
<clus scale="   90.504">  5  6 -1 -1</clus>
<clus scale="   94.437">  7  8 -1 -1</clus>
<clus scale="  108.817">  2  5  1 -1</clus>
<clus scale="  112.110">  1  5  2 -1</clus>
</clustering>
</event>
<event>
 9    1  0.2423659E-006  0.1221276E+03  0.7546771E-02  0.1248299E+00
          1   -1    0    0  502    0  0.00000000000E+00  0.00000000000E+00  0.47215446343E+03  0.47215446343E+03  0.00000000000E+00 0. -1.
         -1   -1    0    0    0  501 -0.00000000000E+00 -0.00000000000E+00 -0.15184858258E+03  0.15184858258E+03  0.00000000000E+00 0.  1.
         23    2    1    2    0    0 -0.15191722823E+02  0.38111834581E+02 -0.89566218653E+02  0.14646993600E+03  0.10838834924E+03 0.  0.
         23    2    1    2    0    0 -0.21393217451E+02 -0.53538183754E+02  0.42322294565E+03  0.43564426667E+03  0.85698649258E+02 0.  0.
        -11    1    4    4    0    0 -0.30955631153E+02 -0.72887048470E+02  0.36642086169E+03  0.37488000856E+03  0.00000000000E+00 0. -1.
         11    1    4    4    0    0  0.95624137022E+01  0.19348864717E+02  0.56802083965E+02  0.60764258116E+02  0.00000000000E+00 0.  1.
        -13    1    3    3    0    0  0.16622243750E+02  0.61681836202E+02 -0.85411529524E+02  0.10665869529E+03  0.00000000000E+00 0.  1.
         13    1    3    3    0    0 -0.31813966573E+02 -0.23570001620E+02 -0.41546891293E+01  0.39811240714E+02  0.00000000000E+00 0. -1.
         21    1    1    2  502  501  0.36584940274E+02  0.15426349172E+02 -0.13350846152E+02  0.41888843343E+02  0.00000000000E+00 0. -1.
<scales pt_clust_5="13000.00000" pt_clust_6="13000.00000" pt_clust_7="13000.00000" pt_clust_8="13000.00000" pt_clust_9="39.70428"></scales>
<clustering>
<clus scale="   39.704">  2  9  1 -1</clus>
<clus scale="   85.699">  5  6 -1 -1</clus>
<clus scale="  102.525">  1  5  2 -1</clus>
<clus scale="  108.388">  7  8 -1 -1</clus>
<clus scale="  102.525">  1  5  2 -1</clus>
</clustering>
</event>
<event>
 9    1  0.2423659E-006  0.1239107E+03  0.7546771E-02  0.1238230E+00
          3   -1    0    0  502    0  0.00000000000E+00  0.00000000000E+00  0.12025616936E+03  0.12025616936E+03  0.00000000000E+00 0. -1.
         -3   -1    0    0    0  501 -0.00000000000E+00 -0.00000000000E+00 -0.26975463798E+03  0.26975463798E+03  0.00000000000E+00 0.  1.
         23    2    1    2    0    0  0.38667310854E+02  0.57695797283E+02 -0.14591606406E+03  0.18587988360E+03  0.91846978304E+02 0.  0.
         23    2    1    2    0    0 -0.62565333302E+02 -0.74782189649E+02 -0.52639559997E+02  0.14694994106E+03  0.96522355336E+02 0.  0.
        -11    1    4    4    0    0 -0.27890475067E+02 -0.23457162609E+01 -0.60098325130E+02  0.66296226647E+02  0.00000000000E+00 0.  1.
         11    1    4    4    0    0 -0.34674858235E+02 -0.72436473388E+02  0.74587651324E+01  0.80653714408E+02  0.00000000000E+00 0. -1.
        -13    1    3    3    0    0  0.56093544601E+01  0.65384375679E+02 -0.13520491557E+03  0.15028955597E+03  0.00000000000E+00 0.  1.
         13    1    3    3    0    0  0.33057956394E+02 -0.76885783962E+01 -0.10711148491E+02  0.35590327628E+02  0.00000000000E+00 0. -1.
         21    1    1    2  502  501  0.23898022448E+02  0.17086392367E+02  0.49057155439E+02  0.57180982685E+02  0.00000000000E+00 0. -1.
<scales pt_clust_5="13000.00000" pt_clust_6="13000.00000" pt_clust_7="13000.00000" pt_clust_8="13000.00000" pt_clust_9="29.37789"></scales>
<clustering>
<clus scale="   29.378">  1  9  2 -1</clus>
<clus scale="   91.847">  7  8 -1 -1</clus>
<clus scale="   96.522">  5  6 -1 -1</clus>
<clus scale="  120.304">  2  7  1 -1</clus>
<clus scale="   29.378">  1  5  2 -1</clus>
</clustering>
</event>
<event>
 9    1  0.2423659E-006  0.1164511E+03  0.7546771E-02  0.1249102E+00
          1   -1    0    0  502    0  0.00000000000E+00  0.00000000000E+00  0.51821447075E+03  0.51821447075E+03  0.00000000000E+00 0. -1.
         -1   -1    0    0    0  501 -0.00000000000E+00 -0.00000000000E+00 -0.62080125718E+02  0.62080125718E+02  0.00000000000E+00 0.  1.
         23    2    1    2    0    0  0.61651485702E+02  0.28161871733E+02  0.55387786614E+02  0.12643682139E+03  0.91238512639E+02 0.  0.
         23    2    1    2    0    0 -0.74558890699E+02 -0.97505311988E+00  0.40650446052E+03  0.42321666468E+03  0.91139946943E+02 0.  0.
        -13    1    4    4    0    0 -0.79371092935E+02  0.24007779024E+02  0.36682789299E+03  0.37608356375E+03  0.00000000000E+00 0. -1.
         13    1    4    4    0    0  0.48122022361E+01 -0.24982832144E+02  0.39676567533E+02  0.47133100932E+02  0.00000000000E+00 0.  1.
        -13    1    3    3    0    0  0.57341826834E+02 -0.19845995768E+02  0.48636471929E+02  0.77765384680E+02  0.00000000000E+00 0.  1.
         13    1    3    3    0    0  0.43096588682E+01  0.48007867501E+02  0.67513146846E+01  0.48671436711E+02  0.00000000000E+00 0. -1.
         21    1    1    2  502  501  0.12907404997E+02 -0.27186818613E+02 -0.57579020991E+01  0.30641110402E+02  0.00000000000E+00 0.  1.
<scales pt_clust_5="13000.00000" pt_clust_6="13000.00000" pt_clust_7="13000.00000" pt_clust_8="13000.00000" pt_clust_9="30.09525"></scales>
<clustering>
<clus scale="   30.095">  2  9  1 -1</clus>
<clus scale="   91.140">  5  6 -1 -1</clus>
<clus scale="   91.239">  7  8 -1 -1</clus>
<clus scale="  116.374">  1  5  2 -1</clus>
<clus scale="  116.374">  1  5  2 -1</clus>
</clustering>
</event>
<event>
 9    1  0.2423659E-006  0.1493002E+03  0.7546771E-02  0.1214157E+00
         -1   -1    0    0    0  501 -0.00000000000E+00  0.00000000000E+00  0.37155554920E+03  0.37155554920E+03  0.00000000000E+00 0.  1.
          1   -1    0    0  502    0  0.00000000000E+00 -0.00000000000E+00 -0.11585086633E+03  0.11585086633E+03  0.00000000000E+00 0. -1.
         23    2    1    2    0    0 -0.81293042295E+02 -0.43313761634E+02  0.12300740567E+03  0.17862462108E+03  0.91056535918E+02 0.  0.
         23    2    1    2    0    0 -0.60940002255E+02 -0.17599292436E+02  0.15073054465E+02  0.11442105538E+03  0.94029580314E+02 0.  0.
        -11    1    4    4    0    0 -0.53811313065E+02  0.31995163446E+02  0.19871712347E+01  0.62636225519E+02  0.00000000000E+00 0. -1.
         11    1    4    4    0    0 -0.71286891898E+01 -0.49594455882E+02  0.13085883231E+02  0.51784829861E+02  0.00000000000E+00 0.  1.
        -13    1    3    3    0    0 -0.55891981578E+02 -0.37586660362E+02  0.13429920998E+03  0.15024296470E+03  0.00000000000E+00 0.  1.
         13    1    3    3    0    0 -0.25401060717E+02 -0.57271012717E+01 -0.11291804302E+02  0.28381656381E+02  0.00000000000E+00 0. -1.
         21    1    1    2  502  501  0.14223304455E+03  0.60913054070E+02  0.11762422273E+03  0.19436073907E+03  0.00000000000E+00 0. -1.
<scales pt_clust_5="13000.00000" pt_clust_6="13000.00000" pt_clust_7="13000.00000" pt_clust_8="13000.00000" pt_clust_9="118.31847"></scales>
<clustering>
<clus scale="   91.057">  7  8 -1 -1</clus>
<clus scale="   94.030">  5  6 -1 -1</clus>
<clus scale="  113.424">  2  5  1 -1</clus>
<clus scale="  118.318">  2  9  1 -1</clus>
<clus scale="  113.424">  2  5  1 -1</clus>
</clustering>
</event>
<event>
 9    1  0.2423659E-006  0.9649537E+02  0.7546771E-02  0.1289449E+00
          1   -1    0    0  502    0  0.00000000000E+00  0.00000000000E+00  0.28714655370E+03  0.28714655370E+03  0.00000000000E+00 0. -1.
         -1   -1    0    0    0  501 -0.00000000000E+00 -0.00000000000E+00 -0.70586696915E+02  0.70586696915E+02  0.00000000000E+00 0.  1.
         23    2    1    2    0    0  0.25977259258E+02 -0.69909437448E+02  0.98262046276E+02  0.15356719693E+03  0.91462051106E+02 0.  0.
         23    2    1    2    0    0  0.57303054308E+01  0.17701128474E+01  0.81814325049E+02  0.12062335845E+03  0.88433258004E+02 0.  0.
        -11    1    4    4    0    0  0.26603311302E+02  0.33333623529E+02  0.68142731823E+02  0.80388422861E+02  0.00000000000E+00 0. -1.
         11    1    4    4    0    0 -0.20873005871E+02 -0.31563510682E+02  0.13671593226E+02  0.40234935591E+02  0.00000000000E+00 0.  1.
        -11    1    3    3    0    0 -0.41942105354E+01 -0.54064577313E+02  0.52168191707E+01  0.54477381768E+02  0.00000000000E+00 0.  1.
         11    1    3    3    0    0  0.30171469794E+02 -0.15844860135E+02  0.93045227105E+02  0.99089815164E+02  0.00000000000E+00 0. -1.
         21    1    1    2  502  501 -0.31707564689E+02  0.68139324600E+02  0.36483485462E+02  0.83542695234E+02  0.00000000000E+00 0. -1.
<scales pt_clust_5="13000.00000" pt_clust_6="13000.00000" pt_clust_7="13000.00000" pt_clust_8="13000.00000" pt_clust_9="75.15542"></scales>
<clustering>
<clus scale="   75.155">  2  9  1 -1</clus>
<clus scale="   88.433">  5  6 -1 -1</clus>
<clus scale="   91.462">  7  8 -1 -1</clus>
<clus scale="   93.630">  1  5  2 -1</clus>
<clus scale="   93.630">  1  5  2 -1</clus>
</clustering>
</event>
<event>
 9    1  0.2423659E-006  0.9388361E+02  0.7546771E-02  0.1295071E+00
         -1   -1    0    0    0  501 -0.00000000000E+00  0.00000000000E+00  0.83008216835E+02  0.83008216835E+02  0.00000000000E+00 0.  1.
          1   -1    0    0  502    0  0.00000000000E+00 -0.00000000000E+00 -0.47541568496E+03  0.47541568496E+03  0.00000000000E+00 0. -1.
         23    2    1    2    0    0 -0.61723635115E+01 -0.17871636428E+02  0.39327150008E+02  0.10096269319E+03  0.91045852337E+02 0.  0.
         23    2    1    2    0    0  0.27009583949E+02  0.48107707432E+02 -0.23237012132E+03  0.25474314741E+03  0.88624650820E+02 0.  0.
        -11    1    4    4    0    0 -0.19690501461E+02  0.43511803752E+02 -0.17066618442E+03  0.17722285241E+03  0.00000000000E+00 0. -1.
         11    1    4    4    0    0  0.46700085410E+02  0.45959036807E+01 -0.61703936900E+02  0.77520295000E+02  0.00000000000E+00 0.  1.
        -11    1    3    3    0    0 -0.61175660471E+01 -0.53279505928E+02  0.37629335029E+02  0.65514099406E+02  0.00000000000E+00 0.  1.
         11    1    3    3    0    0 -0.54797464363E-01  0.35407869500E+02  0.16978149782E+01  0.35448593780E+02  0.00000000000E+00 0. -1.
         21    1    1    2  502  501 -0.20837220438E+02 -0.30236071004E+02 -0.19936449681E+03  0.20271806119E+03  0.00000000000E+00 0. -1.
<scales pt_clust_5="13000.00000" pt_clust_6="13000.00000" pt_clust_7="13000.00000" pt_clust_8="13000.00000" pt_clust_9="36.72070"></scales>
<clustering>
<clus scale="   36.721">  2  9  1 -1</clus>
<clus scale="   88.625">  5  6 -1 -1</clus>
<clus scale="   91.046">  7  8 -1 -1</clus>
<clus scale="   91.538">  2  5  1 -1</clus>
<clus scale="   36.721">  2  5  1 -1</clus>
</clustering>
</event>
<event>
 9    1  0.2423659E-006  0.1211632E+03  0.7546771E-02  0.1242548E+00
          2   -1    0    0  502    0  0.00000000000E+00  0.00000000000E+00  0.77211980694E+03  0.77211980694E+03  0.00000000000E+00 0. -1.
         -2   -1    0    0    0  501 -0.00000000000E+00 -0.00000000000E+00 -0.51516292091E+02  0.51516292091E+02  0.00000000000E+00 0.  1.
         23    2    1    2    0    0  0.74996540453E+02  0.62050304195E+02  0.73492189105E+02  0.15090840905E+03  0.88868018603E+02 0.  0.
         23    2    1    2    0    0  0.44195474761E+01 -0.27461075579E+02  0.34553199955E+03  0.35895481075E+03  0.93180203757E+02 0.  0.
        -11    1    3    3    0    0  0.17071957770E+02  0.50536562340E+02 -0.39828356435E+01  0.53490736161E+02  0.00000000000E+00 0.  1.
         11    1    3    3    0    0  0.57924582683E+02  0.11513741855E+02  0.77475024748E+02  0.97417672885E+02  0.00000000000E+00 0. -1.
        -13    1    4    4    0    0 -0.35253721366E+02  0.11663616628E+02  0.88900196722E+02  0.96343706594E+02  0.00000000000E+00 0.  1.
         13    1    4    4    0    0  0.39673268842E+02 -0.39124692207E+02  0.25663180283E+03  0.26261110415E+03  0.00000000000E+00 0. -1.
         21    1    1    2  502  501 -0.79416087930E+02 -0.34589228616E+02  0.30157932619E+03  0.31377287923E+03  0.00000000000E+00 0. -1.
<scales pt_clust_5="13000.00000" pt_clust_6="13000.00000" pt_clust_7="13000.00000" pt_clust_8="13000.00000" pt_clust_9="86.62176"></scales>
<clustering>
<clus scale="   86.622">  1  9  2 -1</clus>
<clus scale="   88.868">  5  6 -1 -1</clus>
<clus scale="   93.180">  7  8 -1 -1</clus>
<clus scale="  117.879">  2  5  1 -1</clus>
<clus scale="   86.622">  1  5  2 -1</clus>
</clustering>
</event>
<event>
 9    1  0.2423659E-006  0.1655459E+03  0.7546771E-02  0.1208030E+00
          1   -1    0    0  502    0  0.00000000000E+00  0.00000000000E+00  0.52203315644E+03  0.52203315644E+03  0.00000000000E+00 0. -1.
         -1   -1    0    0    0  501 -0.00000000000E+00 -0.00000000000E+00 -0.15201168616E+03  0.15201168616E+03  0.00000000000E+00 0.  1.
         23    2    1    2    0    0 -0.79300217875E+02  0.10939426579E+03 -0.68074143520E+02  0.17993688458E+03  0.97404124523E+02 0.  0.
         23    2    1    2    0    0 -0.23211581524E+02 -0.26130343216E+02  0.21265906769E+03  0.23283571275E+03  0.88130685408E+02 0.  0.
        -11    1    3    3    0    0 -0.23450578780E+02  0.85487710669E+02 -0.78367723715E+02  0.11831981424E+03  0.00000000000E+00 0.  1.
         11    1    3    3    0    0 -0.55849639095E+02  0.23906555123E+02  0.10293580195E+02  0.61617070346E+02  0.00000000000E+00 0. -1.
        -13    1    4    4    0    0  0.23860767221E+02  0.16507784437E+02  0.44925666625E+02  0.53480451392E+02  0.00000000000E+00 0.  1.
         13    1    4    4    0    0 -0.47072348744E+02 -0.42638127654E+02  0.16773340106E+03  0.17935526136E+03  0.00000000000E+00 0. -1.
         21    1    1    2  502  501  0.10251179940E+03 -0.83263922575E+02  0.22543654612E+03  0.26127224527E+03  0.00000000000E+00 0. -1.
<scales pt_clust_5="13000.00000" pt_clust_6="13000.00000" pt_clust_7="13000.00000" pt_clust_8="13000.00000" pt_clust_9="133.85763"></scales>
<clustering>
<clus scale="   88.131">  7  8 -1 -1</clus>
<clus scale="   94.808">  1  7  2 -1</clus>
<clus scale="   97.404">  5  6 -1 -1</clus>
<clus scale="  133.858">  1  9  2 -1</clus>
<clus scale="   94.808">  1  5  2 -1</clus>
</clustering>
</event>
<event>
 9    1  0.2423659E-006  0.1723567E+03  0.7546771E-02  0.1196624E+00
          2   -1    0    0  502    0  0.00000000000E+00  0.00000000000E+00  0.48614113382E+03  0.48614113382E+03  0.00000000000E+00 0. -1.
         -2   -1    0    0    0  501 -0.00000000000E+00 -0.00000000000E+00 -0.14717280170E+03  0.14717280170E+03  0.00000000000E+00 0.  1.
         23    2    1    2    0    0  0.18594121615E+03  0.70523707305E+01  0.10329174301E+03  0.23141878246E+03  0.90893327064E+02 0.  0.
         23    2    1    2    0    0 -0.53840452341E+02 -0.11312126329E+02  0.24685533461E+03  0.26925382590E+03  0.92375906093E+02 0.  0.
        -11    1    4    4    0    0  0.21972172980E+02 -0.21725181484E+02  0.65996543110E+02  0.72871829937E+02  0.00000000000E+00 0.  1.
         11    1    4    4    0    0 -0.75812625321E+02  0.10413055155E+02  0.18085879150E+03  0.19638199596E+03  0.00000000000E+00 0. -1.
        -13    1    3    3    0    0  0.11200623648E+03  0.20435948998E+00  0.10385794237E+02  0.11248690366E+03  0.00000000000E+00 0.  1.
         13    1    3    3    0    0  0.73934979669E+02  0.68480112406E+01  0.92905948777E+02  0.11893187880E+03  0.00000000000E+00 0. -1.
         21    1    1    2  502  501 -0.13210076381E+03  0.42597555984E+01 -0.11178745511E+02  0.13264132715E+03  0.00000000000E+00 0.  1.
<scales pt_clust_5="13000.00000" pt_clust_6="13000.00000" pt_clust_7="13000.00000" pt_clust_8="13000.00000" pt_clust_9="146.44187"></scales>
<clustering>
<clus scale="   90.893">  7  8 -1 -1</clus>
<clus scale="   92.376">  5  6 -1 -1</clus>
<clus scale="  107.518">  1  5  2 -1</clus>
<clus scale="  146.442">  2  9  1 -1</clus>
<clus scale="  107.518">  1  5  2 -1</clus>
</clustering>
</event>
<event>
 9    1  0.2423659E-006  0.9471231E+02  0.7546771E-02  0.1292589E+00
         -2   -1    0    0    0  501 -0.00000000000E+00  0.00000000000E+00  0.17937507690E+03  0.17937507690E+03  0.00000000000E+00 0.  1.
          2   -1    0    0  502    0  0.00000000000E+00 -0.00000000000E+00 -0.83569783720E+02  0.83569783720E+02  0.00000000000E+00 0. -1.
         23    2    1    2    0    0  0.84959651743E+01  0.12002977378E+02  0.64185135398E+02  0.11420900218E+03  0.93315120333E+02 0.  0.
         23    2    1    2    0    0  0.24633588245E+01  0.13066388822E+02  0.57105186590E+02  0.11134512968E+03  0.94656943293E+02 0.  0.
        -11    1    4    4    0    0 -0.39500690745E+02 -0.12193398594E+02  0.82301473228E+01  0.42151143088E+02  0.00000000000E+00 0.  1.
         11    1    4    4    0    0  0.41964049570E+02  0.25259787417E+02  0.48875039267E+02  0.69193986589E+02  0.00000000000E+00 0. -1.
        -13    1    3    3    0    0 -0.33348072897E+02 -0.64951019905E+01  0.59109592354E+02  0.68177886621E+02  0.00000000000E+00 0.  1.
         13    1    3    3    0    0  0.41844038072E+02  0.18498079368E+02  0.50755430443E+01  0.46031115559E+02  0.00000000000E+00 0. -1.
         21    1    1    2  502  501 -0.10959323999E+02 -0.25069366200E+02 -0.25485028808E+02  0.37390728764E+02  0.00000000000E+00 0.  1.
<scales pt_clust_5="13000.00000" pt_clust_6="13000.00000" pt_clust_7="13000.00000" pt_clust_8="13000.00000" pt_clust_9="27.36019"></scales>
<clustering>
<clus scale="   27.360">  2  9  1 -1</clus>
<clus scale="   93.315">  7  8 -1 -1</clus>
<clus scale="   93.371">  1  7  2 -1</clus>
<clus scale="   94.657">  5  6 -1 -1</clus>
<clus scale="   27.360">  2  5  1 -1</clus>
</clustering>
</event>
<event>
 9    1  0.2423659E-006  0.1503852E+03  0.7546771E-02  0.1212225E+00
          1   -1    0    0  502    0  0.00000000000E+00  0.00000000000E+00  0.17906371897E+03  0.17906371897E+03  0.00000000000E+00 0. -1.
         -1   -1    0    0    0  501 -0.00000000000E+00 -0.00000000000E+00 -0.24915983689E+03  0.24915983689E+03  0.00000000000E+00 0.  1.
         23    2    1    2    0    0 -0.30558626677E+02  0.83540162878E+02 -0.43947161507E+02  0.13553075613E+03  0.92327917636E+02 0.  0.
         23    2    1    2    0    0 -0.42091644319E+02  0.46882602387E+02  0.48959123763E+02  0.12557193543E+03  0.96962004104E+02 0.  0.
        -11    1    4    4    0    0  0.28530273199E+02  0.24426412766E+02  0.15338818900E+01  0.37589611904E+02  0.00000000000E+00 0.  1.
         11    1    4    4    0    0 -0.70621917518E+02  0.22456189621E+02  0.47425241873E+02  0.87982323526E+02  0.00000000000E+00 0. -1.
        -13    1    3    3    0    0 -0.25477296454E+02  0.49884606291E+02 -0.72140593672E+02  0.91333629265E+02  0.00000000000E+00 0.  1.
         13    1    3    3    0    0 -0.50813302226E+01  0.33655556587E+02  0.28193432165E+02  0.44197126867E+02  0.00000000000E+00 0. -1.
         21    1    1    2  502  501  0.72650270996E+02 -0.13042276527E+03 -0.75108080180E+02  0.16712086430E+03  0.00000000000E+00 0. -1.
<scales pt_clust_5="13000.00000" pt_clust_6="13000.00000" pt_clust_7="13000.00000" pt_clust_8="13000.00000" pt_clust_9="118.70660"></scales>
<clustering>
<clus scale="   92.328">  7  8 -1 -1</clus>
<clus scale="   96.962">  5  6 -1 -1</clus>
<clus scale="  115.634">  1  5  2 -1</clus>
<clus scale="  118.707">  1  9  2 -1</clus>
<clus scale="  115.634">  1  5  2 -1</clus>
</clustering>
</event>
<event>
 9    1  0.2423659E-006  0.1781024E+03  0.7546771E-02  0.1194586E+00
          1   -1    0    0  502    0  0.00000000000E+00  0.00000000000E+00  0.24323532106E+03  0.24323532106E+03  0.00000000000E+00 0. -1.
         -1   -1    0    0    0  501 -0.00000000000E+00 -0.00000000000E+00 -0.49338989706E+03  0.49338989706E+03  0.00000000000E+00 0.  1.
         23    2    1    2    0    0  0.79563938717E+02 -0.88146635134E+02 -0.70503238478E+02  0.16528347183E+03  0.90816682351E+02 0.  0.
         23    2    1    2    0    0  0.55043822941E+02 -0.12664675009E+02  0.16152172091E+03  0.19097189266E+03  0.84798473014E+02 0.  0.
        -11    1    4    4    0    0 -0.29492888009E+01  0.29538962219E+02  0.39186570596E+02  0.49161325334E+02  0.00000000000E+00 0.  1.
         11    1    4    4    0    0  0.57993111742E+02 -0.42203637229E+02  0.12233515031E+03  0.14181056733E+03  0.00000000000E+00 0. -1.
        -13    1    3    3    0    0 -0.14958234016E+02 -0.41359307390E+02 -0.18948377707E+02  0.47889269052E+02  0.00000000000E+00 0. -1.
         13    1    3    3    0    0  0.94522172733E+02 -0.46787327745E+02 -0.51554860771E+02  0.11739420277E+03  0.00000000000E+00 0.  1.
         21    1    1    2  502  501 -0.13460776166E+03  0.10081131014E+03 -0.34117305843E+03  0.38036985363E+03  0.00000000000E+00 0.  1.
<scales pt_clust_5="13000.00000" pt_clust_6="13000.00000" pt_clust_7="13000.00000" pt_clust_8="13000.00000" pt_clust_9="153.20828"></scales>
<clustering>
<clus scale="   84.798">  5  6 -1 -1</clus>
<clus scale="   90.817">  7  8 -1 -1</clus>
<clus scale="  101.887">  1  5  2 -1</clus>
<clus scale="  153.208">  2  9  1 -1</clus>
<clus scale="  101.887">  1  5  2 -1</clus>
</clustering>
</event>
<event>
 9    1  0.2423659E-006  0.1551794E+03  0.7546771E-02  0.1199384E+00
          2   -1    0    0  502    0  0.00000000000E+00  0.00000000000E+00  0.82669892276E+02  0.82669892276E+02  0.00000000000E+00 0. -1.
         -2   -1    0    0    0  501 -0.00000000000E+00 -0.00000000000E+00 -0.50586670368E+03  0.50586670368E+03  0.00000000000E+00 0.  1.
         23    2    1    2    0    0 -0.69472707044E+02 -0.35656157915E+02 -0.15147961287E+03  0.19209747256E+03  0.88642806987E+02 0.  0.
         23    2    1    2    0    0  0.12240231183E+03  0.10373038138E+03 -0.22476156089E+03  0.29825320347E+03  0.11267162982E+03 0.  0.
        -11    1    3    3    0    0 -0.10222839835E+02 -0.47961402376E+02 -0.33150806059E+02  0.59192723493E+02  0.00000000000E+00 0. -1.
         11    1    3    3    0    0 -0.59249867208E+02  0.12305244461E+02 -0.11832880681E+03  0.13290474907E+03  0.00000000000E+00 0.  1.
        -11    1    4    4    0    0  0.11081477660E+03  0.22620908904E+02 -0.14515971720E+03  0.18401892221E+03  0.00000000000E+00 0.  1.
         11    1    4    4    0    0  0.11587535230E+02  0.81109472476E+02 -0.79601843687E+02  0.11423428127E+03  0.00000000000E+00 0. -1.
         21    1    1    2  502  501 -0.52929604786E+02 -0.68074223464E+02 -0.46955637654E+02  0.98185919920E+02  0.00000000000E+00 0. -1.
<scales pt_clust_5="13000.00000" pt_clust_6="13000.00000" pt_clust_7="13000.00000" pt_clust_8="13000.00000" pt_clust_9="86.23017"></scales>
<clustering>
<clus scale="   86.230">  1  9  2 -1</clus>
<clus scale="   88.643">  5  6 -1 -1</clus>
<clus scale="  112.672">  7  8 -1 -1</clus>
<clus scale="  138.720">  2  5  1 -1</clus>
<clus scale="   86.230">  1  5  2 -1</clus>
</clustering>
</event>
<event>
 9    1  0.2423659E-006  0.1172285E+03  0.7546771E-02  0.1247820E+00
          1   -1    0    0  502    0  0.00000000000E+00  0.00000000000E+00  0.58575738238E+03  0.58575738238E+03  0.00000000000E+00 0. -1.
         -1   -1    0    0    0  501 -0.00000000000E+00 -0.00000000000E+00 -0.47763274156E+02  0.47763274156E+02  0.00000000000E+00 0.  1.
         23    2    1    2    0    0 -0.35747539109E+02  0.81707450387E+02  0.84664416021E+02  0.15324424509E+03  0.91442557452E+02 0.  0.
         23    2    1    2    0    0  0.11306545228E+01 -0.42195586196E+02  0.23580048528E+03  0.25649421381E+03  0.91682424642E+02 0.  0.
        -11    1    3    3    0    0 -0.51983159920E+02  0.39251731055E+02  0.85862367263E+02  0.10777427067E+03  0.00000000000E+00 0.  1.
         11    1    3    3    0    0  0.16235620811E+02  0.42455719332E+02 -0.11979512420E+01  0.45469974426E+02  0.00000000000E+00 0. -1.
        -13    1    4    4    0    0 -0.40498931088E+02 -0.37237400954E+02  0.97176289572E+02  0.11166923795E+03  0.00000000000E+00 0.  1.
         13    1    4    4    0    0  0.41629585611E+02 -0.49581852425E+01  0.13862419570E+03  0.14482497586E+03  0.00000000000E+00 0. -1.
         21    1    1    2  502  501  0.34616884586E+02 -0.39511864191E+02  0.21752920693E+03  0.22378219763E+03  0.00000000000E+00 0. -1.
<scales pt_clust_5="13000.00000" pt_clust_6="13000.00000" pt_clust_7="13000.00000" pt_clust_8="13000.00000" pt_clust_9="52.53110"></scales>
<clustering>
<clus scale="   52.531">  1  9  2 -1</clus>
<clus scale="   91.443">  5  6 -1 -1</clus>
<clus scale="   91.682">  7  8 -1 -1</clus>
<clus scale="  117.041">  2  5  1 -1</clus>
<clus scale="   52.531">  1  5  2 -1</clus>
</clustering>
</event>
<event>
 9    1  0.2423659E-006  0.1704031E+03  0.7546771E-02  0.1204602E+00
          1   -1    0    0  502    0  0.00000000000E+00  0.00000000000E+00  0.87619140377E+03  0.87619140377E+03  0.00000000000E+00 0. -1.
         -1   -1    0    0    0  501 -0.00000000000E+00 -0.00000000000E+00 -0.17425744654E+03  0.17425744654E+03  0.00000000000E+00 0.  1.
         23    2    1    2    0    0 -0.52141134292E+02  0.13279994315E+03 -0.10347147066E+03  0.19882749670E+03  0.92040781288E+02 0.  0.
         23    2    1    2    0    0  0.79685640867E+01  0.15112599054E+02  0.13893896706E+03  0.16751107045E+03  0.92000182034E+02 0.  0.
        -11    1    4    4    0    0  0.18064577841E+02 -0.35297350542E+02  0.80092034395E+02  0.89369826572E+02  0.00000000000E+00 0.  1.
         11    1    4    4    0    0 -0.10096013754E+02  0.50409949596E+02  0.58846932661E+02  0.78141243883E+02  0.00000000000E+00 0. -1.
        -13    1    3    3    0    0 -0.12745930771E+02  0.45797854719E+02 -0.90790918554E+02  0.10248362376E+03  0.00000000000E+00 0.  1.
         13    1    3    3    0    0 -0.39395203521E+02  0.87002088427E+02 -0.12680552105E+02  0.96343872939E+02  0.00000000000E+00 0. -1.
         21    1    1    2  502  501  0.44172570205E+02 -0.14791254220E+03  0.66646646084E+03  0.68411028316E+03  0.00000000000E+00 0. -1.
<scales pt_clust_5="13000.00000" pt_clust_6="13000.00000" pt_clust_7="13000.00000" pt_clust_8="13000.00000" pt_clust_9="143.40746"></scales>
<clustering>
<clus scale="   92.000">  5  6 -1 -1</clus>
<clus scale="   92.041">  7  8 -1 -1</clus>
<clus scale="   93.573">  1  5  2 -1</clus>
<clus scale="  143.407">  1  9  2 -1</clus>
<clus scale="   93.573">  1  5  2 -1</clus>
</clustering>
</event>
<event>
 9    1  0.2423659E-006  0.9155669E+02  0.7546771E-02  0.1299335E+00
         -2   -1    0    0    0  501 -0.00000000000E+00  0.00000000000E+00  0.92971109579E+02  0.92971109579E+02  0.00000000000E+00 0.  1.
          2   -1    0    0  502    0  0.00000000000E+00 -0.00000000000E+00 -0.43246965982E+03  0.43246965982E+03  0.00000000000E+00 0. -1.
         23    2    1    2    0    0  0.29998961594E+01  0.18273246808E+01  0.50595464121E+02  0.10464476729E+03  0.91532987715E+02 0.  0.
         23    2    1    2    0    0  0.18523372683E+02  0.42417786763E+02 -0.31354842555E+03  0.32980090248E+03  0.91179143153E+02 0.  0.
        -11    1    3    3    0    0  0.34640113512E+02 -0.12322453770E+02 -0.69976566709E+01  0.37426561823E+02  0.00000000000E+00 0. -1.
         11    1    3    3    0    0 -0.31640217352E+02  0.14149778451E+02  0.57593120792E+02  0.67218205472E+02  0.00000000000E+00 0.  1.
        -13    1    4    4    0    0 -0.36979643458E+02  0.15357668269E+02 -0.10830149272E+03  0.11546672824E+03  0.00000000000E+00 0.  1.
         13    1    4    4    0    0  0.55503016141E+02  0.27060118494E+02 -0.20524693282E+03  0.21433417424E+03  0.00000000000E+00 0. -1.
         21    1    1    2  502  501 -0.21523268842E+02 -0.44245111444E+02 -0.76545588820E+02  0.90995099627E+02  0.00000000000E+00 0.  1.
<scales pt_clust_5="13000.00000" pt_clust_6="13000.00000" pt_clust_7="13000.00000" pt_clust_8="13000.00000" pt_clust_9="49.20245"></scales>
<clustering>
<clus scale="   49.202">  2  9  1 -1</clus>
<clus scale="   91.179">  7  8 -1 -1</clus>
<clus scale="   91.203">  2  7  1 -1</clus>
<clus scale="   91.533">  5  6 -1 -1</clus>
<clus scale="   49.202">  2  5  1 -1</clus>
</clustering>
</event>
<event>
 9    1  0.2423659E-006  0.2493789E+03  0.7546771E-02  0.1136962E+00
          4   -1    0    0  502    0  0.00000000000E+00  0.00000000000E+00  0.17711510902E+03  0.17711510902E+03  0.00000000000E+00 0. -1.
         -4   -1    0    0    0  501 -0.00000000000E+00 -0.00000000000E+00 -0.73224078379E+03  0.73224078379E+03  0.00000000000E+00 0.  1.
         23    2    1    2    0    0  0.19489593074E+03 -0.17133689435E+03 -0.51106614728E+03  0.57890587156E+03  0.81256667695E+02 0.  0.
         23    2    1    2    0    0 -0.59169008174E+02  0.77666936081E+02 -0.80412461878E+02  0.16157908109E+03  0.10054109076E+03 0.  0.
        -13    1    4    4    0    0  0.12691388828E+02  0.65957021166E+02 -0.34575163095E+02  0.75543642317E+02  0.00000000000E+00 0.  1.
         13    1    4    4    0    0 -0.71860397002E+02  0.11709914915E+02 -0.45837298784E+02  0.86035438770E+02  0.00000000000E+00 0. -1.
        -13    1    3    3    0    0  0.15352521688E+03 -0.17166415954E+03 -0.42394261212E+03  0.48245819950E+03  0.00000000000E+00 0.  1.
         13    1    3    3    0    0  0.41370713864E+02  0.32726518799E+00 -0.87123535161E+02  0.96447672067E+02  0.00000000000E+00 0. -1.
         21    1    1    2  502  501 -0.13572692257E+03  0.93669958271E+02  0.36352934386E+02  0.16887094016E+03  0.00000000000E+00 0. -1.
<scales pt_clust_5="13000.00000" pt_clust_6="13000.00000" pt_clust_7="13000.00000" pt_clust_8="13000.00000" pt_clust_9="235.76935"></scales>
<clustering>
<clus scale="   81.257">  7  8 -1 -1</clus>
<clus scale="  100.541">  5  6 -1 -1</clus>
<clus scale="  140.149">  1  5  2 -1</clus>
<clus scale="  235.769">  1  9  2 -1</clus>
<clus scale="  140.149">  1  5  2 -1</clus>
</clustering>
</event>
<event>
 9    1  0.2423659E-006  0.9466526E+02  0.7546771E-02  0.1294549E+00
         -4   -1    0    0    0  501 -0.00000000000E+00  0.00000000000E+00  0.36299778977E+02  0.36299778977E+02  0.00000000000E+00 0.  1.
          4   -1    0    0  502    0  0.00000000000E+00 -0.00000000000E+00 -0.34151868321E+03  0.34151868321E+03  0.00000000000E+00 0. -1.
         23    2    1    2    0    0  0.95563231319E+01  0.17651407857E+02 -0.85888647949E+02  0.12276019169E+03  0.85383308121E+02 0.  0.
         23    2    1    2    0    0 -0.33992320833E+02 -0.28142059696E+02 -0.14693558895E+03  0.17793395774E+03  0.90127535296E+02 0.  0.
        -11    1    3    3    0    0 -0.24208260959E+02  0.18463372113E+02  0.25675775405E-01  0.30445634625E+02  0.00000000000E+00 0.  1.
         11    1    3    3    0    0  0.33764584091E+02 -0.81196425669E+00 -0.85914323724E+02  0.92314557063E+02  0.00000000000E+00 0. -1.
        -11    1    4    4    0    0 -0.39630711640E+02  0.11424247766E+02 -0.21965813092E+02  0.46729045431E+02  0.00000000000E+00 0.  1.
         11    1    4    4    0    0  0.56383908069E+01 -0.39566307462E+02 -0.12496977585E+03  0.13120491231E+03  0.00000000000E+00 0. -1.
         21    1    1    2  502  501  0.24435997701E+02  0.10490651840E+02 -0.72394667341E+02  0.77124312762E+02  0.00000000000E+00 0. -1.
<scales pt_clust_5="13000.00000" pt_clust_6="13000.00000" pt_clust_7="13000.00000" pt_clust_8="13000.00000" pt_clust_9="26.59270"></scales>
<clustering>
<clus scale="   26.593">  2  9  1 -1</clus>
<clus scale="   85.383">  5  6 -1 -1</clus>
<clus scale="   90.128">  7  8 -1 -1</clus>
<clus scale="   90.160">  1  5  2 -1</clus>
<clus scale="   26.593">  2  5  1 -1</clus>
</clustering>
</event>
<event>
 9    1  0.2423659E-006  0.1213970E+03  0.7546771E-02  0.1250211E+00
         -2   -1    0    0    0  501 -0.00000000000E+00  0.00000000000E+00  0.49497059923E+02  0.49497059923E+02  0.00000000000E+00 0.  1.
          2   -1    0    0  502    0  0.00000000000E+00 -0.00000000000E+00 -0.70977277364E+03  0.70977277364E+03  0.00000000000E+00 0. -1.
         23    2    1    2    0    0  0.32283803299E+02  0.75247040496E+02 -0.26590787529E+03  0.29195878196E+03  0.88479213173E+02 0.  0.
         23    2    1    2    0    0 -0.34754059422E+02 -0.51721524989E+01 -0.37743758210E+03  0.39517766355E+03  0.11167659370E+03 0.  0.
        -11    1    3    3    0    0 -0.19280508229E+02 -0.87940985956E+01 -0.60686429338E+02  0.64279988126E+02  0.00000000000E+00 0.  1.
         11    1    3    3    0    0  0.51564311528E+02  0.84041139092E+02 -0.20522144595E+03  0.22767879383E+03  0.00000000000E+00 0. -1.
        -13    1    4    4    0    0 -0.71372899643E+02  0.77563829302E+01 -0.17687561928E+03  0.19089064140E+03  0.00000000000E+00 0.  1.
         13    1    4    4    0    0  0.36618840221E+02 -0.12928535429E+02 -0.20056196282E+03  0.20428702214E+03  0.00000000000E+00 0. -1.
         21    1    1    2  502  501  0.24702561231E+01 -0.70074887997E+02 -0.16930256332E+02  0.72133388057E+02  0.00000000000E+00 0.  1.
<scales pt_clust_5="13000.00000" pt_clust_6="13000.00000" pt_clust_7="13000.00000" pt_clust_8="13000.00000" pt_clust_9="70.11841"></scales>
<clustering>
<clus scale="   70.118">  1  9  2 -1</clus>
<clus scale="   88.479">  5  6 -1 -1</clus>
<clus scale="  100.470">  1  5  2 -1</clus>
<clus scale="  111.677">  7  8 -1 -1</clus>
<clus scale="  121.397">  2  5  1 -1</clus>
</clustering>
</event>
<event>
 9    1  0.2423659E-006  0.1061569E+03  0.7546771E-02  0.1270476E+00
         -2   -1    0    0    0  501 -0.00000000000E+00  0.00000000000E+00  0.46459593626E+03  0.46459593626E+03  0.00000000000E+00 0.  1.
          2   -1    0    0  502    0  0.00000000000E+00 -0.00000000000E+00 -0.66680188701E+02  0.66680188701E+02  0.00000000000E+00 0. -1.
         23    2    1    2    0    0 -0.20394953754E+02  0.24598797331E+02  0.31650417232E+03  0.33396834078E+03  0.10168041394E+03 0.  0.
         23    2    1    2    0    0  0.31688911485E+02 -0.57352675277E+00 -0.10332468388E+02  0.10180000100E+03  0.96187131447E+02 0.  0.
        -13    1    3    3    0    0 -0.54817438748E+02  0.18098542124E+02  0.26793945974E+03  0.27408769199E+03  0.00000000000E+00 0.  1.
         13    1    3    3    0    0  0.34422484994E+02  0.65002552079E+01  0.48564712587E+02  0.59880648791E+02  0.00000000000E+00 0. -1.
        -13    1    4    4    0    0 -0.24073354990E+01 -0.21528985009E+02 -0.44296274651E+02  0.49309759761E+02  0.00000000000E+00 0.  1.
         13    1    4    4    0    0  0.34096246984E+02  0.20955458256E+02  0.33963806264E+02  0.52490241236E+02  0.00000000000E+00 0. -1.
         21    1    1    2  502  501 -0.11293957731E+02 -0.24025270579E+02  0.91744043621E+02  0.95507783178E+02  0.00000000000E+00 0.  1.
<scales pt_clust_5="13000.00000" pt_clust_6="13000.00000" pt_clust_7="13000.00000" pt_clust_8="13000.00000" pt_clust_9="26.54745"></scales>
<clustering>
<clus scale="   26.547">  1  9  2 -1</clus>
<clus scale="   96.187">  7  8 -1 -1</clus>
<clus scale="  100.908">  2  7  1 -1</clus>
<clus scale="  101.680">  5  6 -1 -1</clus>
<clus scale="  100.908">  2  5  1 -1</clus>
</clustering>
</event>
<event>
 9    1  0.2423659E-006  0.1098563E+03  0.7546771E-02  0.1262614E+00
         -1   -1    0    0    0  501 -0.00000000000E+00  0.00000000000E+00  0.19932072049E+03  0.19932072049E+03  0.00000000000E+00 0.  1.
          1   -1    0    0  502    0  0.00000000000E+00 -0.00000000000E+00 -0.16117733484E+03  0.16117733484E+03  0.00000000000E+00 0. -1.
         23    2    1    2    0    0  0.42098705983E+02 -0.43003100646E+02  0.48626561668E+02  0.11972162168E+03  0.91362774085E+02 0.  0.
         23    2    1    2    0    0  0.57972624028E+02  0.74346662996E+02 -0.18474585799E+02  0.13560727172E+03  0.95706689353E+02 0.  0.
        -13    1    3    3    0    0  0.40311785409E+02 -0.70600631366E+02  0.31471825865E+02  0.87177778220E+02  0.00000000000E+00 0.  1.
         13    1    3    3    0    0  0.17869205734E+01  0.27597530719E+02  0.17154735803E+02  0.32543843464E+02  0.00000000000E+00 0. -1.
        -13    1    4    4    0    0 -0.22650417263E+02 -0.89530542002E+00  0.41149089024E+01  0.23038564392E+02  0.00000000000E+00 0.  1.
         13    1    4    4    0    0  0.80623041290E+02  0.75241968417E+02 -0.22589494701E+02  0.11256870733E+03  0.00000000000E+00 0. -1.
         21    1    1    2  502  501 -0.10007133001E+03 -0.31343562350E+02  0.79914097728E+01  0.10516916193E+03  0.00000000000E+00 0.  1.
<scales pt_clust_5="13000.00000" pt_clust_6="13000.00000" pt_clust_7="13000.00000" pt_clust_8="13000.00000" pt_clust_9="104.86510"></scales>
<clustering>
<clus scale="   91.363">  5  6 -1 -1</clus>
<clus scale="   95.707">  7  8 -1 -1</clus>
<clus scale="  104.865">  2  9  1 -1</clus>
<clus scale="  106.093">  1  5  2 -1</clus>
<clus scale="  104.865">  2  5  1 -1</clus>
</clustering>
</event>
<event>
 9    1  0.2423659E-006  0.9845558E+02  0.7546771E-02  0.1284188E+00
          2   -1    0    0  502    0  0.00000000000E+00  0.00000000000E+00  0.51587679101E+03  0.51587679101E+03  0.00000000000E+00 0. -1.
         -2   -1    0    0    0  501 -0.00000000000E+00 -0.00000000000E+00 -0.59919429628E+02  0.59919429628E+02  0.00000000000E+00 0.  1.
         23    2    1    2    0    0 -0.36373360442E+02 -0.32421009359E+02  0.97113631058E+01  0.10204471226E+03  0.89132875697E+02 0.  0.
         23    2    1    2    0    0 -0.12124403829E+01 -0.19953500632E+02  0.29940006126E+03  0.31337847155E+03  0.90366241222E+02 0.  0.
        -11    1    4    4    0    0 -0.16372879271E+02 -0.53042844293E+02  0.16238376120E+03  0.17161031556E+03  0.00000000000E+00 0.  1.
         11    1    4    4    0    0  0.15160438889E+02  0.33089343660E+02  0.13701630006E+03  0.14176815599E+03  0.00000000000E+00 0. -1.
        -13    1    3    3    0    0 -0.56707087175E+02 -0.88126127419E+01 -0.18209029181E+02  0.60207346918E+02  0.00000000000E+00 0.  1.
         13    1    3    3    0    0  0.20333726733E+02 -0.23608396617E+02  0.27920392287E+02  0.41837365346E+02  0.00000000000E+00 0. -1.
         21    1    1    2  502  501  0.37585800824E+02  0.52374509991E+02  0.14684593702E+03  0.16037303682E+03  0.00000000000E+00 0.  1.
<scales pt_clust_5="13000.00000" pt_clust_6="13000.00000" pt_clust_7="13000.00000" pt_clust_8="13000.00000" pt_clust_9="64.46535"></scales>
<clustering>
<clus scale="   64.465">  1  9  2 -1</clus>
<clus scale="   89.133">  7  8 -1 -1</clus>
<clus scale="   90.366">  5  6 -1 -1</clus>
<clus scale="   97.325">  2  7  1 -1</clus>
<clus scale="   64.465">  1  5  2 -1</clus>
</clustering>
</event>
<event>
 9    1  0.2423659E-006  0.2067785E+03  0.7546771E-02  0.1144221E+00
         -1   -1    0    0    0  501 -0.00000000000E+00  0.00000000000E+00  0.89601076685E+03  0.89601076685E+03  0.00000000000E+00 0.  1.
          1   -1    0    0  502    0  0.00000000000E+00 -0.00000000000E+00 -0.98005909128E+02  0.98005909128E+02  0.00000000000E+00 0. -1.
         23    2    1    2    0    0 -0.17644736778E+03 -0.58185195030E+02  0.71348701298E+03  0.74302401653E+03  0.92205102524E+02 0.  0.
         23    2    1    2    0    0  0.17944061235E+03  0.26904073476E+02  0.80809659079E+02  0.21935061907E+03  0.93068418678E+02 0.  0.
        -11    1    4    4    0    0  0.22711689379E+02 -0.28607263076E+02  0.23722939334E+02  0.43554267137E+02  0.00000000000E+00 0.  1.
         11    1    4    4    0    0  0.15672892297E+03  0.55511336552E+02  0.57086719745E+02  0.17579635193E+03  0.00000000000E+00 0. -1.
        -13    1    3    3    0    0 -0.93128258990E+02  0.10634903329E+02  0.41841557205E+03  0.42878615268E+03  0.00000000000E+00 0.  1.
         13    1    3    3    0    0 -0.83319108790E+02 -0.68820098359E+02  0.29507144093E+03  0.31423786385E+03  0.00000000000E+00 0. -1.
         21    1    1    2  502  501 -0.29932445690E+01  0.31281121554E+02  0.37081856680E+01  0.31642040384E+02  0.00000000000E+00 0.  1.
<scales pt_clust_5="13000.00000" pt_clust_6="13000.00000" pt_clust_7="13000.00000" pt_clust_8="13000.00000" pt_clust_9="31.42400"></scales>
<clustering>
<clus scale="   31.424">  2  9  1 -1</clus>
<clus scale="   92.205">  7  8 -1 -1</clus>
<clus scale="   93.068">  5  6 -1 -1</clus>
<clus scale="  206.391">  1  7  2 -1</clus>
<clus scale="   31.424">  2  5  1 -1</clus>
</clustering>
</event>
<event>
 9    1  0.2423659E-006  0.9619081E+02  0.7546771E-02  0.1290439E+00
          1   -1    0    0  502    0  0.00000000000E+00  0.00000000000E+00  0.15577280612E+03  0.15577280612E+03  0.00000000000E+00 0. -1.
         -1   -1    0    0    0  501 -0.00000000000E+00 -0.00000000000E+00 -0.12249941057E+03  0.12249941057E+03  0.00000000000E+00 0.  1.
         23    2    1    2    0    0  0.80615200150E+01 -0.32336593946E+02  0.14945621967E+02  0.10024648693E+03  0.93356002018E+02 0.  0.
         23    2    1    2    0    0  0.45542782857E+02 -0.96589948430E+01  0.36459983330E+02  0.10755709990E+03  0.89842963566E+02 0.  0.
        -11    1    3    3    0    0 -0.40201057784E+02 -0.19677474594E+02 -0.77628313587E+01  0.45426749873E+02  0.00000000000E+00 0.  1.
         11    1    3    3    0    0  0.48262577799E+02 -0.12659119352E+02  0.22708453325E+02  0.54819737057E+02  0.00000000000E+00 0. -1.
        -13    1    4    4    0    0  0.18088091408E+02  0.34503594493E+02  0.39484857561E+02  0.55468288781E+02  0.00000000000E+00 0. -1.
         13    1    4    4    0    0  0.27454691449E+02 -0.44162589336E+02 -0.30248742309E+01  0.52088811116E+02  0.00000000000E+00 0.  1.
         21    1    1    2  502  501 -0.53604302872E+02  0.41995588789E+02 -0.18132209750E+02  0.70468629861E+02  0.00000000000E+00 0.  1.
<scales pt_clust_5="13000.00000" pt_clust_6="13000.00000" pt_clust_7="13000.00000" pt_clust_8="13000.00000" pt_clust_9="68.09589"></scales>
<clustering>
<clus scale="   68.096">  2  9  1 -1</clus>
<clus scale="   89.843">  7  8 -1 -1</clus>
<clus scale="   92.785">  1  7  2 -1</clus>
<clus scale="   93.356">  5  6 -1 -1</clus>
<clus scale="   92.785">  1  5  2 -1</clus>
</clustering>
</event>
<event>
 9    1  0.2423659E-006  0.9830196E+02  0.7546771E-02  0.1287779E+00
          1   -1    0    0  502    0  0.00000000000E+00  0.00000000000E+00  0.15874321102E+03  0.15874321102E+03  0.00000000000E+00 0. -1.
         -1   -1    0    0    0  501 -0.00000000000E+00 -0.00000000000E+00 -0.18858832196E+03  0.18858832196E+03  0.00000000000E+00 0.  1.
         23    2    1    2    0    0  0.25030851299E+02 -0.72557286793E+01 -0.60204364664E+02  0.11758964304E+03  0.97588777581E+02 0.  0.
         23    2    1    2    0    0  0.55533691720E+01  0.12638780261E+02  0.11063289979E+03  0.14367081444E+03  0.90615041410E+02 0.  0.
        -11    1    4    4    0    0 -0.30426566433E+02 -0.23580841994E+02  0.63102758104E+02  0.73917454869E+02  0.00000000000E+00 0. -1.
         11    1    4    4    0    0  0.35979935605E+02  0.36219622255E+02  0.47530141683E+02  0.69753359566E+02  0.00000000000E+00 0.  1.
        -13    1    3    3    0    0 -0.30463528094E+02 -0.69021188283E+01  0.53595881952E+01  0.31692127948E+02  0.00000000000E+00 0. -1.
         13    1    3    3    0    0  0.55494379392E+02 -0.35360985094E+00 -0.65563952859E+02  0.85897515089E+02  0.00000000000E+00 0.  1.
         21    1    1    2  502  501 -0.30584220471E+02 -0.53830515818E+01 -0.80273646063E+02  0.86071075503E+02  0.00000000000E+00 0.  1.
<scales pt_clust_5="13000.00000" pt_clust_6="13000.00000" pt_clust_7="13000.00000" pt_clust_8="13000.00000" pt_clust_9="31.05434"></scales>
<clustering>
<clus scale="   31.054">  2  9  1 -1</clus>
<clus scale="   90.615">  5  6 -1 -1</clus>
<clus scale="   91.383">  1  5  2 -1</clus>
<clus scale="   97.589">  7  8 -1 -1</clus>
<clus scale="   91.383">  1  5  2 -1</clus>
</clustering>
</event>
<event>
 9    1  0.2852802E-006  0.1968331E+03  0.7546771E-02  0.1178813E+00
         -3   -1    0    0    0  501 -0.00000000000E+00  0.00000000000E+00  0.20854481360E+03  0.20854481360E+03  0.00000000000E+00 0.  1.
          3   -1    0    0  502    0  0.00000000000E+00 -0.00000000000E+00 -0.82886790435E+03  0.82886790435E+03  0.00000000000E+00 0. -1.
         23    2    1    2    0    0  0.24811912306E+01 -0.12521803724E+03 -0.52034558502E+03  0.54269858106E+03  0.89869398996E+02 0.  0.
         23    2    1    2    0    0  0.26381254431E+02 -0.51711018396E+02 -0.24287167833E+03  0.26546388920E+03  0.90080099489E+02 0.  0.
        -11    1    4    4    0    0  0.49630308794E+02 -0.52039604865E+02 -0.22478093316E+03  0.23600372018E+03  0.00000000000E+00 0.  1.
         11    1    4    4    0    0 -0.23249054363E+02  0.32858646839E+00 -0.18090745170E+02  0.29460169019E+02  0.00000000000E+00 0. -1.
        -11    1    3    3    0    0 -0.26925966972E+02 -0.55274106113E+01 -0.14661565967E+03  0.14917007617E+03  0.00000000000E+00 0.  1.
         11    1    3    3    0    0  0.29407158202E+02 -0.11969062663E+03 -0.37372992535E+03  0.39352850489E+03  0.00000000000E+00 0. -1.
         21    1    1    2  502  501 -0.28862445661E+02  0.17692905564E+03  0.14289417261E+03  0.22925024769E+03  0.00000000000E+00 0.  1.
<scales pt_clust_5="13000.00000" pt_clust_6="13000.00000" pt_clust_7="13000.00000" pt_clust_8="13000.00000" pt_clust_9="175.11927"></scales>
<clustering>
<clus scale="   89.869">  7  8 -1 -1</clus>
<clus scale="   90.080">  5  6 -1 -1</clus>
<clus scale="  107.165">  2  5  1 -1</clus>
<clus scale="  175.119">  1  9  2 -1</clus>
<clus scale="  107.165">  2  5  1 -1</clus>
</clustering>
</event>
<event>
 9    1  0.2423659E-006  0.9127820E+02  0.7546771E-02  0.1301618E+00
          2   -1    0    0  502    0  0.00000000000E+00  0.00000000000E+00  0.70845109954E+03  0.70845109954E+03  0.00000000000E+00 0. -1.
         -2   -1    0    0    0  501 -0.00000000000E+00 -0.00000000000E+00 -0.22718213017E+02  0.22718213017E+02  0.00000000000E+00 0.  1.
         23    2    1    2    0    0  0.10556462834E+02  0.18769373880E+02  0.15403335521E+03  0.17987618998E+03  0.90362829198E+02 0.  0.
         23    2    1    2    0    0  0.11788290605E+02  0.22891583810E+02  0.42423951305E+03  0.43389389376E+03  0.87302681541E+02 0.  0.
        -11    1    3    3    0    0 -0.38459970441E+02 -0.80707408167E+00  0.48716956252E+02  0.62073847322E+02  0.00000000000E+00 0.  1.
         11    1    3    3    0    0  0.49016433276E+02  0.19576447962E+02  0.10531639896E+03  0.11780234266E+03  0.00000000000E+00 0. -1.
        -13    1    4    4    0    0 -0.29603763397E+02 -0.15779716461E+02  0.18701497716E+03  0.18999995774E+03  0.00000000000E+00 0.  1.
         13    1    4    4    0    0  0.41392054002E+02  0.38671300271E+02  0.23722453589E+03  0.24389393602E+03  0.00000000000E+00 0. -1.
         21    1    1    2  502  501 -0.22344753439E+02 -0.41660957690E+02  0.10746001826E+03  0.11739922882E+03  0.00000000000E+00 0. -1.
<scales pt_clust_5="13000.00000" pt_clust_6="13000.00000" pt_clust_7="13000.00000" pt_clust_8="13000.00000" pt_clust_9="47.27498"></scales>
<clustering>
<clus scale="   47.275">  2  9  1 -1</clus>
<clus scale="   87.303">  7  8 -1 -1</clus>
<clus scale="   88.250">  1  7  2 -1</clus>
<clus scale="   90.363">  5  6 -1 -1</clus>
<clus scale="   88.250">  1  5  2 -1</clus>
</clustering>
</event>
<event>
 9    1  0.2423659E-006  0.9381247E+02  0.7546771E-02  0.1294944E+00
         -1   -1    0    0    0  501 -0.00000000000E+00  0.00000000000E+00  0.59657756487E+02  0.59657756487E+02  0.00000000000E+00 0.  1.
          1   -1    0    0  502    0  0.00000000000E+00 -0.00000000000E+00 -0.27593957032E+03  0.27593957032E+03  0.00000000000E+00 0. -1.
         23    2    1    2    0    0 -0.88104128142E+01  0.11117878377E+02 -0.32722255011E+02  0.98571427136E+02  0.91893142731E+02 0.  0.
         23    2    1    2    0    0 -0.44424130849E+01  0.10927999442E+02 -0.62549176010E+02  0.11331183066E+03  0.93744414992E+02 0.  0.
        -11    1    3    3    0    0 -0.39630662313E+02  0.27068756768E+02 -0.40741356857E+02  0.62953674610E+02  0.00000000000E+00 0. -1.
         11    1    3    3    0    0  0.30820249498E+02 -0.15950878391E+02  0.80191018465E+01  0.35617752526E+02  0.00000000000E+00 0.  1.
        -13    1    4    4    0    0 -0.18284690156E+02 -0.20859386330E+02 -0.72181627433E+02  0.77328075309E+02  0.00000000000E+00 0.  1.
         13    1    4    4    0    0  0.13842277072E+02  0.31787385772E+02  0.96324514225E+01  0.35983755351E+02  0.00000000000E+00 0. -1.
         21    1    1    2  502  501  0.13252825899E+02 -0.22045877820E+02 -0.12101038281E+03  0.12371406901E+03  0.00000000000E+00 0. -1.
<scales pt_clust_5="13000.00000" pt_clust_6="13000.00000" pt_clust_7="13000.00000" pt_clust_8="13000.00000" pt_clust_9="25.72272"></scales>
<clustering>
<clus scale="   25.723">  2  9  1 -1</clus>
<clus scale="   91.893">  5  6 -1 -1</clus>
<clus scale="   91.963">  1  5  2 -1</clus>
<clus scale="   93.744">  7  8 -1 -1</clus>
<clus scale="   25.723">  2  5  1 -1</clus>
</clustering>
</event>
<event>
 9    1  0.2423659E-006  0.2129214E+03  0.7546771E-02  0.1167006E+00
         -1   -1    0    0    0  501 -0.00000000000E+00  0.00000000000E+00  0.56734915596E+03  0.56734915596E+03  0.00000000000E+00 0.  1.
          1   -1    0    0  502    0  0.00000000000E+00 -0.00000000000E+00 -0.15125592109E+04  0.15125592109E+04  0.00000000000E+00 0. -1.
         23    2    1    2    0    0 -0.20727890344E+02  0.19216401308E+03  0.52745701411E+03  0.56898080374E+03  0.90396902225E+02 0.  0.
         23    2    1    2    0    0 -0.52747501621E+02 -0.36818505507E+02 -0.21776674934E+03  0.24431567611E+03  0.90165909296E+02 0.  0.
        -11    1    4    4    0    0 -0.43201338765E+02  0.22104991127E+02 -0.72281603252E+02  0.87060992830E+02  0.00000000000E+00 0. -1.
         11    1    4    4    0    0 -0.95461628560E+01 -0.58923496634E+02 -0.14548514609E+03  0.15725468328E+03  0.00000000000E+00 0.  1.
        -13    1    3    3    0    0 -0.30426492326E+02  0.33105031593E+02  0.19756284409E+03  0.20261488572E+03  0.00000000000E+00 0. -1.
         13    1    3    3    0    0  0.96986019828E+01  0.15905898149E+03  0.32989417002E+03  0.36636591802E+03  0.00000000000E+00 0.  1.
         21    1    1    2  502  501  0.73475391965E+02 -0.15534550757E+03 -0.12549003197E+04  0.12666118871E+04  0.00000000000E+00 0. -1.
<scales pt_clust_5="13000.00000" pt_clust_6="13000.00000" pt_clust_7="13000.00000" pt_clust_8="13000.00000" pt_clust_9="192.77945"></scales>
<clustering>
<clus scale="   90.166">  5  6 -1 -1</clus>
<clus scale="   90.397">  7  8 -1 -1</clus>
<clus scale="  110.760">  2  5  1 -1</clus>
<clus scale="  192.779">  2  9  1 -1</clus>
<clus scale="  110.760">  2  5  1 -1</clus>
</clustering>
</event>
<event>
 9    1  0.2423659E-006  0.1010915E+03  0.7546771E-02  0.1279350E+00
          1   -1    0    0  502    0  0.00000000000E+00  0.00000000000E+00  0.69959992607E+02  0.69959992607E+02  0.00000000000E+00 0. -1.
         -1   -1    0    0    0  501 -0.00000000000E+00 -0.00000000000E+00 -0.53270340919E+03  0.53270340919E+03  0.00000000000E+00 0.  1.
         23    2    1    2    0    0  0.36089482228E+02 -0.12113510539E+02 -0.31923169112E+03  0.33462280336E+03  0.92813576857E+02 0.  0.
         23    2    1    2    0    0  0.17317997238E+01  0.97636116229E+02 -0.86786533712E+02  0.15866823981E+03  0.90043864690E+02 0.  0.
        -13    1    3    3    0    0  0.35020931043E+02  0.34593091152E+02 -0.21227517437E+03  0.21790800174E+03  0.00000000000E+00 0.  1.
         13    1    3    3    0    0  0.10685511844E+01 -0.46706601691E+02 -0.10695651674E+03  0.11671480162E+03  0.00000000000E+00 0. -1.
        -13    1    4    4    0    0  0.19528928403E+02  0.10747600078E+03 -0.58748531314E+02  0.12403168837E+03  0.00000000000E+00 0.  1.
         13    1    4    4    0    0 -0.17797128679E+02 -0.98398845521E+01 -0.28038002398E+02  0.34636551440E+02  0.00000000000E+00 0. -1.
         21    1    1    2  502  501 -0.37821281952E+02 -0.85522605690E+02 -0.56725191756E+02  0.10937235863E+03  0.00000000000E+00 0. -1.
<scales pt_clust_5="13000.00000" pt_clust_6="13000.00000" pt_clust_7="13000.00000" pt_clust_8="13000.00000" pt_clust_9="93.51238"></scales>
<clustering>
<clus scale="   90.044">  7  8 -1 -1</clus>
<clus scale="   92.814">  5  6 -1 -1</clus>
<clus scale="   93.512">  1  9  2 -1</clus>
<clus scale="   98.555">  1  7  2 -1</clus>
<clus scale="   93.512">  1  5  2 -1</clus>
</clustering>
</event>
<event>
 9    1  0.2423659E-006  0.9839329E+02  0.7546771E-02  0.1285930E+00
         -1   -1    0    0    0  501 -0.00000000000E+00  0.00000000000E+00  0.96548715668E+02  0.96548715668E+02  0.00000000000E+00 0.  1.
          1   -1    0    0  502    0  0.00000000000E+00 -0.00000000000E+00 -0.18593352676E+03  0.18593352676E+03  0.00000000000E+00 0. -1.
         23    2    1    2    0    0  0.34989829358E+01  0.23467448966E+02 -0.57060631328E+01  0.97031506309E+02  0.93912672295E+02 0.  0.
         23    2    1    2    0    0 -0.38946381814E+02 -0.17430531299E+02 -0.55711032427E+01  0.99463721835E+02  0.89673578562E+02 0.  0.
        -11    1    3    3    0    0  0.67359200996E+01 -0.33397506931E+02 -0.18336326345E+02  0.38690915635E+02  0.00000000000E+00 0.  1.
         11    1    3    3    0    0 -0.32369371638E+01  0.56864955897E+02  0.12630263213E+02  0.58340590674E+02  0.00000000000E+00 0. -1.
        -13    1    4    4    0    0 -0.65523646725E+02 -0.21252474487E+02  0.80550119881E+01  0.69353436613E+02  0.00000000000E+00 0.  1.
         13    1    4    4    0    0  0.26577264911E+02  0.38219431876E+01 -0.13626115231E+02  0.30110285222E+02  0.00000000000E+00 0. -1.
         21    1    1    2  502  501  0.35447398878E+02 -0.60369176671E+01 -0.78107644714E+02  0.85987014281E+02  0.00000000000E+00 0.  1.
<scales pt_clust_5="13000.00000" pt_clust_6="13000.00000" pt_clust_7="13000.00000" pt_clust_8="13000.00000" pt_clust_9="35.95779"></scales>
<clustering>
<clus scale="   35.958">  2  9  1 -1</clus>
<clus scale="   89.674">  7  8 -1 -1</clus>
<clus scale="   93.913">  5  6 -1 -1</clus>
<clus scale="   94.356">  2  7  1 -1</clus>
<clus scale="   35.958">  2  5  1 -1</clus>
</clustering>
</event>
<event>
 9    1  0.2423659E-006  0.1604202E+03  0.7546771E-02  0.1188690E+00
          2   -1    0    0  502    0  0.00000000000E+00  0.00000000000E+00  0.29471281715E+03  0.29471281715E+03  0.00000000000E+00 0. -1.
         -2   -1    0    0    0  501 -0.00000000000E+00 -0.00000000000E+00 -0.26641626726E+03  0.26641626726E+03  0.00000000000E+00 0.  1.
         23    2    1    2    0    0 -0.87031051697E+02  0.14293624781E+03 -0.55434708819E+02  0.19930043312E+03  0.92964943952E+02 0.  0.
         23    2    1    2    0    0  0.13730960666E+03 -0.42093706689E+01  0.12746237381E+03  0.20792774174E+03  0.90086859003E+02 0.  0.
        -11    1    4    4    0    0  0.12155302997E+03 -0.37694838903E+02  0.97940157935E+02  0.16058740458E+03  0.00000000000E+00 0.  1.
         11    1    4    4    0    0  0.15756576692E+02  0.33485468234E+02  0.29522215876E+02  0.47340337157E+02  0.00000000000E+00 0. -1.
        -13    1    3    3    0    0 -0.87957925116E+02  0.63283763540E+02 -0.50338546008E+02  0.11947970762E+03  0.00000000000E+00 0.  1.
         13    1    3    3    0    0  0.92687341908E+00  0.79652484271E+02 -0.50961628112E+01  0.79820725505E+02  0.00000000000E+00 0. -1.
         21    1    1    2  502  501 -0.50278554966E+02 -0.13872687714E+03 -0.43731115107E+02  0.15390090955E+03  0.00000000000E+00 0.  1.
<scales pt_clust_5="13000.00000" pt_clust_6="13000.00000" pt_clust_7="13000.00000" pt_clust_8="13000.00000" pt_clust_9="147.55704"></scales>
<clustering>
<clus scale="   90.087">  5  6 -1 -1</clus>
<clus scale="   92.965">  7  8 -1 -1</clus>
<clus scale="  147.557">  2  9  1 -1</clus>
<clus scale="  158.770">  1  5  2 -1</clus>
<clus scale="  158.770">  1  5  2 -1</clus>
</clustering>
</event>
<event>
 9    1  0.2423659E-006  0.1085161E+03  0.7546771E-02  0.1266842E+00
          1   -1    0    0  502    0  0.00000000000E+00  0.00000000000E+00  0.68453540899E+02  0.68453540899E+02  0.00000000000E+00 0. -1.
         -1   -1    0    0    0  501 -0.00000000000E+00 -0.00000000000E+00 -0.56345038595E+03  0.56345038595E+03  0.00000000000E+00 0.  1.
         23    2    1    2    0    0  0.70868050385E+02 -0.28417041277E+02 -0.31649747605E+03  0.33807778673E+03  0.91083086985E+02 0.  0.
         23    2    1    2    0    0  0.37283303963E+02  0.58588204299E+02 -0.12655250732E+03  0.17011077743E+03  0.89997316916E+02 0.  0.
        -11    1    3    3    0    0  0.92124433426E+02 -0.23731815845E+02 -0.23031136696E+03  0.24918554546E+03  0.00000000000E+00 0.  1.
         11    1    3    3    0    0 -0.21256383041E+02 -0.46852254325E+01 -0.86186109092E+02  0.88892241268E+02  0.00000000000E+00 0. -1.
        -11    1    4    4    0    0  0.27495030263E+02  0.12655418480E+02 -0.11869553095E+03  0.12249394015E+03  0.00000000000E+00 0. -1.
         11    1    4    4    0    0  0.97882736995E+01  0.45932785820E+02 -0.78569763730E+01  0.47616837284E+02  0.00000000000E+00 0.  1.
         21    1    1    2  502  501 -0.10815135435E+03 -0.30171163022E+02 -0.51946861675E+02  0.12371536268E+03  0.00000000000E+00 0. -1.
<scales pt_clust_5="13000.00000" pt_clust_6="13000.00000" pt_clust_7="13000.00000" pt_clust_8="13000.00000" pt_clust_9="112.28096"></scales>
<clustering>
<clus scale="   89.997">  7  8 -1 -1</clus>
<clus scale="   91.083">  5  6 -1 -1</clus>
<clus scale="  112.281">  1  9  2 -1</clus>
<clus scale="  112.281">  1  7  2 -1</clus>
<clus scale="  108.516">  1  5  2 -1</clus>
</clustering>
</event>
<event>
 9    1  0.2423659E-006  0.9551181E+02  0.7546771E-02  0.1290509E+00
          2   -1    0    0  502    0  0.00000000000E+00  0.00000000000E+00  0.17929516241E+03  0.17929516241E+03  0.00000000000E+00 0. -1.
         -2   -1    0    0    0  501 -0.00000000000E+00 -0.00000000000E+00 -0.20527832693E+03  0.20527832693E+03  0.00000000000E+00 0.  1.
         23    2    1    2    0    0  0.50350514900E+02  0.22787165215E+01 -0.46058238715E+02  0.11361104497E+03  0.90806064150E+02 0.  0.
         23    2    1    2    0    0  0.92539098248E+01  0.36659085582E+02  0.11596875592E+03  0.15152862137E+03  0.89903544654E+02 0.  0.
        -11    1    4    4    0    0  0.44502824506E+02  0.15371979032E+02  0.93339972486E+02  0.10454257311E+03  0.00000000000E+00 0. -1.
         11    1    4    4    0    0 -0.35248914681E+02  0.21287106549E+02  0.22628783437E+02  0.46986048262E+02  0.00000000000E+00 0.  1.
        -13    1    3    3    0    0  0.57002138910E+01  0.39205388301E+02 -0.38706330054E-01  0.39617627496E+02  0.00000000000E+00 0. -1.
         13    1    3    3    0    0  0.44650301009E+02 -0.36926671779E+02 -0.46019532385E+02  0.73993417476E+02  0.00000000000E+00 0.  1.
         21    1    1    2  502  501 -0.59604424724E+02 -0.38937802103E+02 -0.95893681731E+02  0.11943382300E+03  0.00000000000E+00 0.  1.
<scales pt_clust_5="13000.00000" pt_clust_6="13000.00000" pt_clust_7="13000.00000" pt_clust_8="13000.00000" pt_clust_9="71.19579"></scales>
<clustering>
<clus scale="   71.196">  2  9  1 -1</clus>
<clus scale="   89.904">  5  6 -1 -1</clus>
<clus scale="   90.806">  7  8 -1 -1</clus>
<clus scale="   94.654">  1  5  2 -1</clus>
<clus scale="   94.654">  1  5  2 -1</clus>
</clustering>
</event>
<event>
 9    1  0.2423659E-006  0.9976106E+02  0.7546771E-02  0.1283497E+00
         -1   -1    0    0    0  501 -0.00000000000E+00  0.00000000000E+00  0.57744370495E+02  0.57744370495E+02  0.00000000000E+00 0.  1.
          1   -1    0    0  502    0  0.00000000000E+00 -0.00000000000E+00 -0.27288349254E+03  0.27288349254E+03  0.00000000000E+00 0. -1.
         23    2    1    2    0    0  0.18596352128E+01 -0.37524673413E+02 -0.37193413413E+02  0.10586714739E+03  0.91722099499E+02 0.  0.
         23    2    1    2    0    0 -0.33649245419E+01 -0.26000994475E+01 -0.12016758915E+03  0.15440039740E+03  0.96856336920E+02 0.  0.
        -11    1    3    3    0    0  0.23496414898E+01  0.28964071192E+02  0.12072932628E+01  0.29084287720E+02  0.00000000000E+00 0. -1.
         11    1    3    3    0    0 -0.49000627708E+00 -0.66488744605E+02 -0.38400706676E+02  0.76782859666E+02  0.00000000000E+00 0.  1.
        -13    1    4    4    0    0 -0.29886496014E+02 -0.75038279138E+01  0.43656894283E+00  0.30817213856E+02  0.00000000000E+00 0.  1.
         13    1    4    4    0    0  0.26521571472E+02  0.49037284663E+01 -0.12060415809E+03  0.12358318355E+03  0.00000000000E+00 0. -1.
         21    1    1    2  502  501  0.15052893292E+01  0.40124772860E+02 -0.57778119483E+02  0.70360318249E+02  0.00000000000E+00 0. -1.
<scales pt_clust_5="13000.00000" pt_clust_6="13000.00000" pt_clust_7="13000.00000" pt_clust_8="13000.00000" pt_clust_9="40.15300"></scales>
<clustering>
<clus scale="   40.153">  2  9  1 -1</clus>
<clus scale="   91.722">  5  6 -1 -1</clus>
<clus scale="   94.784">  1  5  2 -1</clus>
<clus scale="   96.856">  7  8 -1 -1</clus>
<clus scale="   40.153">  2  5  1 -1</clus>
</clustering>
</event>
<event>
 9    1  0.2423659E-006  0.3324204E+03  0.7546771E-02  0.1091492E+00
          2   -1    0    0  502    0  0.00000000000E+00  0.00000000000E+00  0.60603329451E+03  0.60603329451E+03  0.00000000000E+00 0.  1.
         -2   -1    0    0    0  501 -0.00000000000E+00 -0.00000000000E+00 -0.45743470936E+03  0.45743470936E+03  0.00000000000E+00 0. -1.
         23    2    1    2    0    0 -0.35081221427E+03  0.52026378057E+02 -0.26806629805E+03  0.45024115183E+03  0.71285348776E+02 0.  0.
         23    2    1    2    0    0  0.16304130018E+03  0.27480107793E+01  0.43366298841E+02  0.19178885786E+03  0.91171887110E+02 0.  0.
        -11    1    4    4    0    0  0.82282186766E+02  0.12845889564E+02  0.67169817022E+02  0.10699139898E+03  0.00000000000E+00 0.  1.
         11    1    4    4    0    0  0.80759113411E+02 -0.10097878785E+02 -0.23803518181E+02  0.84797458881E+02  0.00000000000E+00 0. -1.
        -11    1    3    3    0    0 -0.13924350782E+02  0.17201320516E+02 -0.24846417728E+02  0.33273374432E+02  0.00000000000E+00 0.  1.
         11    1    3    3    0    0 -0.33688786349E+03  0.34825057541E+02 -0.24321988032E+03  0.41696777739E+03  0.00000000000E+00 0. -1.
         21    1    1    2  502  501  0.18777091410E+03 -0.54774388837E+02  0.37329858436E+03  0.42143799418E+03  0.00000000000E+00 0.  1.
<scales pt_clust_5="13000.00000" pt_clust_6="13000.00000" pt_clust_7="13000.00000" pt_clust_8="13000.00000" pt_clust_9="324.68715"></scales>
<clustering>
<clus scale="   71.285">  7  8 -1 -1</clus>
<clus scale="   91.172">  5  6 -1 -1</clus>
<clus scale="  186.822">  1  5  2 -1</clus>
<clus scale="  324.687">  1  9  2 -1</clus>
<clus scale="  186.822">  1  5  2 -1</clus>
</clustering>
</event>
<event>
 9    1  0.2423659E-006  0.1278767E+03  0.7546771E-02  0.1245002E+00
          1   -1    0    0  502    0  0.00000000000E+00  0.00000000000E+00  0.30948186126E+03  0.30948186126E+03  0.00000000000E+00 0. -1.
         -1   -1    0    0    0  501 -0.00000000000E+00 -0.00000000000E+00 -0.92329446854E+02  0.92329446854E+02  0.00000000000E+00 0.  1.
         23    2    1    2    0    0  0.30829598965E+02 -0.48118452638E+02  0.11639952775E+03  0.18062801356E+03  0.12574489877E+03 0.  0.
         23    2    1    2    0    0  0.20134959310E+02  0.10247014072E+02  0.12149026161E+03  0.15438755533E+03  0.92548450501E+02 0.  0.
        -11    1    4    4    0    0  0.48162868251E+02 -0.42463767384E+01  0.11110431656E+03  0.12116873670E+03  0.00000000000E+00 0.  1.
         11    1    4    4    0    0 -0.28027908940E+02  0.14493390811E+02  0.10385945046E+02  0.33218818631E+02  0.00000000000E+00 0. -1.
        -11    1    3    3    0    0  0.23831950947E+02  0.29902273240E+02  0.90297247670E+02  0.98059679622E+02  0.00000000000E+00 0. -1.
         11    1    3    3    0    0  0.69976480182E+01 -0.78020725878E+02  0.26102280078E+02  0.82568333940E+02  0.00000000000E+00 0.  1.
         21    1    1    2  502  501 -0.50964558275E+02  0.37871438566E+02 -0.20737374948E+02  0.66795739228E+02  0.00000000000E+00 0.  1.
<scales pt_clust_5="13000.00000" pt_clust_6="13000.00000" pt_clust_7="13000.00000" pt_clust_8="13000.00000" pt_clust_9="63.49513"></scales>
<clustering>
<clus scale="   63.495">  2  9  1 -1</clus>
<clus scale="   92.548">  5  6 -1 -1</clus>
<clus scale="   95.425">  1  5  2 -1</clus>
<clus scale="  125.745">  7  8 -1 -1</clus>
<clus scale="   95.425">  1  5  2 -1</clus>
</clustering>
</event>
<event>
 9    1  0.2423659E-006  0.9725331E+02  0.7546771E-02  0.1287636E+00
         -3   -1    0    0    0  501 -0.00000000000E+00  0.00000000000E+00  0.46615351608E+02  0.46615351608E+02  0.00000000000E+00 0.  1.
          3   -1    0    0  502    0  0.00000000000E+00 -0.00000000000E+00 -0.34920803844E+03  0.34920803844E+03  0.00000000000E+00 0. -1.
         23    2    1    2    0    0 -0.63422572855E+01  0.16821115721E+02 -0.13438156533E+03  0.16339742152E+03  0.91198344810E+02 0.  0.
         23    2    1    2    0    0  0.27910211323E+02 -0.40376171188E+02 -0.17275591008E+03  0.20016651437E+03  0.88390123394E+02 0.  0.
        -13    1    4    4    0    0 -0.13688223440E+02 -0.48492948360E+02 -0.13231724437E+03  0.14158667543E+03  0.00000000000E+00 0.  1.
         13    1    4    4    0    0  0.41598434763E+02  0.81167771727E+01 -0.40438665708E+02  0.58579838944E+02  0.00000000000E+00 0. -1.
        -13    1    3    3    0    0 -0.26705401986E+02  0.16947272491E+02 -0.13896956779E+03  0.14252343426E+03  0.00000000000E+00 0. -1.
         13    1    3    3    0    0  0.20363144700E+02 -0.12615677006E+00  0.45880024595E+01  0.20873987261E+02  0.00000000000E+00 0.  1.
         21    1    1    2  502  501 -0.21567954037E+02  0.23555055466E+02  0.45447885773E+01  0.32259454158E+02  0.00000000000E+00 0.  1.
<scales pt_clust_5="13000.00000" pt_clust_6="13000.00000" pt_clust_7="13000.00000" pt_clust_8="13000.00000" pt_clust_9="31.93771"></scales>
<clustering>
<clus scale="   31.938">  1  9  2 -1</clus>
<clus scale="   88.390">  5  6 -1 -1</clus>
<clus scale="   91.198">  7  8 -1 -1</clus>
<clus scale="   94.625">  2  5  1 -1</clus>
<clus scale="   94.625">  2  5  1 -1</clus>
</clustering>
</event>
<event>
 9    1  0.2423659E-006  0.1463456E+03  0.7546771E-02  0.1207342E+00
          2   -1    0    0  502    0  0.00000000000E+00  0.00000000000E+00  0.41684668804E+03  0.41684668804E+03  0.00000000000E+00 0. -1.
         -2   -1    0    0    0  501 -0.00000000000E+00 -0.00000000000E+00 -0.88369053933E+02  0.88369053933E+02  0.00000000000E+00 0.  1.
         23    2    1    2    0    0  0.13912769123E+03 -0.13492373516E+02  0.13659590454E+03  0.21525058350E+03  0.90198746960E+02 0.  0.
         23    2    1    2    0    0 -0.87993249396E+02 -0.13422659222E+02  0.18920679866E+03  0.23211789938E+03  0.10077959534E+03 0.  0.
        -11    1    3    3    0    0  0.79067782505E+02  0.15351785735E+02  0.12335222419E+03  0.14731993337E+03  0.00000000000E+00 0. -1.
         11    1    3    3    0    0  0.60059908722E+02 -0.28844159251E+02  0.13243680349E+02  0.67930650135E+02  0.00000000000E+00 0.  1.
        -13    1    4    4    0    0  0.12171721649E+02  0.24433813370E+02  0.41773869346E+02  0.49902086167E+02  0.00000000000E+00 0.  1.
         13    1    4    4    0    0 -0.10016497105E+03 -0.37856472592E+02  0.14743292931E+03  0.18221581322E+03  0.00000000000E+00 0. -1.
         21    1    1    2  502  501 -0.51134441830E+02  0.26915032738E+02  0.26749309174E+01  0.57847259088E+02  0.00000000000E+00 0.  1.
<scales pt_clust_5="13000.00000" pt_clust_6="13000.00000" pt_clust_7="13000.00000" pt_clust_8="13000.00000" pt_clust_9="57.78538"></scales>
<clustering>
<clus scale="   57.785">  2  9  1 -1</clus>
<clus scale="   90.199">  5  6 -1 -1</clus>
<clus scale="  100.780">  7  8 -1 -1</clus>
<clus scale="  139.271">  2  5  1 -1</clus>
<clus scale="  146.346">  1  5  2 -1</clus>
</clustering>
</event>
<event>
 9    1  0.2423659E-006  0.1765306E+03  0.7546771E-02  0.1193931E+00
         -1   -1    0    0    0  501 -0.00000000000E+00  0.00000000000E+00  0.36015421328E+03  0.36015421328E+03  0.00000000000E+00 0.  1.
          1   -1    0    0  502    0  0.00000000000E+00 -0.00000000000E+00 -0.39778591785E+03  0.39778591785E+03  0.00000000000E+00 0. -1.
         23    2    1    2    0    0 -0.19800580705E+02  0.49936253709E+02  0.40719944958E+02  0.11368961871E+03  0.91550658400E+02 0.  0.
         23    2    1    2    0    0  0.16929344856E+03 -0.65365576625E+02  0.22680007898E+03  0.30409795996E+03  0.90024236135E+02 0.  0.
        -11    1    3    3    0    0  0.33426671319E+02  0.25970149725E+02  0.35204232430E+02  0.55055690108E+02  0.00000000000E+00 0. -1.
         11    1    3    3    0    0 -0.53227252024E+02  0.23966103984E+02  0.55157125275E+01  0.58633928599E+02  0.00000000000E+00 0.  1.
        -13    1    4    4    0    0  0.19974441421E+02 -0.48104724137E+02  0.52913478909E+02  0.74248764600E+02  0.00000000000E+00 0. -1.
         13    1    4    4    0    0  0.14931900714E+03 -0.17260852488E+02  0.17388660007E+03  0.22984919536E+03  0.00000000000E+00 0.  1.
         21    1    1    2  502  501 -0.14949286786E+03  0.15429322916E+02 -0.30515172850E+03  0.34015255247E+03  0.00000000000E+00 0. -1.
<scales pt_clust_5="13000.00000" pt_clust_6="13000.00000" pt_clust_7="13000.00000" pt_clust_8="13000.00000" pt_clust_9="151.85087"></scales>
<clustering>
<clus scale="   90.024">  7  8 -1 -1</clus>
<clus scale="   91.551">  5  6 -1 -1</clus>
<clus scale="  106.147">  1  5  2 -1</clus>
<clus scale="  151.851">  2  9  1 -1</clus>
<clus scale="  151.851">  2  5  1 -1</clus>
</clustering>
</event>
<event>
 9    1  0.2423659E-006  0.1229776E+03  0.7546771E-02  0.1241485E+00
         -1   -1    0    0    0  501 -0.00000000000E+00  0.00000000000E+00  0.17493156102E+03  0.17493156102E+03  0.00000000000E+00 0.  1.
          1   -1    0    0  502    0  0.00000000000E+00 -0.00000000000E+00 -0.11348453390E+03  0.11348453390E+03  0.00000000000E+00 0. -1.
         23    2    1    2    0    0  0.39665739240E+02 -0.33654010235E+02  0.47279486492E+02  0.11818120532E+03  0.95002548244E+02 0.  0.
         23    2    1    2    0    0 -0.50320573338E+02  0.54291595866E+02 -0.19447419832E+02  0.12937658571E+03  0.10430897042E+03 0.  0.
        -11    1    3    3    0    0 -0.96202059057E+01  0.27867558907E+02  0.13145506601E+02  0.32279305211E+02  0.00000000000E+00 0. -1.
         11    1    3    3    0    0  0.49285945145E+02 -0.61521569142E+02  0.34133979891E+02  0.85901900106E+02  0.00000000000E+00 0.  1.
        -13    1    4    4    0    0  0.20821674297E+02 -0.24973794861E+01 -0.31199613609E+02  0.37592484810E+02  0.00000000000E+00 0.  1.
         13    1    4    4    0    0 -0.71142247635E+02  0.56788975352E+02  0.11752193777E+02  0.91784100903E+02  0.00000000000E+00 0. -1.
         21    1    1    2  502  501  0.10654834098E+02 -0.20637585631E+02  0.33614960458E+02  0.40858303892E+02  0.00000000000E+00 0.  1.
<scales pt_clust_5="13000.00000" pt_clust_6="13000.00000" pt_clust_7="13000.00000" pt_clust_8="13000.00000" pt_clust_9="23.22575"></scales>
<clustering>
<clus scale="   23.226">  1  9  2 -1</clus>
<clus scale="   95.003">  5  6 -1 -1</clus>
<clus scale="  104.309">  7  8 -1 -1</clus>
<clus scale="  115.189">  1  5  2 -1</clus>
<clus scale="  122.978">  2  5  1 -1</clus>
</clustering>
</event>
<event>
 9    1  0.2423659E-006  0.1876591E+03  0.7546771E-02  0.1185955E+00
         -1   -1    0    0    0  501 -0.00000000000E+00  0.00000000000E+00  0.78887840178E+03  0.78887840178E+03  0.00000000000E+00 0.  1.
          1   -1    0    0  502    0  0.00000000000E+00 -0.00000000000E+00 -0.77601834189E+02  0.77601834189E+02  0.00000000000E+00 0. -1.
         23    2    1    2    0    0  0.77328465169E+02  0.12157091920E+03  0.13696927328E+03  0.21675886482E+03  0.86398169748E+02 0.  0.
         23    2    1    2    0    0  0.42731375034E+02  0.76466579841E+01  0.10678879430E+03  0.15003637504E+03  0.96034501382E+02 0.  0.
        -13    1    3    3    0    0  0.50152419557E+02  0.11074055832E+02  0.25014491238E+02  0.57128142555E+02  0.00000000000E+00 0. -1.
         13    1    3    3    0    0  0.27176045612E+02  0.11049686337E+03  0.11195478204E+03  0.15963072227E+03  0.00000000000E+00 0.  1.
        -13    1    4    4    0    0 -0.27860257250E+01 -0.30263706552E+02  0.78922965882E+02  0.84572385665E+02  0.00000000000E+00 0.  1.
         13    1    4    4    0    0  0.45517400759E+02  0.37910364536E+02  0.27865828418E+02  0.65463989372E+02  0.00000000000E+00 0. -1.
         21    1    1    2  502  501 -0.12005984020E+03 -0.12921757719E+03  0.46751850001E+03  0.49968499610E+03  0.00000000000E+00 0.  1.
<scales pt_clust_5="13000.00000" pt_clust_6="13000.00000" pt_clust_7="13000.00000" pt_clust_8="13000.00000" pt_clust_9="166.58723"></scales>
<clustering>
<clus scale="   86.398">  5  6 -1 -1</clus>
<clus scale="   96.035">  7  8 -1 -1</clus>
<clus scale="  105.390">  2  7  1 -1</clus>
<clus scale="  166.587">  1  9  2 -1</clus>
<clus scale="  105.390">  2  5  1 -1</clus>
</clustering>
</event>
<event>
 9    1  0.2423659E-006  0.9233109E+02  0.7546771E-02  0.1297700E+00
          1   -1    0    0  502    0  0.00000000000E+00  0.00000000000E+00  0.14990272888E+03  0.14990272888E+03  0.00000000000E+00 0. -1.
         -1   -1    0    0    0  501 -0.00000000000E+00 -0.00000000000E+00 -0.92300589319E+02  0.92300589319E+02  0.00000000000E+00 0.  1.
         23    2    1    2    0    0 -0.82656264205E+01  0.11184475244E+02 -0.28811659767E+02  0.95085714764E+02  0.89541992087E+02 0.  0.
         23    2    1    2    0    0  0.16835424339E+02 -0.30553799396E+02  0.62517339092E+02  0.11518559808E+03  0.90234905367E+02 0.  0.
        -11    1    4    4    0    0 -0.55733581333E+01  0.22471451898E+02  0.51651699521E+02  0.56603237847E+02  0.00000000000E+00 0.  1.
         11    1    4    4    0    0  0.22408782472E+02 -0.53025251294E+02  0.10865639571E+02  0.58582360229E+02  0.00000000000E+00 0. -1.
        -13    1    3    3    0    0 -0.39165939406E+02 -0.21912924826E+02 -0.19108307544E+02  0.48777807466E+02  0.00000000000E+00 0.  1.
         13    1    3    3    0    0  0.30900312986E+02  0.33097400069E+02 -0.97033522232E+01  0.46307907298E+02  0.00000000000E+00 0. -1.
         21    1    1    2  502  501 -0.85697979182E+01  0.19369324153E+02  0.23896460241E+02  0.31932005363E+02  0.00000000000E+00 0.  1.
<scales pt_clust_5="13000.00000" pt_clust_6="13000.00000" pt_clust_7="13000.00000" pt_clust_8="13000.00000" pt_clust_9="21.18047"></scales>
<clustering>
<clus scale="   21.180">  1  9  2 -1</clus>
<clus scale="   89.542">  7  8 -1 -1</clus>
<clus scale="   90.235">  5  6 -1 -1</clus>
<clus scale="   91.654">  2  7  1 -1</clus>
<clus scale="   21.180">  1  5  2 -1</clus>
</clustering>
</event>
<event>
 9    1  0.2423659E-006  0.1047347E+03  0.7546771E-02  0.1271201E+00
         -2   -1    0    0    0  501 -0.00000000000E+00  0.00000000000E+00  0.21456435439E+03  0.21456435439E+03  0.00000000000E+00 0.  1.
          2   -1    0    0  502    0  0.00000000000E+00 -0.00000000000E+00 -0.11106044923E+03  0.11106044923E+03  0.00000000000E+00 0. -1.
         23    2    1    2    0    0 -0.12629463711E+01  0.74091074230E+02  0.89251336591E+02  0.14669000452E+03  0.89783484158E+02 0.  0.
         23    2    1    2    0    0 -0.30375197479E+02 -0.23725401407E+02  0.48661620012E+02  0.11022049225E+03  0.91077199976E+02 0.  0.
        -13    1    3    3    0    0 -0.37578540925E+02  0.54697104979E+02  0.80979200302E+02  0.10469742553E+03  0.00000000000E+00 0.  1.
         13    1    3    3    0    0  0.36315594554E+02  0.19393969250E+02  0.82721362893E+01  0.41992578986E+02  0.00000000000E+00 0. -1.
        -13    1    4    4    0    0  0.18382397576E+02 -0.29667836654E+02  0.50126887458E+02  0.61080258011E+02  0.00000000000E+00 0. -1.
         13    1    4    4    0    0 -0.48757595056E+02  0.59424352476E+01 -0.14652674463E+01  0.49140234238E+02  0.00000000000E+00 0.  1.
         21    1    1    2  502  501  0.31638143850E+02 -0.50365672823E+02 -0.34409051447E+02  0.68714306856E+02  0.00000000000E+00 0. -1.
<scales pt_clust_5="13000.00000" pt_clust_6="13000.00000" pt_clust_7="13000.00000" pt_clust_8="13000.00000" pt_clust_9="59.47834"></scales>
<clustering>
<clus scale="   59.478">  2  9  1 -1</clus>
<clus scale="   89.783">  5  6 -1 -1</clus>
<clus scale="   91.077">  7  8 -1 -1</clus>
<clus scale="  103.612">  1  5  2 -1</clus>
<clus scale="   59.478">  2  5  1 -1</clus>
</clustering>
</event>
<event>
 9    1  0.2423659E-006  0.1025782E+03  0.7546771E-02  0.1275782E+00
          1   -1    0    0  502    0  0.00000000000E+00  0.00000000000E+00  0.51834761878E+03  0.51834761878E+03  0.00000000000E+00 0. -1.
         -1   -1    0    0    0  501 -0.00000000000E+00 -0.00000000000E+00 -0.28077612587E+02  0.28077612587E+02  0.00000000000E+00 0.  1.
         23    2    1    2    0    0  0.20805701172E+02  0.42197951442E+00  0.18596073584E+03  0.21036289713E+03  0.96115024557E+02 0.  0.
         23    2    1    2    0    0 -0.46932923195E+02 -0.10293190835E+02  0.27875463600E+03  0.29820587005E+03  0.94413689623E+02 0.  0.
        -11    1    3    3    0    0 -0.29123627121E+02 -0.24701198938E+02  0.10708733042E+03  0.11369270523E+03  0.00000000000E+00 0.  1.
         11    1    3    3    0    0  0.49929328292E+02  0.25123178452E+02  0.78873405420E+02  0.96670191899E+02  0.00000000000E+00 0. -1.
        -11    1    4    4    0    0  0.20209052823E+02 -0.22482542996E+02  0.41568954933E+02  0.51398916037E+02  0.00000000000E+00 0.  1.
         11    1    4    4    0    0 -0.67141976019E+02  0.12189352161E+02  0.23718568106E+03  0.24680695402E+03  0.00000000000E+00 0. -1.
         21    1    1    2  502  501  0.26127222024E+02  0.98712113204E+01  0.25554634358E+02  0.37856464188E+02  0.00000000000E+00 0. -1.
<scales pt_clust_5="13000.00000" pt_clust_6="13000.00000" pt_clust_7="13000.00000" pt_clust_8="13000.00000" pt_clust_9="27.92978"></scales>
<clustering>
<clus scale="   27.930">  2  9  1 -1</clus>
<clus scale="   94.414">  7  8 -1 -1</clus>
<clus scale="   96.115">  5  6 -1 -1</clus>
<clus scale="  100.986">  1  7  2 -1</clus>
<clus scale="  100.986">  1  5  2 -1</clus>
</clustering>
</event>
<event>
 9    1  0.2423659E-006  0.9724346E+02  0.7546771E-02  0.1286572E+00
          2   -1    0    0  502    0  0.00000000000E+00  0.00000000000E+00  0.14279002260E+03  0.14279002260E+03  0.00000000000E+00 0. -1.
         -2   -1    0    0    0  501 -0.00000000000E+00 -0.00000000000E+00 -0.23864157113E+03  0.23864157113E+03  0.00000000000E+00 0.  1.
         23    2    1    2    0    0 -0.24515526384E+00  0.60359903175E+02 -0.11186941870E+03  0.15608666158E+03  0.90580908965E+02 0.  0.
         23    2    1    2    0    0  0.38852133598E+02  0.23921113002E+02  0.64491102527E+02  0.12073402106E+03  0.91301115020E+02 0.  0.
        -11    1    3    3    0    0  0.14288908080E+02 -0.18289183222E+02 -0.70860888011E+01  0.24266845109E+02  0.00000000000E+00 0.  1.
         11    1    3    3    0    0 -0.14534063344E+02  0.78649086397E+02 -0.10478332990E+03  0.13181981647E+03  0.00000000000E+00 0. -1.
        -11    1    4    4    0    0 -0.22737639325E+02  0.31904896866E+02  0.32332520575E+02  0.50796796876E+02  0.00000000000E+00 0. -1.
         11    1    4    4    0    0  0.61589772923E+02 -0.79837838636E+01  0.32158581952E+02  0.69937224185E+02  0.00000000000E+00 0.  1.
         21    1    1    2  502  501 -0.38606978334E+02 -0.84281016177E+02 -0.48473232361E+02  0.10461091109E+03  0.00000000000E+00 0.  1.
<scales pt_clust_5="13000.00000" pt_clust_6="13000.00000" pt_clust_7="13000.00000" pt_clust_8="13000.00000" pt_clust_9="92.70269"></scales>
<clustering>
<clus scale="   90.581">  5  6 -1 -1</clus>
<clus scale="   91.301">  7  8 -1 -1</clus>
<clus scale="   92.703">  2  9  1 -1</clus>
<clus scale="   96.568">  2  5  1 -1</clus>
<clus scale="   97.243">  1  5  2 -1</clus>
</clustering>
</event>
<event>
 9    1  0.2423659E-006  0.1014338E+03  0.7546771E-02  0.1283490E+00
          1   -1    0    0  502    0  0.00000000000E+00  0.00000000000E+00  0.20343378588E+03  0.20343378588E+03  0.00000000000E+00 0. -1.
         -1   -1    0    0    0  501 -0.00000000000E+00 -0.00000000000E+00 -0.33251441899E+03  0.33251441899E+03  0.00000000000E+00 0.  1.
         23    2    1    2    0    0 -0.67668366791E+02 -0.72063621736E+01 -0.25037557046E+03  0.27847189083E+03  0.10113223114E+03 0.  0.
         23    2    1    2    0    0 -0.10244535243E+02 -0.46098655444E+01  0.14865350185E+03  0.17405848267E+03  0.89845925974E+02 0.  0.
        -11    1    4    4    0    0  0.30145898020E+02 -0.24748741749E+02  0.10173861507E+03  0.10895880498E+03  0.00000000000E+00 0.  1.
         11    1    4    4    0    0 -0.40390433264E+02  0.20138876205E+02  0.46914886777E+02  0.65099677690E+02  0.00000000000E+00 0. -1.
        -11    1    3    3    0    0 -0.72800212219E+02  0.26949841819E+02 -0.11492139779E+03  0.13868342563E+03  0.00000000000E+00 0. -1.
         11    1    3    3    0    0  0.51318454279E+01 -0.34156203993E+02 -0.13545417267E+03  0.13978846520E+03  0.00000000000E+00 0.  1.
         21    1    1    2  502  501  0.77912902035E+02  0.11816227718E+02 -0.27358564493E+02  0.83417831379E+02  0.00000000000E+00 0.  1.
<scales pt_clust_5="13000.00000" pt_clust_6="13000.00000" pt_clust_7="13000.00000" pt_clust_8="13000.00000" pt_clust_9="78.80383"></scales>
<clustering>
<clus scale="   78.804">  2  9  1 -1</clus>
<clus scale="   89.846">  5  6 -1 -1</clus>
<clus scale="   90.185">  1  5  2 -1</clus>
<clus scale="  101.132">  7  8 -1 -1</clus>
<clus scale="   90.185">  1  5  2 -1</clus>
</clustering>
</event>
<event>
 9    1  0.2423659E-006  0.9468538E+02  0.7546771E-02  0.1300854E+00
          2   -1    0    0  502    0  0.00000000000E+00  0.00000000000E+00  0.27141520844E+03  0.27141520844E+03  0.00000000000E+00 0. -1.
         -2   -1    0    0    0  501 -0.00000000000E+00 -0.00000000000E+00 -0.53116719986E+02  0.53116719986E+02  0.00000000000E+00 0.  1.
         23    2    1    2    0    0 -0.24909315311E+02  0.79286862083E+01  0.21121583828E+02  0.96176896889E+02  0.90114017431E+02 0.  0.
         23    2    1    2    0    0  0.40524376880E+02  0.15980920382E+02  0.15279448455E+03  0.17557910286E+03  0.74727852350E+02 0.  0.
        -11    1    4    4    0    0  0.33466441822E+02 -0.13509602146E+02  0.24188241284E+02  0.43446324295E+02  0.00000000000E+00 0. -1.
         11    1    4    4    0    0  0.70579350589E+01  0.29490522527E+02  0.12860624326E+03  0.13213277857E+03  0.00000000000E+00 0.  1.
        -11    1    3    3    0    0 -0.35797247036E+02 -0.11874648011E+02 -0.24701205344E+02  0.45084362102E+02  0.00000000000E+00 0.  1.
         11    1    3    3    0    0  0.10887931725E+02  0.19803334220E+02  0.45822789172E+02  0.51092534787E+02  0.00000000000E+00 0. -1.
         21    1    1    2  502  501 -0.15615061569E+02 -0.23909606590E+02  0.44382420080E+02  0.52775928673E+02  0.00000000000E+00 0.  1.
<scales pt_clust_5="13000.00000" pt_clust_6="13000.00000" pt_clust_7="13000.00000" pt_clust_8="13000.00000" pt_clust_9="28.55695"></scales>
<clustering>
<clus scale="   28.557">  1  9  2 -1</clus>
<clus scale="   74.728">  5  6 -1 -1</clus>
<clus scale="   80.181">  1  5  2 -1</clus>
<clus scale="   90.114">  7  8 -1 -1</clus>
<clus scale="   28.557">  1  5  2 -1</clus>
</clustering>
</event>
<event>
 9    1  0.2423659E-006  0.1593579E+03  0.7546771E-02  0.1189515E+00
          1   -1    0    0  502    0  0.00000000000E+00  0.00000000000E+00  0.16612305389E+03  0.16612305389E+03  0.00000000000E+00 0. -1.
         -1   -1    0    0    0  501 -0.00000000000E+00 -0.00000000000E+00 -0.55162506741E+03  0.55162506741E+03  0.00000000000E+00 0.  1.
         23    2    1    2    0    0  0.10137124541E+03 -0.95009579782E+02 -0.20321293451E+03  0.26171952019E+03  0.88874410525E+02 0.  0.
         23    2    1    2    0    0 -0.13791709998E+03 -0.39870685385E+01  0.72909186881E+02  0.17987268359E+03  0.89450598601E+02 0.  0.
        -13    1    3    3    0    0  0.80369133595E+02 -0.27281481034E+02 -0.15254950736E+03  0.17457041284E+03  0.00000000000E+00 0.  1.
         13    1    3    3    0    0  0.21002111818E+02 -0.67728098748E+02 -0.50663427151E+02  0.87149107347E+02  0.00000000000E+00 0. -1.
        -13    1    4    4    0    0 -0.42896914178E+02 -0.19805850269E+02  0.68794167890E+02  0.83456901971E+02  0.00000000000E+00 0.  1.
         13    1    4    4    0    0 -0.95020185799E+02  0.15818781731E+02  0.41150189909E+01  0.96415781624E+02  0.00000000000E+00 0. -1.
         21    1    1    2  502  501  0.36545854564E+02  0.98996648320E+02 -0.25519826589E+03  0.27615591751E+03  0.00000000000E+00 0. -1.
<scales pt_clust_5="13000.00000" pt_clust_6="13000.00000" pt_clust_7="13000.00000" pt_clust_8="13000.00000" pt_clust_9="105.52694"></scales>
<clustering>
<clus scale="   88.874">  5  6 -1 -1</clus>
<clus scale="   89.451">  7  8 -1 -1</clus>
<clus scale="  105.527">  2  9  1 -1</clus>
<clus scale="  159.035">  2  5  1 -1</clus>
<clus scale="  159.358">  1  5  2 -1</clus>
</clustering>
</event>
<event>
 9    1  0.2423659E-006  0.1022782E+03  0.7546771E-02  0.1276033E+00
         -1   -1    0    0    0  501 -0.00000000000E+00  0.00000000000E+00  0.15875585869E+03  0.15875585869E+03  0.00000000000E+00 0.  1.
          1   -1    0    0  502    0  0.00000000000E+00 -0.00000000000E+00 -0.13932295721E+04  0.13932295721E+04  0.00000000000E+00 0. -1.
         23    2    1    2    0    0  0.29810465878E+02 -0.25404196227E+02  0.13034658341E+03  0.16475260894E+03  0.92839395105E+02 0.  0.
         23    2    1    2    0    0 -0.12018578218E+03  0.29560677649E+02 -0.76240566032E+03  0.77806259244E+03  0.93811251784E+02 0.  0.
        -11    1    4    4    0    0 -0.87097422830E+02  0.62356797515E+02 -0.57949546349E+03  0.58931258553E+03  0.00000000000E+00 0. -1.
         11    1    4    4    0    0 -0.33088359354E+02 -0.32796119866E+02 -0.18291019683E+03  0.18875000691E+03  0.00000000000E+00 0.  1.
        -13    1    3    3    0    0  0.42585908272E+02 -0.42109276151E+02  0.13064741056E+03  0.14372020250E+03  0.00000000000E+00 0.  1.
         13    1    3    3    0    0 -0.12775442394E+02  0.16705079924E+02 -0.30082714752E+00  0.21032406438E+02  0.00000000000E+00 0. -1.
         21    1    1    2  502  501  0.90375316306E+02 -0.41564814216E+01 -0.60241463648E+03  0.60917022939E+03  0.00000000000E+00 0. -1.
<scales pt_clust_5="13000.00000" pt_clust_6="13000.00000" pt_clust_7="13000.00000" pt_clust_8="13000.00000" pt_clust_9="90.47085"></scales>
<clustering>
<clus scale="   90.471">  2  9  1 -1</clus>
<clus scale="   92.839">  7  8 -1 -1</clus>
<clus scale="   93.811">  5  6 -1 -1</clus>
<clus scale="  101.388">  1  7  2 -1</clus>
<clus scale="   90.471">  2  5  1 -1</clus>
</clustering>
</event>
<event>
 9    1  0.2423659E-006  0.1040910E+03  0.7546771E-02  0.1274841E+00
         -1   -1    0    0    0  501 -0.00000000000E+00  0.00000000000E+00  0.52431826237E+02  0.52431826237E+02  0.00000000000E+00 0.  1.
          1   -1    0    0  502    0  0.00000000000E+00 -0.00000000000E+00 -0.36200506082E+03  0.36200506082E+03  0.00000000000E+00 0. -1.
         23    2    1    2    0    0  0.91752546810E+01  0.72638240015E+02 -0.90026587987E+02  0.14425660227E+03  0.85701117511E+02 0.  0.
         23    2    1    2    0    0  0.13727979630E+02 -0.14969803958E+02 -0.14729852342E+03  0.17494374788E+03  0.92173247024E+02 0.  0.
        -13    1    3    3    0    0 -0.34986527210E+02  0.36837002344E+02 -0.21363414241E+02  0.55112768901E+02  0.00000000000E+00 0.  1.
         13    1    3    3    0    0  0.44161781891E+02  0.35801237671E+02 -0.68663173746E+02  0.89143833367E+02  0.00000000000E+00 0. -1.
        -13    1    4    4    0    0 -0.82305332225E+01 -0.41176086977E+02 -0.13002695007E+03  0.13663901185E+03  0.00000000000E+00 0.  1.
         13    1    4    4    0    0  0.21958512852E+02  0.26206283019E+02 -0.17271573349E+02  0.38304736030E+02  0.00000000000E+00 0. -1.
         21    1    1    2  502  501 -0.22903234311E+02 -0.57668436057E+02 -0.72248123179E+02  0.95236536907E+02  0.00000000000E+00 0.  1.
<scales pt_clust_5="13000.00000" pt_clust_6="13000.00000" pt_clust_7="13000.00000" pt_clust_8="13000.00000" pt_clust_9="62.05003"></scales>
<clustering>
<clus scale="   62.050">  2  9  1 -1</clus>
<clus scale="   85.701">  5  6 -1 -1</clus>
<clus scale="   92.173">  7  8 -1 -1</clus>
<clus scale="   98.406">  1  5  2 -1</clus>
<clus scale="   62.050">  2  5  1 -1</clus>
</clustering>
</event>
<event>
 9    1  0.2423659E-006  0.1607518E+03  0.7546771E-02  0.1210621E+00
          1   -1    0    0  502    0  0.00000000000E+00  0.00000000000E+00  0.81560573448E+02  0.81560573448E+02  0.00000000000E+00 0. -1.
         -1   -1    0    0    0  501 -0.00000000000E+00 -0.00000000000E+00 -0.47401642092E+03  0.47401642092E+03  0.00000000000E+00 0.  1.
         23    2    1    2    0    0  0.23505488503E+02 -0.11853923745E+02 -0.10856905951E+03  0.14623384329E+03  0.94361394341E+02 0.  0.
         23    2    1    2    0    0  0.11622091513E+03 -0.14498840726E+02 -0.17805585706E+03  0.23209157279E+03  0.91897184040E+02 0.  0.
        -11    1    4    4    0    0  0.18907707451E+02 -0.42782998071E+02 -0.45695236177E+02  0.65390679261E+02  0.00000000000E+00 0. -1.
         11    1    4    4    0    0  0.97313207679E+02  0.28284157345E+02 -0.13236062088E+03  0.16670089353E+03  0.00000000000E+00 0.  1.
        -11    1    3    3    0    0  0.35269051986E+02  0.90972186582E+01 -0.11559686915E+03  0.12119942893E+03  0.00000000000E+00 0.  1.
         11    1    3    3    0    0 -0.11763563484E+02 -0.20951142403E+02  0.70278096422E+01  0.25034414357E+02  0.00000000000E+00 0. -1.
         21    1    1    2  502  501 -0.13972640363E+03  0.26352764471E+02 -0.10583093090E+03  0.17725157828E+03  0.00000000000E+00 0. -1.
<scales pt_clust_5="13000.00000" pt_clust_6="13000.00000" pt_clust_7="13000.00000" pt_clust_8="13000.00000" pt_clust_9="131.89403"></scales>
<clustering>
<clus scale="   91.897">  5  6 -1 -1</clus>
<clus scale="   94.361">  7  8 -1 -1</clus>
<clus scale="   97.965">  2  7  1 -1</clus>
<clus scale="  131.894">  1  9  2 -1</clus>
<clus scale="  131.894">  1  5  2 -1</clus>
</clustering>
</event>
<event>
 9    1  0.2423659E-006  0.1592096E+03  0.7546771E-02  0.1203841E+00
         -1   -1    0    0    0  501 -0.00000000000E+00  0.00000000000E+00  0.26770701329E+02  0.26770701329E+02  0.00000000000E+00 0.  1.
          1   -1    0    0  502    0  0.00000000000E+00 -0.00000000000E+00 -0.18456030015E+04  0.18456030015E+04  0.00000000000E+00 0. -1.
         23    2    1    2    0    0  0.22766589416E+02 -0.68704408831E+02 -0.32316936891E+03  0.34357054048E+03  0.91453058425E+02 0.  0.
         23    2    1    2    0    0 -0.44905945822E+02 -0.75830187581E+02 -0.33292120658E+03  0.35690354252E+03  0.93684830954E+02 0.  0.
        -11    1    3    3    0    0  0.46520257479E+02 -0.17995395888E+02 -0.22583669866E+03  0.23127944805E+03  0.00000000000E+00 0. -1.
         11    1    3    3    0    0 -0.23753668063E+02 -0.50709012943E+02 -0.97332670249E+02  0.11229109242E+03  0.00000000000E+00 0.  1.
        -11    1    4    4    0    0 -0.67478196376E+02 -0.52422652371E+02 -0.29410444451E+03  0.30626600489E+03  0.00000000000E+00 0.  1.
         11    1    4    4    0    0  0.22572250554E+02 -0.23407535210E+02 -0.38816762069E+02  0.50637537630E+02  0.00000000000E+00 0. -1.
         21    1    1    2  502  501  0.22139356407E+02  0.14453459641E+03 -0.11627417247E+04  0.11718996199E+04  0.00000000000E+00 0. -1.
<scales pt_clust_5="13000.00000" pt_clust_6="13000.00000" pt_clust_7="13000.00000" pt_clust_8="13000.00000" pt_clust_9="128.72780"></scales>
<clustering>
<clus scale="   91.453">  5  6 -1 -1</clus>
<clus scale="   93.685">  7  8 -1 -1</clus>
<clus scale="  116.629">  1  5  2 -1</clus>
<clus scale="  128.728">  2  9  1 -1</clus>
<clus scale="  128.728">  2  5  1 -1</clus>
</clustering>
</event>
<event>
 9    1  0.2423659E-006  0.1193440E+03  0.7546771E-02  0.1244886E+00
         -2   -1    0    0    0  501 -0.00000000000E+00  0.00000000000E+00  0.47610480561E+02  0.47610480561E+02  0.00000000000E+00 0.  1.
          2   -1    0    0  502    0  0.00000000000E+00 -0.00000000000E+00 -0.64372248052E+03  0.64372248052E+03  0.00000000000E+00 0. -1.
         23    2    1    2    0    0 -0.41297011924E+02  0.44889194192E+02 -0.83219015231E+02  0.13926682117E+03  0.93538013843E+02 0.  0.
         23    2    1    2    0    0  0.85121403995E+02 -0.73466030673E+02 -0.30464917675E+03  0.33735075508E+03  0.91386541540E+02 0.  0.
        -11    1    4    4    0    0  0.63889389755E+02 -0.63514049527E+02 -0.30027452801E+03  0.31349749725E+03  0.00000000000E+00 0.  1.
         11    1    4    4    0    0  0.21232014241E+02 -0.99519811462E+01 -0.43746487449E+01  0.23853257830E+02  0.00000000000E+00 0. -1.
        -11    1    3    3    0    0 -0.20543485009E+02 -0.19654556645E+02  0.40912652327E+01  0.28724115729E+02  0.00000000000E+00 0.  1.
         11    1    3    3    0    0 -0.20753526915E+02  0.64543750837E+02 -0.87310280464E+02  0.11054270544E+03  0.00000000000E+00 0. -1.
         21    1    1    2  502  501 -0.43824392072E+02  0.28576836481E+02 -0.20824380798E+03  0.21471538483E+03  0.00000000000E+00 0. -1.
<scales pt_clust_5="13000.00000" pt_clust_6="13000.00000" pt_clust_7="13000.00000" pt_clust_8="13000.00000" pt_clust_9="52.31838"></scales>
<clustering>
<clus scale="   52.318">  2  9  1 -1</clus>
<clus scale="   91.387">  5  6 -1 -1</clus>
<clus scale="   93.538">  7  8 -1 -1</clus>
<clus scale="  117.665">  2  5  1 -1</clus>
<clus scale="   52.318">  2  5  1 -1</clus>
</clustering>
</event>
<event>
 9    1  0.2423659E-006  0.9742012E+02  0.7546771E-02  0.1287867E+00
          1   -1    0    0  502    0  0.00000000000E+00  0.00000000000E+00  0.40032072167E+03  0.40032072167E+03  0.00000000000E+00 0. -1.
         -1   -1    0    0    0  501 -0.00000000000E+00 -0.00000000000E+00 -0.48849986442E+02  0.48849986442E+02  0.00000000000E+00 0.  1.
         23    2    1    2    0    0  0.47382925675E+02 -0.10767770993E+02  0.12487776443E+03  0.16156197626E+03  0.90259235465E+02 0.  0.
         23    2    1    2    0    0 -0.16297062755E+02  0.32388633337E+02  0.23124314309E+03  0.24945880833E+03  0.86265218986E+02 0.  0.
        -11    1    3    3    0    0 -0.12870830755E+02 -0.24094245214E+02  0.65214544651E+01  0.28084164668E+02  0.00000000000E+00 0.  1.
         11    1    3    3    0    0  0.60253756430E+02  0.13326474221E+02  0.11835630997E+03  0.13347781160E+03  0.00000000000E+00 0. -1.
        -13    1    4    4    0    0 -0.22724365450E+02 -0.22993844102E+02  0.12913929843E+03  0.13312427296E+03  0.00000000000E+00 0.  1.
         13    1    4    4    0    0  0.64273026951E+01  0.55382477439E+02  0.10210384466E+03  0.11633453537E+03  0.00000000000E+00 0. -1.
         21    1    1    2  502  501 -0.31085862920E+02 -0.21620862343E+02 -0.46501722911E+01  0.38149923516E+02  0.00000000000E+00 0.  1.
<scales pt_clust_5="13000.00000" pt_clust_6="13000.00000" pt_clust_7="13000.00000" pt_clust_8="13000.00000" pt_clust_9="37.86545"></scales>
<clustering>
<clus scale="   37.865">  2  9  1 -1</clus>
<clus scale="   86.265">  7  8 -1 -1</clus>
<clus scale="   90.259">  5  6 -1 -1</clus>
<clus scale="   93.732">  1  7  2 -1</clus>
<clus scale="   93.732">  1  5  2 -1</clus>
</clustering>
</event>
<event>
 9    1  0.2423659E-006  0.1027033E+03  0.7546771E-02  0.1278048E+00
          2   -1    0    0  502    0  0.00000000000E+00  0.00000000000E+00  0.41267394070E+03  0.41267394070E+03  0.00000000000E+00 0. -1.
         -2   -1    0    0    0  501 -0.00000000000E+00 -0.00000000000E+00 -0.88312797901E+02  0.88312797901E+02  0.00000000000E+00 0.  1.
         23    2    1    2    0    0 -0.38342591071E+02  0.76105043334E+01  0.42285736122E+01  0.10172434667E+03  0.93818376684E+02 0.  0.
         23    2    1    2    0    0 -0.10326126328E+01  0.21356014767E+02  0.32651824197E+02  0.10765538819E+03  0.10033142741E+03 0.  0.
        -11    1    3    3    0    0 -0.29379357225E+02 -0.30255912334E+02 -0.28481550496E+02  0.50889739445E+02  0.00000000000E+00 0.  1.
         11    1    3    3    0    0 -0.89632338460E+01  0.37866416667E+02  0.32710124108E+02  0.50834607221E+02  0.00000000000E+00 0. -1.
        -13    1    4    4    0    0  0.17214393110E+02  0.58266062358E+02  0.13463670658E+02  0.62229733893E+02  0.00000000000E+00 0. -1.
         13    1    4    4    0    0 -0.18247005743E+02 -0.36910047591E+02  0.19188153539E+02  0.45425654293E+02  0.00000000000E+00 0.  1.
         21    1    1    2  502  501  0.39375203703E+02 -0.28966519101E+02  0.28748074499E+03  0.29160700374E+03  0.00000000000E+00 0. -1.
<scales pt_clust_5="13000.00000" pt_clust_6="13000.00000" pt_clust_7="13000.00000" pt_clust_8="13000.00000" pt_clust_9="48.88216"></scales>
<clustering>
<clus scale="   48.882">  1  9  2 -1</clus>
<clus scale="   93.818">  5  6 -1 -1</clus>
<clus scale="   96.351">  2  5  1 -1</clus>
<clus scale="  100.331">  7  8 -1 -1</clus>
<clus scale="   48.882">  1  5  2 -1</clus>
</clustering>
</event>
<event>
 9    1  0.2423659E-006  0.2111626E+03  0.7546771E-02  0.1147059E+00
         -2   -1    0    0    0  501 -0.00000000000E+00  0.00000000000E+00  0.46123402587E+02  0.46123402587E+02  0.00000000000E+00 0.  1.
          2   -1    0    0  502    0  0.00000000000E+00 -0.00000000000E+00 -0.24272601830E+04  0.24272601830E+04  0.00000000000E+00 0. -1.
         23    2    1    2    0    0  0.52578355662E+02  0.19737772456E+03 -0.42962957562E+03  0.48441785330E+03  0.91414630731E+02 0.  0.
         23    2    1    2    0    0  0.12489508659E+03 -0.98991439131E+02 -0.89099141804E+03  0.90921093706E+03  0.86027515239E+02 0.  0.
        -11    1    3    3    0    0  0.46150351442E+02  0.73629408105E+02 -0.26148374081E+03  0.27554471757E+03  0.00000000000E+00 0. -1.
         11    1    3    3    0    0  0.64280042204E+01  0.12374831645E+03 -0.16814583481E+03  0.20887313573E+03  0.00000000000E+00 0.  1.
        -13    1    4    4    0    0  0.13203719915E+03 -0.66590216815E+02 -0.73556842376E+03  0.75028593548E+03  0.00000000000E+00 0. -1.
         13    1    4    4    0    0 -0.71421125626E+01 -0.32401222316E+02 -0.15542299428E+03  0.15892500159E+03  0.00000000000E+00 0.  1.
         21    1    1    2  502  501 -0.17747344225E+03 -0.98386285424E+02 -0.10605157868E+04  0.10797547953E+04  0.00000000000E+00 0. -1.
<scales pt_clust_5="13000.00000" pt_clust_6="13000.00000" pt_clust_7="13000.00000" pt_clust_8="13000.00000" pt_clust_9="190.34972"></scales>
<clustering>
<clus scale="   86.028">  7  8 -1 -1</clus>
<clus scale="   91.415">  5  6 -1 -1</clus>
<clus scale="  181.104">  2  7  1 -1</clus>
<clus scale="  190.350">  2  9  1 -1</clus>
<clus scale="  181.104">  2  5  1 -1</clus>
</clustering>
</event>
<event>
 9    1  0.2423659E-006  0.1243945E+03  0.7546771E-02  0.1236450E+00
          2   -1    0    0  502    0  0.00000000000E+00  0.00000000000E+00  0.24291223839E+03  0.24291223839E+03  0.00000000000E+00 0. -1.
         -2   -1    0    0    0  501 -0.00000000000E+00 -0.00000000000E+00 -0.24226534874E+03  0.24226534874E+03  0.00000000000E+00 0.  1.
         23    2    1    2    0    0  0.83344272980E+01 -0.82786568985E+02  0.38895963996E+02  0.12836797193E+03  0.89679214528E+02 0.  0.
         23    2    1    2    0    0  0.10196884042E+03  0.54866083841E+02  0.99741574442E+02  0.17795832639E+03  0.91174846792E+02 0.  0.
        -11    1    4    4    0    0  0.55721267181E+02  0.31984974038E+02 -0.15656502281E+01  0.64267794743E+02  0.00000000000E+00 0.  1.
         11    1    4    4    0    0  0.46247573236E+02  0.22881109804E+02  0.10130722467E+03  0.11369053165E+03  0.00000000000E+00 0. -1.
        -13    1    3    3    0    0  0.36014899621E+02 -0.96341111375E+01  0.33242541907E+02  0.49949531375E+02  0.00000000000E+00 0.  1.
         13    1    3    3    0    0 -0.27680472323E+02 -0.73152457847E+02  0.56534220899E+01  0.78418440551E+02  0.00000000000E+00 0. -1.
         21    1    1    2  502  501 -0.11030326772E+03  0.27920485144E+02 -0.13799064878E+03  0.17885128882E+03  0.00000000000E+00 0.  1.
<scales pt_clust_5="13000.00000" pt_clust_6="13000.00000" pt_clust_7="13000.00000" pt_clust_8="13000.00000" pt_clust_9="113.78209"></scales>
<clustering>
<clus scale="   89.679">  7  8 -1 -1</clus>
<clus scale="   91.175">  5  6 -1 -1</clus>
<clus scale="  113.782">  2  9  1 -1</clus>
<clus scale="  123.302">  2  7  1 -1</clus>
<clus scale="  124.394">  1  5  2 -1</clus>
</clustering>
</event>
<event>
 9    1  0.2423659E-006  0.9999891E+02  0.7546771E-02  0.1282223E+00
         -1   -1    0    0    0  501 -0.00000000000E+00  0.00000000000E+00  0.21781244782E+03  0.21781244782E+03  0.00000000000E+00 0.  1.
          1   -1    0    0  502    0  0.00000000000E+00 -0.00000000000E+00 -0.17110937890E+03  0.17110937890E+03  0.00000000000E+00 0. -1.
         23    2    1    2    0    0  0.51867516345E+02 -0.31795879908E+02  0.10304302546E+03  0.15291465373E+03  0.95204038773E+02 0.  0.
         23    2    1    2    0    0  0.21418722316E+02 -0.38923364742E+02  0.25781605824E+02  0.10517890638E+03  0.91783011281E+02 0.  0.
        -11    1    4    4    0    0  0.37136603355E+02  0.18512214830E+02  0.17595581947E+02  0.45071431204E+02  0.00000000000E+00 0. -1.
         11    1    4    4    0    0 -0.15717881039E+02 -0.57435579571E+02  0.81860238767E+01  0.60107475176E+02  0.00000000000E+00 0.  1.
        -13    1    3    3    0    0  0.25113758061E+02  0.18584064626E+02 -0.41226294876E+01  0.31512923949E+02  0.00000000000E+00 0. -1.
         13    1    3    3    0    0  0.26753758285E+02 -0.50379944534E+02  0.10716565495E+03  0.12140172978E+03  0.00000000000E+00 0.  1.
         21    1    1    2  502  501 -0.73286238662E+02  0.70719244649E+02 -0.82121562357E+02  0.13082826661E+03  0.00000000000E+00 0. -1.
<scales pt_clust_5="13000.00000" pt_clust_6="13000.00000" pt_clust_7="13000.00000" pt_clust_8="13000.00000" pt_clust_9="101.84343"></scales>
<clustering>
<clus scale="   91.783">  5  6 -1 -1</clus>
<clus scale="   95.204">  7  8 -1 -1</clus>
<clus scale="  101.843">  2  9  1 -1</clus>
<clus scale="  101.843">  2  5  1 -1</clus>
<clus scale="   99.999">  2  5  1 -1</clus>
</clustering>
</event>
<event>
 9    1  0.2423659E-006  0.1820712E+03  0.7546771E-02  0.1184831E+00
         -1   -1    0    0    0  501 -0.00000000000E+00  0.00000000000E+00  0.14541593107E+03  0.14541593107E+03  0.00000000000E+00 0.  1.
          1   -1    0    0  502    0  0.00000000000E+00 -0.00000000000E+00 -0.37959935717E+03  0.37959935717E+03  0.00000000000E+00 0. -1.
         23    2    1    2    0    0 -0.86662521078E+02 -0.15063468609E+03 -0.10179281827E+03  0.22097086373E+03  0.90912834923E+02 0.  0.
         23    2    1    2    0    0  0.72633233045E+02 -0.17806417608E+01 -0.77491381854E+02  0.14143698895E+03  0.93384957851E+02 0.  0.
        -11    1    4    4    0    0  0.41582624237E+02  0.44945184816E+02 -0.31305039885E+02  0.68769104973E+02  0.00000000000E+00 0. -1.
         11    1    4    4    0    0  0.31050608809E+02 -0.46725826577E+02 -0.46186341970E+02  0.72667883974E+02  0.00000000000E+00 0.  1.
        -13    1    3    3    0    0 -0.86211837424E+02 -0.10938607683E+03 -0.11171390498E+03  0.17854352770E+03  0.00000000000E+00 0. -1.
         13    1    3    3    0    0 -0.45068365406E+00 -0.41248609256E+02  0.99210867105E+01  0.42427336032E+02  0.00000000000E+00 0.  1.
         21    1    1    2  502  501  0.14029288033E+02  0.15241532785E+03 -0.54899225979E+02  0.16260743556E+03  0.00000000000E+00 0.  1.
<scales pt_clust_5="13000.00000" pt_clust_6="13000.00000" pt_clust_7="13000.00000" pt_clust_8="13000.00000" pt_clust_9="157.74907"></scales>
<clustering>
<clus scale="   90.913">  7  8 -1 -1</clus>
<clus scale="   93.385">  5  6 -1 -1</clus>
<clus scale="  118.320">  2  5  1 -1</clus>
<clus scale="  157.749">  1  9  2 -1</clus>
<clus scale="  118.320">  2  5  1 -1</clus>
</clustering>
</event>
<event>
 9    1  0.2423659E-006  0.1174338E+03  0.7546771E-02  0.1248013E+00
         -3   -1    0    0    0  501 -0.00000000000E+00  0.00000000000E+00  0.17764698190E+03  0.17764698190E+03  0.00000000000E+00 0.  1.
          3   -1    0    0  502    0  0.00000000000E+00 -0.00000000000E+00 -0.40426089662E+03  0.40426089662E+03  0.00000000000E+00 0. -1.
         23    2    1    2    0    0 -0.94631195208E+02  0.56798836088E+02  0.83625560440E+02  0.16545670997E+03  0.90562230699E+02 0.  0.
         23    2    1    2    0    0  0.35157363428E+02 -0.61039987754E+02 -0.33295168595E+03  0.35264702641E+03  0.92418503304E+02 0.  0.
        -11    1    4    4    0    0  0.62428269590E+02 -0.32691564770E+02 -0.26420867081E+03  0.27344514803E+03  0.00000000000E+00 0. -1.
         11    1    4    4    0    0 -0.27270906162E+02 -0.28348422984E+02 -0.68743015143E+02  0.79201878384E+02  0.00000000000E+00 0.  1.
        -13    1    3    3    0    0 -0.34048849822E+02  0.15632165446E+02  0.84253821135E+02  0.92208433164E+02  0.00000000000E+00 0.  1.
         13    1    3    3    0    0 -0.60582345386E+02  0.41166670642E+02 -0.62826069440E+00  0.73248276811E+02  0.00000000000E+00 0. -1.
         21    1    1    2  502  501  0.59473831781E+02  0.42411516663E+01  0.22712210792E+02  0.63804142132E+02  0.00000000000E+00 0. -1.
<scales pt_clust_5="13000.00000" pt_clust_6="13000.00000" pt_clust_7="13000.00000" pt_clust_8="13000.00000" pt_clust_9="59.62486"></scales>
<clustering>
<clus scale="   59.625">  1  9  2 -1</clus>
<clus scale="   90.562">  7  8 -1 -1</clus>
<clus scale="   92.419">  5  6 -1 -1</clus>
<clus scale="  115.979">  1  7  2 -1</clus>
<clus scale="  117.434">  2  5  1 -1</clus>
</clustering>
</event>
<event>
 9    1  0.2423659E-006  0.9966988E+02  0.7546771E-02  0.1282047E+00
          3   -1    0    0  502    0  0.00000000000E+00  0.00000000000E+00  0.21784832912E+03  0.21784832912E+03  0.00000000000E+00 0. -1.
         -3   -1    0    0    0  501 -0.00000000000E+00 -0.00000000000E+00 -0.27470774936E+03  0.27470774936E+03  0.00000000000E+00 0.  1.
         23    2    1    2    0    0  0.49557799319E+02  0.51220977825E+02 -0.20940535378E+03  0.23974710534E+03  0.92458143429E+02 0.  0.
         23    2    1    2    0    0 -0.65449719741E+01 -0.35324945472E+02  0.17618241793E+03  0.20121953086E+03  0.90323677852E+02 0.  0.
        -11    1    4    4    0    0 -0.30052247719E+02  0.20027451331E+02  0.80165639137E+02  0.87924775224E+02  0.00000000000E+00 0.  1.
         11    1    4    4    0    0  0.23507275745E+02 -0.55352396803E+02  0.96016778788E+02  0.11329475563E+03  0.00000000000E+00 0. -1.
        -13    1    3    3    0    0 -0.23566591723E+02  0.29344269444E+02 -0.46306585521E+02  0.59672189982E+02  0.00000000000E+00 0. -1.
         13    1    3    3    0    0  0.73124391043E+02  0.21876708381E+02 -0.16309876826E+03  0.18007491536E+03  0.00000000000E+00 0.  1.
         21    1    1    2  502  501 -0.43012827345E+02 -0.15896032353E+02 -0.23636484388E+02  0.51589442282E+02  0.00000000000E+00 0.  1.
<scales pt_clust_5="13000.00000" pt_clust_6="13000.00000" pt_clust_7="13000.00000" pt_clust_8="13000.00000" pt_clust_9="45.85616"></scales>
<clustering>
<clus scale="   45.856">  2  9  1 -1</clus>
<clus scale="   90.324">  5  6 -1 -1</clus>
<clus scale="   92.458">  7  8 -1 -1</clus>
<clus scale="   97.693">  1  5  2 -1</clus>
<clus scale="   97.693">  1  5  2 -1</clus>
</clustering>
</event>
<event>
 9    1  0.2423659E-006  0.1888415E+03  0.7546771E-02  0.1174501E+00
          2   -1    0    0  502    0  0.00000000000E+00  0.00000000000E+00  0.50470638878E+03  0.50470638878E+03  0.00000000000E+00 0.  1.
         -2   -1    0    0    0  501 -0.00000000000E+00 -0.00000000000E+00 -0.30336644288E+03  0.30336644288E+03  0.00000000000E+00 0. -1.
         23    2    1    2    0    0  0.65733168327E+02  0.72599263473E+02 -0.20869311439E+03  0.24789063493E+03  0.91134232974E+02 0.  0.
         23    2    1    2    0    0 -0.13504341445E+03  0.88253147795E+02  0.12016392153E+03  0.22150605935E+03  0.92737394867E+02 0.  0.
        -13    1    4    4    0    0 -0.10549772064E+03  0.19279690272E+02  0.48339565141E+02  0.11763583244E+03  0.00000000000E+00 0.  1.
         13    1    4    4    0    0 -0.29545693811E+02  0.68973457523E+02  0.71824356393E+02  0.10387022690E+03  0.00000000000E+00 0. -1.
        -13    1    3    3    0    0  0.50336158410E+02  0.94228009919E+02 -0.17443957661E+03  0.20455271346E+03  0.00000000000E+00 0. -1.
         13    1    3    3    0    0  0.15397009917E+02 -0.21628746446E+02 -0.34253537781E+02  0.43337921475E+02  0.00000000000E+00 0.  1.
         21    1    1    2  502  501  0.69310246120E+02 -0.16085241127E+03  0.28986913875E+03  0.33867613738E+03  0.00000000000E+00 0.  1.
<scales pt_clust_5="13000.00000" pt_clust_6="13000.00000" pt_clust_7="13000.00000" pt_clust_8="13000.00000" pt_clust_9="164.50196"></scales>
<clustering>
<clus scale="   91.134">  7  8 -1 -1</clus>
<clus scale="   92.737">  5  6 -1 -1</clus>
<clus scale="  133.779">  2  7  1 -1</clus>
<clus scale="  164.502">  1  9  2 -1</clus>
<clus scale="  164.502">  1  5  2 -1</clus>
</clustering>
</event>
<event>
 9    1  0.2423659E-006  0.1867622E+03  0.7546771E-02  0.1161583E+00
         -3   -1    0    0    0  501 -0.00000000000E+00  0.00000000000E+00  0.21986222493E+03  0.21986222493E+03  0.00000000000E+00 0.  1.
          3   -1    0    0  502    0  0.00000000000E+00 -0.00000000000E+00 -0.42243500748E+03  0.42243500748E+03  0.00000000000E+00 0. -1.
         23    2    1    2    0    0  0.19349642748E+03  0.15044563615E+03 -0.67058160604E+02  0.26888421388E+03  0.87904304120E+02 0.  0.
         23    2    1    2    0    0 -0.66868707663E+02 -0.12585559716E+03 -0.17187882992E+03  0.23939210574E+03  0.86343457853E+02 0.  0.
        -13    1    4    4    0    0 -0.54941797769E+02 -0.68151694728E+02 -0.15514535284E+03  0.17813852796E+03  0.00000000000E+00 0. -1.
         13    1    4    4    0    0 -0.11926909895E+02 -0.57703902427E+02 -0.16733477079E+02  0.61253577774E+02  0.00000000000E+00 0.  1.
        -13    1    3    3    0    0  0.14706229382E+03  0.70227684924E+02 -0.17852546565E+02  0.16394498899E+03  0.00000000000E+00 0. -1.
         13    1    3    3    0    0  0.46434133660E+02  0.80217951229E+02 -0.49205614039E+02  0.10493922489E+03  0.00000000000E+00 0.  1.
         21    1    1    2  502  501 -0.12662771982E+03 -0.24590038998E+02  0.36364207978E+02  0.13402091280E+03  0.00000000000E+00 0.  1.
<scales pt_clust_5="13000.00000" pt_clust_6="13000.00000" pt_clust_7="13000.00000" pt_clust_8="13000.00000" pt_clust_9="128.99321"></scales>
<clustering>
<clus scale="   86.343">  5  6 -1 -1</clus>
<clus scale="   87.904">  7  8 -1 -1</clus>
<clus scale="  128.993">  1  9  2 -1</clus>
<clus scale="  186.033">  2  5  1 -1</clus>
<clus scale="  186.033">  2  5  1 -1</clus>
</clustering>
</event>
<event>
 9    1  0.2423659E-006  0.1005920E+03  0.7546771E-02  0.1279860E+00
         -1   -1    0    0    0  501 -0.00000000000E+00  0.00000000000E+00  0.61757884699E+02  0.61757884699E+02  0.00000000000E+00 0.  1.
          1   -1    0    0  502    0  0.00000000000E+00 -0.00000000000E+00 -0.41844780162E+03  0.41844780162E+03  0.00000000000E+00 0. -1.
         23    2    1    2    0    0  0.32924985132E+02  0.24471028340E+02 -0.18365703504E+03  0.20940560388E+03  0.91858121807E+02 0.  0.
         23    2    1    2    0    0 -0.99917038878E+01 -0.36234133050E+02 -0.20577692080E+03  0.22912901206E+03  0.93505168256E+02 0.  0.
        -11    1    4    4    0    0 -0.46155294038E+02  0.36200104462E+01 -0.82171513952E+02  0.94316347197E+02  0.00000000000E+00 0.  1.
         11    1    4    4    0    0  0.36163590150E+02 -0.39854143496E+02 -0.12360540685E+03  0.13481266487E+03  0.00000000000E+00 0. -1.
        -13    1    3    3    0    0 -0.62592408274E+01  0.35278711699E+02 -0.15643264632E+03  0.16048345220E+03  0.00000000000E+00 0.  1.
         13    1    3    3    0    0  0.39184225960E+02 -0.10807683360E+02 -0.27224388718E+02  0.48922151678E+02  0.00000000000E+00 0. -1.
         21    1    1    2  502  501 -0.22933281244E+02  0.11763104710E+02  0.32744038923E+02  0.41671070373E+02  0.00000000000E+00 0.  1.
<scales pt_clust_5="13000.00000" pt_clust_6="13000.00000" pt_clust_7="13000.00000" pt_clust_8="13000.00000" pt_clust_9="25.77413"></scales>
<clustering>
<clus scale="   25.774">  1  9  2 -1</clus>
<clus scale="   91.858">  7  8 -1 -1</clus>
<clus scale="   93.505">  5  6 -1 -1</clus>
<clus scale="   99.063">  1  7  2 -1</clus>
<clus scale="  100.592">  2  5  1 -1</clus>
</clustering>
</event>
<event>
 9    1  0.2423659E-006  0.1120784E+03  0.7546771E-02  0.1268190E+00
         -2   -1    0    0    0  501 -0.00000000000E+00  0.00000000000E+00  0.17118051260E+03  0.17118051260E+03  0.00000000000E+00 0.  1.
          2   -1    0    0  502    0  0.00000000000E+00 -0.00000000000E+00 -0.10871777186E+03  0.10871777186E+03  0.00000000000E+00 0. -1.
         23    2    1    2    0    0 -0.94817589493E+01 -0.10597588174E+02  0.10068180337E+03  0.15110259777E+03  0.11177189672E+03 0.  0.
         23    2    1    2    0    0 -0.18872024947E+02  0.11980360358E+01 -0.38273670276E+02  0.98924435900E+02  0.89238901640E+02 0.  0.
        -13    1    4    4    0    0 -0.30835434193E+02 -0.30566328288E+02 -0.46890736178E+02  0.63905129420E+02  0.00000000000E+00 0. -1.
         13    1    4    4    0    0  0.11963409246E+02  0.31764364323E+02  0.86170659015E+01  0.35019306481E+02  0.00000000000E+00 0.  1.
        -13    1    3    3    0    0  0.51153923418E+02 -0.12858499779E+01  0.41839290718E+02  0.66097681798E+02  0.00000000000E+00 0.  1.
         13    1    3    3    0    0 -0.60635682367E+02 -0.93117381957E+01  0.58842512651E+02  0.85004915972E+02  0.00000000000E+00 0. -1.
         21    1    1    2  502  501  0.28353783896E+02  0.93995521378E+01  0.54607652221E-01  0.29871250788E+02  0.00000000000E+00 0.  1.
<scales pt_clust_5="13000.00000" pt_clust_6="13000.00000" pt_clust_7="13000.00000" pt_clust_8="13000.00000" pt_clust_9="29.87120"></scales>
<clustering>
<clus scale="   29.871">  2  9  1 -1</clus>
<clus scale="   89.239">  5  6 -1 -1</clus>
<clus scale="   89.623">  2  5  1 -1</clus>
<clus scale="  111.772">  7  8 -1 -1</clus>
<clus scale="   29.871">  2  5  1 -1</clus>
</clustering>
</event>
<event>
 9    1  0.2423659E-006  0.1117264E+03  0.7546771E-02  0.1258701E+00
          2   -1    0    0  502    0  0.00000000000E+00  0.00000000000E+00  0.83942493525E+02  0.83942493525E+02  0.00000000000E+00 0. -1.
         -2   -1    0    0    0  501 -0.00000000000E+00 -0.00000000000E+00 -0.33493835561E+03  0.33493835561E+03  0.00000000000E+00 0.  1.
         23    2    1    2    0    0  0.40682700482E+02 -0.34583797924E+02 -0.20827851872E+03  0.23522001349E+03  0.95380250524E+02 0.  0.
         23    2    1    2    0    0 -0.86326229251E+02  0.99350153109E+01 -0.26824969783E+02  0.12940715613E+03  0.92063622928E+02 0.  0.
        -13    1    4    4    0    0 -0.87948072032E+02  0.32439562540E+02 -0.41474886251E+02  0.10250538904E+03  0.00000000000E+00 0. -1.
         13    1    4    4    0    0  0.16218427810E+01 -0.22504547229E+02  0.14649916468E+02  0.26901767089E+02  0.00000000000E+00 0.  1.
        -13    1    3    3    0    0  0.69572695580E+02 -0.28754155427E+02 -0.11545248908E+03  0.13782756858E+03  0.00000000000E+00 0.  1.
         13    1    3    3    0    0 -0.28889995097E+02 -0.58296424967E+01 -0.92826029637E+02  0.97392444915E+02  0.00000000000E+00 0. -1.
         21    1    1    2  502  501  0.45643528769E+02  0.24648782613E+02 -0.15892373579E+02  0.54253679513E+02  0.00000000000E+00 0.  1.
<scales pt_clust_5="13000.00000" pt_clust_6="13000.00000" pt_clust_7="13000.00000" pt_clust_8="13000.00000" pt_clust_9="51.87383"></scales>
<clustering>
<clus scale="   51.874">  1  9  2 -1</clus>
<clus scale="   92.064">  5  6 -1 -1</clus>
<clus scale="   95.380">  7  8 -1 -1</clus>
<clus scale="  108.909">  1  5  2 -1</clus>
<clus scale="   51.874">  1  5  2 -1</clus>
</clustering>
</event>
<event>
 9    1  0.2423659E-006  0.9811762E+02  0.7546771E-02  0.1286031E+00
         -2   -1    0    0    0  501 -0.00000000000E+00  0.00000000000E+00  0.93199688887E+02  0.93199688887E+02  0.00000000000E+00 0.  1.
          2   -1    0    0  502    0  0.00000000000E+00 -0.00000000000E+00 -0.18969457985E+03  0.18969457985E+03  0.00000000000E+00 0. -1.
         23    2    1    2    0    0  0.27878672332E+01  0.22885198040E+02  0.16658834266E+02  0.96147989295E+02  0.91844513137E+02 0.  0.
         23    2    1    2    0    0 -0.25395296244E+02 -0.29349239771E+02 -0.12691276578E+03  0.15950309903E+03  0.88476491420E+02 0.  0.
        -11    1    4    4    0    0 -0.33843773155E+02  0.15058645779E+02 -0.10058861954E+03  0.10719250988E+03  0.00000000000E+00 0.  1.
         11    1    4    4    0    0  0.84484769113E+01 -0.44407885550E+02 -0.26324146244E+02  0.52310589144E+02  0.00000000000E+00 0. -1.
        -13    1    3    3    0    0  0.33660962403E+02 -0.20346744227E+02  0.17422667294E+02  0.43018597445E+02  0.00000000000E+00 0.  1.
         13    1    3    3    0    0 -0.30873095169E+02  0.43231942267E+02 -0.76383302773E+00  0.53129391850E+02  0.00000000000E+00 0. -1.
         21    1    1    2  502  501  0.22607429011E+02  0.64640417313E+01  0.13759040556E+02  0.27243180413E+02  0.00000000000E+00 0. -1.
<scales pt_clust_5="13000.00000" pt_clust_6="13000.00000" pt_clust_7="13000.00000" pt_clust_8="13000.00000" pt_clust_9="23.51339"></scales>
<clustering>
<clus scale="   23.513">  1  9  2 -1</clus>
<clus scale="   88.476">  5  6 -1 -1</clus>
<clus scale="   91.845">  7  8 -1 -1</clus>
<clus scale="   94.972">  2  5  1 -1</clus>
<clus scale="   94.972">  2  5  1 -1</clus>
</clustering>
</event>
<event>
 9    1  0.2423659E-006  0.9250003E+02  0.7546771E-02  0.1299161E+00
          1   -1    0    0  502    0  0.00000000000E+00  0.00000000000E+00  0.58495842340E+02  0.58495842340E+02  0.00000000000E+00 0. -1.
         -1   -1    0    0    0  501 -0.00000000000E+00 -0.00000000000E+00 -0.28545960233E+03  0.28545960233E+03  0.00000000000E+00 0.  1.
         23    2    1    2    0    0  0.36507571118E+02  0.22891018819E+02 -0.85485602970E+02  0.13218516022E+03  0.91150023458E+02 0.  0.
         23    2    1    2    0    0  0.41841821025E+01 -0.52105148068E+01 -0.31304933552E+02  0.92999251904E+02  0.87316694541E+02 0.  0.
        -11    1    3    3    0    0  0.22385281921E+02  0.25674844548E+01 -0.10066270229E+03  0.10315363520E+03  0.00000000000E+00 0.  1.
         11    1    3    3    0    0  0.14122289197E+02  0.20323534364E+02  0.15177099320E+02  0.29031525020E+02  0.00000000000E+00 0. -1.
        -13    1    4    4    0    0  0.77888073313E+01 -0.45230622949E+02 -0.81232547691E+01  0.46609677536E+02  0.00000000000E+00 0.  1.
         13    1    4    4    0    0 -0.36046252288E+01  0.40020108142E+02 -0.23181678783E+02  0.46389574367E+02  0.00000000000E+00 0. -1.
         21    1    1    2  502  501 -0.40691753220E+02 -0.17680504012E+02 -0.11017322347E+03  0.11877103254E+03  0.00000000000E+00 0.  1.
<scales pt_clust_5="13000.00000" pt_clust_6="13000.00000" pt_clust_7="13000.00000" pt_clust_8="13000.00000" pt_clust_9="44.36687"></scales>
<clustering>
<clus scale="   44.367">  2  9  1 -1</clus>
<clus scale="   87.317">  7  8 -1 -1</clus>
<clus scale="   88.725">  1  7  2 -1</clus>
<clus scale="   91.150">  5  6 -1 -1</clus>
<clus scale="   88.725">  1  5  2 -1</clus>
</clustering>
</event>
<event>
 9    1  0.2423659E-006  0.1859960E+03  0.7546771E-02  0.1191850E+00
          1   -1    0    0  502    0  0.00000000000E+00  0.00000000000E+00  0.27509573741E+03  0.27509573741E+03  0.00000000000E+00 0. -1.
         -1   -1    0    0    0  501 -0.00000000000E+00 -0.00000000000E+00 -0.33468192640E+03  0.33468192640E+03  0.00000000000E+00 0.  1.
         23    2    1    2    0    0  0.89616694041E+02  0.13694916852E+03 -0.22940622314E+03  0.29614756792E+03  0.91049108491E+02 0.  0.
         23    2    1    2    0    0  0.39412481013E+01 -0.10454966911E+02  0.10990690277E+03  0.14527495077E+03  0.94342165942E+02 0.  0.
        -13    1    3    3    0    0  0.16895517696E+02  0.26826064581E+02 -0.24508531798E+00  0.31704200446E+02  0.00000000000E+00 0. -1.
         13    1    3    3    0    0  0.72721176345E+02  0.11012310394E+03 -0.22916113782E+03  0.26444336747E+03  0.00000000000E+00 0.  1.
        -13    1    4    4    0    0  0.46298756390E+02  0.91186976735E+01  0.43977566626E+02  0.64503890246E+02  0.00000000000E+00 0.  1.
         13    1    4    4    0    0 -0.42357508288E+02 -0.19573664584E+02  0.65929336139E+02  0.80771060519E+02  0.00000000000E+00 0. -1.
         21    1    1    2  502  501 -0.93557942142E+02 -0.12649420161E+03  0.59913131386E+02  0.16835514513E+03  0.00000000000E+00 0. -1.
<scales pt_clust_5="13000.00000" pt_clust_6="13000.00000" pt_clust_7="13000.00000" pt_clust_8="13000.00000" pt_clust_9="162.18688"></scales>
<clustering>
<clus scale="   91.049">  5  6 -1 -1</clus>
<clus scale="   94.342">  7  8 -1 -1</clus>
<clus scale="   95.001">  1  7  2 -1</clus>
<clus scale="  162.187">  1  9  2 -1</clus>
<clus scale="   95.001">  1  5  2 -1</clus>
</clustering>
</event>
<event>
 9    1  0.2423659E-006  0.1052093E+03  0.7546771E-02  0.1269731E+00
         -1   -1    0    0    0  501 -0.00000000000E+00  0.00000000000E+00  0.19957101364E+03  0.19957101364E+03  0.00000000000E+00 0.  1.
          1   -1    0    0  502    0  0.00000000000E+00 -0.00000000000E+00 -0.11466806503E+03  0.11466806503E+03  0.00000000000E+00 0. -1.
         23    2    1    2    0    0  0.40361116075E+02  0.22741236288E+01  0.66407366201E+02  0.11901049579E+03  0.90107538496E+02 0.  0.
         23    2    1    2    0    0 -0.20896324273E+02 -0.72634316222E+02 -0.71089549689E+01  0.11786562562E+03  0.90163009054E+02 0.  0.
        -11    1    4    4    0    0 -0.20457168883E+02  0.17739183808E+02  0.12447967830E+01  0.27105791261E+02  0.00000000000E+00 0.  1.
         11    1    4    4    0    0 -0.43915538937E+00 -0.90373500029E+02 -0.83537517519E+01  0.90759834361E+02  0.00000000000E+00 0. -1.
        -11    1    3    3    0    0  0.60767041698E+02  0.24903322026E+02  0.32010533761E+02  0.73058080158E+02  0.00000000000E+00 0.  1.
         11    1    3    3    0    0 -0.20405925624E+02 -0.22629198398E+02  0.34396832440E+02  0.45952415634E+02  0.00000000000E+00 0. -1.
         21    1    1    2  502  501 -0.19464791802E+02  0.70360192593E+02  0.25604537373E+02  0.77362957258E+02  0.00000000000E+00 0.  1.
<scales pt_clust_5="13000.00000" pt_clust_6="13000.00000" pt_clust_7="13000.00000" pt_clust_8="13000.00000" pt_clust_9="73.00298"></scales>
<clustering>
<clus scale="   73.003">  1  9  2 -1</clus>
<clus scale="   90.108">  7  8 -1 -1</clus>
<clus scale="   90.163">  5  6 -1 -1</clus>
<clus scale="  105.162">  1  7  2 -1</clus>
<clus scale="  105.209">  2  5  1 -1</clus>
</clustering>
</event>
<event>
 9    1  0.2423659E-006  0.9446292E+02  0.7546771E-02  0.1293371E+00
          3   -1    0    0  502    0  0.00000000000E+00  0.00000000000E+00  0.37162954672E+02  0.37162954672E+02  0.00000000000E+00 0. -1.
         -3   -1    0    0    0  501 -0.00000000000E+00 -0.00000000000E+00 -0.46688081013E+03  0.46688081013E+03  0.00000000000E+00 0.  1.
         23    2    1    2    0    0  0.12866733193E+02  0.88523519242E+01 -0.20083020137E+03  0.22209480741E+03  0.93538316959E+02 0.  0.
         23    2    1    2    0    0  0.44029086695E+02 -0.17506706602E+00 -0.17828736326E+03  0.20531463724E+03  0.91810267637E+02 0.  0.
        -11    1    4    4    0    0 -0.12254994227E+02  0.18988012175E+02 -0.11979886993E+03  0.12191184818E+03  0.00000000000E+00 0.  1.
         11    1    4    4    0    0  0.56284080922E+02 -0.19163079241E+02 -0.58488493326E+02  0.83402789059E+02  0.00000000000E+00 0. -1.
        -11    1    3    3    0    0 -0.28789345661E+02  0.32221646157E+02 -0.64465081066E+02  0.77606749587E+02  0.00000000000E+00 0.  1.
         11    1    3    3    0    0  0.41656078854E+02 -0.23369294233E+02 -0.13636512030E+03  0.14448805782E+03  0.00000000000E+00 0. -1.
         21    1    1    2  502  501 -0.56895819888E+02 -0.86772848582E+01 -0.50600290839E+02  0.76634320159E+02  0.00000000000E+00 0.  1.
<scales pt_clust_5="13000.00000" pt_clust_6="13000.00000" pt_clust_7="13000.00000" pt_clust_8="13000.00000" pt_clust_9="57.55371"></scales>
<clustering>
<clus scale="   57.554">  1  9  2 -1</clus>
<clus scale="   91.810">  5  6 -1 -1</clus>
<clus scale="   92.752">  1  5  2 -1</clus>
<clus scale="   93.538">  7  8 -1 -1</clus>
<clus scale="   57.554">  1  5  2 -1</clus>
</clustering>
</event>
<event>
 9    1  0.2423659E-006  0.1025203E+03  0.7546771E-02  0.1280149E+00
         -1   -1    0    0    0  501 -0.00000000000E+00  0.00000000000E+00  0.15279121437E+02  0.15279121437E+02  0.00000000000E+00 0.  1.
          1   -1    0    0  502    0  0.00000000000E+00 -0.00000000000E+00 -0.87080033595E+03  0.87080033595E+03  0.00000000000E+00 0. -1.
         23    2    1    2    0    0  0.48466991970E+01 -0.27948789679E+02 -0.31551387475E+03  0.32977495404E+03  0.91640001161E+02 0.  0.
         23    2    1    2    0    0 -0.12588603818E+02  0.59236589407E+02 -0.42620565014E+03  0.43802649162E+03  0.80922831600E+02 0.  0.
        -11    1    4    4    0    0  0.65490631606E+00  0.78037852313E+02 -0.33401863415E+03  0.34301426101E+03  0.00000000000E+00 0.  1.
         11    1    4    4    0    0 -0.13243510134E+02 -0.18801262906E+02 -0.92187015991E+02  0.95012230607E+02  0.00000000000E+00 0. -1.
        -13    1    3    3    0    0 -0.21313732075E+02  0.18172789840E+02 -0.37811273773E+02  0.47055476726E+02  0.00000000000E+00 0.  1.
         13    1    3    3    0    0  0.26160431272E+02 -0.46121579520E+02 -0.27770260098E+03  0.28271947732E+03  0.00000000000E+00 0. -1.
         21    1    1    2  502  501  0.77419046207E+01 -0.31287799727E+02 -0.11380168962E+03  0.11827801173E+03  0.00000000000E+00 0. -1.
<scales pt_clust_5="13000.00000" pt_clust_6="13000.00000" pt_clust_7="13000.00000" pt_clust_8="13000.00000" pt_clust_9="32.23141"></scales>
<clustering>
<clus scale="   32.231">  1  9  2 -1</clus>
<clus scale="   80.923">  5  6 -1 -1</clus>
<clus scale="   91.640">  7  8 -1 -1</clus>
<clus scale="   93.065">  2  5  1 -1</clus>
<clus scale="   93.065">  2  5  1 -1</clus>
</clustering>
</event>
<event>
 9    1  0.2423659E-006  0.1119449E+03  0.7546771E-02  0.1257307E+00
         -1   -1    0    0    0  501 -0.00000000000E+00  0.00000000000E+00  0.54685636153E+02  0.54685636153E+02  0.00000000000E+00 0.  1.
          1   -1    0    0  502    0  0.00000000000E+00 -0.00000000000E+00 -0.53601077926E+03  0.53601077926E+03  0.00000000000E+00 0. -1.
         23    2    1    2    0    0  0.31960839496E+02 -0.63666236538E+02 -0.41769259909E+02  0.12322721879E+03  0.91462513853E+02 0.  0.
         23    2    1    2    0    0 -0.53992914210E+02  0.35778456676E+02 -0.39533319081E+03  0.41073484104E+03  0.90661155634E+02 0.  0.
        -11    1    4    4    0    0 -0.22463423343E+02 -0.21075148887E+02 -0.45715704247E+02  0.55124340393E+02  0.00000000000E+00 0.  1.
         11    1    4    4    0    0 -0.31529490867E+02  0.56853605563E+02 -0.34961748657E+03  0.35561050065E+03  0.00000000000E+00 0. -1.
        -11    1    3    3    0    0  0.63426527762E+02 -0.53108940179E+02 -0.30769432475E+02  0.88262347157E+02  0.00000000000E+00 0.  1.
         11    1    3    3    0    0 -0.31465688266E+02 -0.10557296359E+02 -0.10999827434E+02  0.34964871629E+02  0.00000000000E+00 0. -1.
         21    1    1    2  502  501  0.22032074714E+02  0.27887779861E+02 -0.44222692384E+02  0.56734355583E+02  0.00000000000E+00 0.  1.
<scales pt_clust_5="13000.00000" pt_clust_6="13000.00000" pt_clust_7="13000.00000" pt_clust_8="13000.00000" pt_clust_9="35.54069"></scales>
<clustering>
<clus scale="   35.541">  1  9  2 -1</clus>
<clus scale="   90.661">  5  6 -1 -1</clus>
<clus scale="   91.463">  7  8 -1 -1</clus>
<clus scale="  111.291">  2  5  1 -1</clus>
<clus scale="  111.291">  2  5  1 -1</clus>
</clustering>
</event>
<event>
 9    1  0.2423659E-006  0.9483396E+02  0.7546771E-02  0.1291834E+00
          1   -1    0    0  502    0  0.00000000000E+00  0.00000000000E+00  0.10875949891E+03  0.10875949891E+03  0.00000000000E+00 0. -1.
         -1   -1    0    0    0  501 -0.00000000000E+00 -0.00000000000E+00 -0.15292090258E+03  0.15292090258E+03  0.00000000000E+00 0.  1.
         23    2    1    2    0    0  0.44631244157E+02  0.20117907882E+02 -0.52949184265E+02  0.11616909676E+03  0.91076697108E+02 0.  0.
         23    2    1    2    0    0 -0.16698413963E+02  0.28915061168E+01  0.36380595761E+02  0.10000262880E+03  0.91595743260E+02 0.  0.
        -11    1    4    4    0    0  0.27087985852E+02  0.28464781054E+02  0.32426977337E+01  0.39427374076E+02  0.00000000000E+00 0. -1.
         11    1    4    4    0    0 -0.43786399814E+02 -0.25573274937E+02  0.33137898027E+02  0.60575254728E+02  0.00000000000E+00 0.  1.
        -11    1    3    3    0    0 -0.25670132288E+02  0.10225378871E+02 -0.31723267237E+02  0.42069938780E+02  0.00000000000E+00 0.  1.
         11    1    3    3    0    0  0.70301376445E+02  0.98925290117E+01 -0.21225917028E+02  0.74099157985E+02  0.00000000000E+00 0. -1.
         21    1    1    2  502  501 -0.27932830194E+02 -0.23009413999E+02 -0.27592815168E+02  0.45508675921E+02  0.00000000000E+00 0.  1.
<scales pt_clust_5="13000.00000" pt_clust_6="13000.00000" pt_clust_7="13000.00000" pt_clust_8="13000.00000" pt_clust_9="36.18945"></scales>
<clustering>
<clus scale="   36.189">  2  9  1 -1</clus>
<clus scale="   91.077">  7  8 -1 -1</clus>
<clus scale="   91.596">  5  6 -1 -1</clus>
<clus scale="   94.333">  2  7  1 -1</clus>
<clus scale="   94.834">  1  5  2 -1</clus>
</clustering>
</event>
<event>
 9    1  0.2423659E-006  0.1073606E+03  0.7546771E-02  0.1266344E+00
         -2   -1    0    0    0  501 -0.00000000000E+00  0.00000000000E+00  0.38822412715E+03  0.38822412715E+03  0.00000000000E+00 0.  1.
          2   -1    0    0  502    0  0.00000000000E+00 -0.00000000000E+00 -0.68127068165E+02  0.68127068165E+02  0.00000000000E+00 0. -1.
         23    2    1    2    0    0 -0.28916137602E+02 -0.69656973301E+02  0.18153398702E+03  0.21703958683E+03  0.91996504650E+02 0.  0.
         23    2    1    2    0    0 -0.49005721150E+02  0.30897633646E+02  0.64195100309E+02  0.12483585694E+03  0.90037524424E+02 0.  0.
        -13    1    4    4    0    0 -0.71772680134E+02  0.16507167407E+02  0.26003567685E+02  0.78102430959E+02  0.00000000000E+00 0.  1.
         13    1    4    4    0    0  0.22766958984E+02  0.14390466239E+02  0.38191532624E+02  0.46733425983E+02  0.00000000000E+00 0. -1.
        -13    1    3    3    0    0 -0.36699231085E+02 -0.40508327285E+02  0.17854200840E+03  0.18672173657E+03  0.00000000000E+00 0.  1.
         13    1    3    3    0    0  0.77830934825E+01 -0.29148646016E+02  0.29919786104E+01  0.30317850265E+02  0.00000000000E+00 0. -1.
         21    1    1    2  502  501  0.77921858752E+02  0.38759339655E+02  0.74367971664E+02  0.11447575154E+03  0.00000000000E+00 0. -1.
<scales pt_clust_5="13000.00000" pt_clust_6="13000.00000" pt_clust_7="13000.00000" pt_clust_8="13000.00000" pt_clust_9="87.02932"></scales>
<clustering>
<clus scale="   87.029">  2  9  1 -1</clus>
<clus scale="   90.038">  5  6 -1 -1</clus>
<clus scale="   91.997">  7  8 -1 -1</clus>
<clus scale="  105.687">  2  5  1 -1</clus>
<clus scale="   87.029">  2  5  1 -1</clus>
</clustering>
</event>
<event>
 9    1  0.2423659E-006  0.9128251E+02  0.7546771E-02  0.1299800E+00
         -1   -1    0    0    0  501 -0.00000000000E+00  0.00000000000E+00  0.69496424189E+02  0.69496424189E+02  0.00000000000E+00 0.  1.
          1   -1    0    0  502    0  0.00000000000E+00 -0.00000000000E+00 -0.20459739274E+03  0.20459739274E+03  0.00000000000E+00 0. -1.
         23    2    1    2    0    0  0.72570823893E+01 -0.14216328852E+01 -0.23182796732E+01  0.91221705215E+02  0.90891907213E+02 0.  0.
         23    2    1    2    0    0 -0.29417662956E+00 -0.27867526136E+02 -0.10819114008E+03  0.14399948426E+03  0.90850663856E+02 0.  0.
        -11    1    4    4    0    0  0.33064574089E+02  0.11280072163E+02 -0.75134806508E+02  0.82859792642E+02  0.00000000000E+00 0. -1.
         11    1    4    4    0    0 -0.33358750719E+02 -0.39147598299E+02 -0.33056333570E+02  0.61139691618E+02  0.00000000000E+00 0.  1.
        -13    1    3    3    0    0  0.21520823563E+02  0.39677810371E+02  0.95288258989E+01  0.46133209358E+02  0.00000000000E+00 0. -1.
         13    1    3    3    0    0 -0.14263741174E+02 -0.41099443256E+02 -0.11847105572E+02  0.45088495857E+02  0.00000000000E+00 0.  1.
         21    1    1    2  502  501 -0.69629057597E+01  0.29289159021E+02 -0.24591548803E+02  0.38872627456E+02  0.00000000000E+00 0. -1.
<scales pt_clust_5="13000.00000" pt_clust_6="13000.00000" pt_clust_7="13000.00000" pt_clust_8="13000.00000" pt_clust_9="30.10543"></scales>
<clustering>
<clus scale="   30.105">  2  9  1 -1</clus>
<clus scale="   90.851">  5  6 -1 -1</clus>
<clus scale="   90.892">  7  8 -1 -1</clus>
<clus scale="   91.241">  2  5  1 -1</clus>
<clus scale="   30.105">  2  5  1 -1</clus>
</clustering>
</event>
<event>
 9    1  0.2423659E-006  0.9687153E+02  0.7546771E-02  0.1287582E+00
         -2   -1    0    0    0  501 -0.00000000000E+00  0.00000000000E+00  0.18937250295E+03  0.18937250295E+03  0.00000000000E+00 0.  1.
          2   -1    0    0  502    0  0.00000000000E+00 -0.00000000000E+00 -0.44827719338E+03  0.44827719338E+03  0.00000000000E+00 0. -1.
         23    2    1    2    0    0 -0.18670356929E+02 -0.26997287445E+02  0.14623098134E+03  0.17417850985E+03  0.88753690812E+02 0.  0.
         23    2    1    2    0    0  0.22923938598E+02  0.10888403494E+03 -0.26336894727E+03  0.29969897714E+03  0.89861195688E+02 0.  0.
        -13    1    3    3    0    0 -0.50827470358E+02 -0.24434224414E+02  0.12003414238E+03  0.13262223947E+03  0.00000000000E+00 0.  1.
         13    1    3    3    0    0  0.32157113429E+02 -0.25630630307E+01  0.26196838958E+02  0.41556270376E+02  0.00000000000E+00 0. -1.
        -13    1    4    4    0    0 -0.11827451009E+02  0.88632583653E+02 -0.11330745586E+03  0.14434058001E+03  0.00000000000E+00 0. -1.
         13    1    4    4    0    0  0.34751389606E+02  0.20251451290E+02 -0.15006149140E+03  0.15535839714E+03  0.00000000000E+00 0.  1.
         21    1    1    2  502  501 -0.42535816690E+01 -0.81886747498E+02 -0.14176672451E+03  0.16377220934E+03  0.00000000000E+00 0.  1.
<scales pt_clust_5="13000.00000" pt_clust_6="13000.00000" pt_clust_7="13000.00000" pt_clust_8="13000.00000" pt_clust_9="81.99715"></scales>
<clustering>
<clus scale="   81.997">  2  9  1 -1</clus>
<clus scale="   88.754">  5  6 -1 -1</clus>
<clus scale="   89.861">  7  8 -1 -1</clus>
<clus scale="   95.845">  1  5  2 -1</clus>
<clus scale="   81.997">  2  5  1 -1</clus>
</clustering>
</event>
<event>
 9    1  0.2423659E-006  0.1589314E+03  0.7546771E-02  0.1190118E+00
          1   -1    0    0  502    0  0.00000000000E+00  0.00000000000E+00  0.81345989324E+03  0.81345989324E+03  0.00000000000E+00 0. -1.
         -1   -1    0    0    0  501 -0.00000000000E+00 -0.00000000000E+00 -0.93711375481E+03  0.93711375481E+03  0.00000000000E+00 0.  1.
         23    2    1    2    0    0 -0.17725252695E+03 -0.10334608629E+03 -0.62437478268E+03  0.66354181902E+03  0.91350996025E+02 0.  0.
         23    2    1    2    0    0  0.11221669285E+03  0.63906858195E+02  0.78095072937E+03  0.79666334267E+03  0.90065349480E+02 0.  0.
        -11    1    4    4    0    0 -0.12092384053E+02  0.20716245586E+02  0.82203553516E+02  0.85631844508E+02  0.00000000000E+00 0.  1.
         11    1    4    4    0    0  0.12430907691E+03  0.43190612609E+02  0.69874717585E+03  0.71103149817E+03  0.00000000000E+00 0. -1.
        -13    1    3    3    0    0 -0.15356491478E+03 -0.11989433441E+03 -0.52219269621E+03  0.55735271279E+03  0.00000000000E+00 0.  1.
         13    1    3    3    0    0 -0.23687612170E+02  0.16548248125E+02 -0.10218208647E+03  0.10618910623E+03  0.00000000000E+00 0. -1.
         21    1    1    2  502  501  0.65035834102E+02  0.39439228092E+02 -0.28022980827E+03  0.29036848636E+03  0.00000000000E+00 0. -1.
<scales pt_clust_5="13000.00000" pt_clust_6="13000.00000" pt_clust_7="13000.00000" pt_clust_8="13000.00000" pt_clust_9="76.05993"></scales>
<clustering>
<clus scale="   76.060">  2  9  1 -1</clus>
<clus scale="   90.065">  5  6 -1 -1</clus>
<clus scale="   91.351">  7  8 -1 -1</clus>
<clus scale="  158.196">  1  5  2 -1</clus>
<clus scale="  158.196">  1  5  2 -1</clus>
</clustering>
</event>
<event>
 9    1  0.2423659E-006  0.1541321E+03  0.7546771E-02  0.1216390E+00
          2   -1    0    0  502    0  0.00000000000E+00  0.00000000000E+00  0.77716250729E+03  0.77716250729E+03  0.00000000000E+00 0. -1.
         -2   -1    0    0    0  501 -0.00000000000E+00 -0.00000000000E+00 -0.15355380198E+03  0.15355380198E+03  0.00000000000E+00 0.  1.
         23    2    1    2    0    0 -0.29126609636E+02 -0.12597546570E+02 -0.10647970189E+03  0.14493593119E+03  0.93066855893E+02 0.  0.
         23    2    1    2    0    0 -0.11026387703E+03 -0.12924061385E+02  0.43831197384E+03  0.46141245842E+03  0.91972367799E+02 0.  0.
        -11    1    3    3    0    0  0.33649520719E+02 -0.11157026512E+02 -0.35556167910E+02  0.50209666019E+02  0.00000000000E+00 0.  1.
         11    1    3    3    0    0 -0.62776130355E+02 -0.14405200582E+01 -0.70923533980E+02  0.94726265168E+02  0.00000000000E+00 0. -1.
        -13    1    4    4    0    0 -0.18189683075E+02 -0.33289335467E+02  0.55976645207E+02  0.67619739979E+02  0.00000000000E+00 0.  1.
         13    1    4    4    0    0 -0.92074193951E+02  0.20365274082E+02  0.38233532863E+03  0.39379271844E+03  0.00000000000E+00 0. -1.
         21    1    1    2  502  501  0.13939048666E+03  0.25521607955E+02  0.29177643336E+03  0.32436791967E+03  0.00000000000E+00 0.  1.
<scales pt_clust_5="13000.00000" pt_clust_6="13000.00000" pt_clust_7="13000.00000" pt_clust_8="13000.00000" pt_clust_9="123.68418"></scales>
<clustering>
<clus scale="   91.972">  7  8 -1 -1</clus>
<clus scale="   93.067">  5  6 -1 -1</clus>
<clus scale="   98.329">  2  5  1 -1</clus>
<clus scale="  123.684">  2  9  1 -1</clus>
<clus scale="  154.132">  1  5  2 -1</clus>
</clustering>
</event>
<event>
 9    1  0.2423659E-006  0.1769721E+03  0.7546771E-02  0.1199793E+00
         -2   -1    0    0    0  501 -0.00000000000E+00  0.00000000000E+00  0.71916016001E+02  0.71916016001E+02  0.00000000000E+00 0.  1.
          2   -1    0    0  502    0  0.00000000000E+00 -0.00000000000E+00 -0.78659422990E+03  0.78659422990E+03  0.00000000000E+00 0. -1.
         23    2    1    2    0    0  0.13858481660E+03 -0.77809548999E+02 -0.37335853896E+03  0.41626016045E+03  0.92821577534E+02 0.  0.
         23    2    1    2    0    0 -0.99720292883E+01  0.46425531314E+01 -0.25412091004E+03  0.27049944370E+03  0.92040846649E+02 0.  0.
        -11    1    4    4    0    0 -0.33055857766E+02 -0.33667096930E+02 -0.14797481038E+03  0.15531486617E+03  0.00000000000E+00 0.  1.
         11    1    4    4    0    0  0.23083828478E+02  0.38309650062E+02 -0.10614609967E+03  0.11518457753E+03  0.00000000000E+00 0. -1.
        -11    1    3    3    0    0  0.92189009351E+02 -0.42050892972E+02 -0.12410429009E+03  0.16021537337E+03  0.00000000000E+00 0. -1.
         11    1    3    3    0    0  0.46395807247E+02 -0.35758656027E+02 -0.24925424888E+03  0.25604478708E+03  0.00000000000E+00 0.  1.
         21    1    1    2  502  501 -0.12861278731E+03  0.73166995868E+02 -0.87198764897E+02  0.17175064176E+03  0.00000000000E+00 0.  1.
<scales pt_clust_5="13000.00000" pt_clust_6="13000.00000" pt_clust_7="13000.00000" pt_clust_8="13000.00000" pt_clust_9="150.67603"></scales>
<clustering>
<clus scale="   92.041">  5  6 -1 -1</clus>
<clus scale="   92.696">  2  5  1 -1</clus>
<clus scale="   92.822">  7  8 -1 -1</clus>
<clus scale="  150.676">  1  9  2 -1</clus>
<clus scale="   92.696">  2  5  1 -1</clus>
</clustering>
</event>
<event>
 9    1  0.2423659E-006  0.9763565E+02  0.7546771E-02  0.1287491E+00
          1   -1    0    0  502    0  0.00000000000E+00  0.00000000000E+00  0.41314011458E+02  0.41314011458E+02  0.00000000000E+00 0. -1.
         -1   -1    0    0    0  501 -0.00000000000E+00 -0.00000000000E+00 -0.35990300857E+03  0.35990300857E+03  0.00000000000E+00 0.  1.
         23    2    1    2    0    0 -0.37832416989E+01 -0.29730033229E+02 -0.18386943024E+03  0.20729377767E+03  0.90909598437E+02 0.  0.
         23    2    1    2    0    0 -0.28975952474E+02  0.71850319395E+01 -0.10134956018E+03  0.14200986034E+03  0.94888548208E+02 0.  0.
        -11    1    3    3    0    0 -0.31454872742E+02  0.67075489990E+01 -0.14090675432E+03  0.14453066680E+03  0.00000000000E+00 0.  1.
         11    1    3    3    0    0  0.27671631043E+02 -0.36437582228E+02 -0.42962675925E+02  0.62763110868E+02  0.00000000000E+00 0. -1.
        -11    1    4    4    0    0  0.45881024936E+01 -0.40029625166E+02 -0.30745531311E+02  0.50682435528E+02  0.00000000000E+00 0.  1.
         11    1    4    4    0    0 -0.33564054968E+02  0.47214657105E+02 -0.70604028866E+02  0.91327424816E+02  0.00000000000E+00 0. -1.
         21    1    1    2  502  501  0.32759194173E+02  0.22545001290E+02 -0.33370006694E+02  0.51913382020E+02  0.00000000000E+00 0. -1.
<scales pt_clust_5="13000.00000" pt_clust_6="13000.00000" pt_clust_7="13000.00000" pt_clust_8="13000.00000" pt_clust_9="39.76735"></scales>
<clustering>
<clus scale="   39.767">  1  9  2 -1</clus>
<clus scale="   90.910">  5  6 -1 -1</clus>
<clus scale="   93.773">  2  5  1 -1</clus>
<clus scale="   94.889">  7  8 -1 -1</clus>
<clus scale="   39.767">  1  5  2 -1</clus>
</clustering>
</event>
<event>
 9    1  0.2423659E-006  0.2188792E+03  0.7546771E-02  0.1170078E+00
         -2   -1    0    0    0  501 -0.00000000000E+00  0.00000000000E+00  0.15673585448E+03  0.15673585448E+03  0.00000000000E+00 0.  1.
          2   -1    0    0  502    0  0.00000000000E+00 -0.00000000000E+00 -0.61144946460E+03  0.61144946460E+03  0.00000000000E+00 0. -1.
         23    2    1    2    0    0 -0.30605172095E+02 -0.17722104494E+02 -0.38167511900E+02  0.10240331966E+03  0.88198250353E+02 0.  0.
         23    2    1    2    0    0 -0.17091196620E+03 -0.18522549934E+02  0.71438026307E+01  0.19521217030E+03  0.92210479185E+02 0.  0.
        -11    1    3    3    0    0 -0.52500779402E+02 -0.38277942688E+02 -0.27043046765E+02  0.70376552293E+02  0.00000000000E+00 0. -1.
         11    1    3    3    0    0  0.21895607307E+02  0.20555838194E+02 -0.11124465134E+02  0.32026767363E+02  0.00000000000E+00 0.  1.
        -11    1    4    4    0    0 -0.53970436513E+02  0.10383543873E+02 -0.37729646110E+02  0.66664474770E+02  0.00000000000E+00 0. -1.
         11    1    4    4    0    0 -0.11694152968E+03 -0.28906093807E+02  0.44873448741E+02  0.12854769553E+03  0.00000000000E+00 0.  1.
         21    1    1    2  502  501  0.20151713829E+03  0.36244654429E+02 -0.42368990085E+03  0.47056982912E+03  0.00000000000E+00 0. -1.
<scales pt_clust_5="13000.00000" pt_clust_6="13000.00000" pt_clust_7="13000.00000" pt_clust_8="13000.00000" pt_clust_9="198.50771"></scales>
<clustering>
<clus scale="   88.198">  5  6 -1 -1</clus>
<clus scale="   92.210">  7  8 -1 -1</clus>
<clus scale="   95.025">  1  5  2 -1</clus>
<clus scale="  198.508">  2  9  1 -1</clus>
<clus scale="  198.508">  2  5  1 -1</clus>
</clustering>
</event>
<event>
 9    1  0.2423659E-006  0.1674590E+03  0.7546771E-02  0.1181295E+00
         -2   -1    0    0    0  501 -0.00000000000E+00  0.00000000000E+00  0.24073403265E+03  0.24073403265E+03  0.00000000000E+00 0.  1.
          2   -1    0    0  502    0  0.00000000000E+00 -0.00000000000E+00 -0.28812583448E+03  0.28812583448E+03  0.00000000000E+00 0. -1.
         23    2    1    2    0    0 -0.93490105805E+02 -0.56876444209E+02  0.50147842942E+02  0.14747043241E+03  0.85190330982E+02 0.  0.
         23    2    1    2    0    0  0.17039049365E+03  0.12770995598E+03  0.96959348399E+01  0.23162119519E+03  0.90617954757E+02 0.  0.
        -11    1    3    3    0    0 -0.17376262328E+02 -0.10731013140E+02  0.54655728891E+02  0.58346703729E+02  0.00000000000E+00 0.  1.
         11    1    3    3    0    0 -0.76113843477E+02 -0.46145431069E+02 -0.45078859489E+01  0.89123728676E+02  0.00000000000E+00 0. -1.
        -11    1    4    4    0    0  0.12764638004E+03  0.61250342075E+02 -0.27595052836E+02  0.14424524145E+03  0.00000000000E+00 0. -1.
         11    1    4    4    0    0  0.42744113615E+02  0.66459613906E+02  0.37290987676E+02  0.87375953735E+02  0.00000000000E+00 0.  1.
         21    1    1    2  502  501 -0.76900387845E+02 -0.70833511773E+02 -0.10723557961E+03  0.14976823954E+03  0.00000000000E+00 0.  1.
<scales pt_clust_5="13000.00000" pt_clust_6="13000.00000" pt_clust_7="13000.00000" pt_clust_8="13000.00000" pt_clust_9="104.55169"></scales>
<clustering>
<clus scale="   85.190">  5  6 -1 -1</clus>
<clus scale="   90.618">  7  8 -1 -1</clus>
<clus scale="  104.552">  2  9  1 -1</clus>
<clus scale="  164.585">  1  5  2 -1</clus>
<clus scale="  104.552">  2  5  1 -1</clus>
</clustering>
</event>
<event>
 9    1  0.2423659E-006  0.1628067E+03  0.7546771E-02  0.1211219E+00
          1   -1    0    0  502    0  0.00000000000E+00  0.00000000000E+00  0.38493324279E+03  0.38493324279E+03  0.00000000000E+00 0. -1.
         -1   -1    0    0    0  501 -0.00000000000E+00 -0.00000000000E+00 -0.12669734446E+03  0.12669734446E+03  0.00000000000E+00 0.  1.
         23    2    1    2    0    0  0.10117565166E+02  0.59687752408E+00  0.20427583926E+02  0.95321934288E+02  0.92554111652E+02 0.  0.
         23    2    1    2    0    0 -0.86442071427E+02 -0.10972658153E+03  0.30376593900E+02  0.16980785940E+03  0.91650516925E+02 0.  0.
        -11    1    3    3    0    0  0.25635115112E+02  0.29167738178E+02  0.41297780347E+02  0.56687059712E+02  0.00000000000E+00 0. -1.
         11    1    3    3    0    0 -0.15517549946E+02 -0.28570860654E+02 -0.20870196421E+02  0.38634874576E+02  0.00000000000E+00 0.  1.
        -11    1    4    4    0    0  0.86479750966E+01 -0.56392898720E+02  0.17158699448E+01  0.57077935395E+02  0.00000000000E+00 0.  1.
         11    1    4    4    0    0 -0.95090046524E+02 -0.53333682806E+02  0.28660723955E+02  0.11272992401E+03  0.00000000000E+00 0. -1.
         21    1    1    2  502  501  0.76324506262E+02  0.10912970400E+03  0.20743172050E+03  0.24650079355E+03  0.00000000000E+00 0. -1.
<scales pt_clust_5="13000.00000" pt_clust_6="13000.00000" pt_clust_7="13000.00000" pt_clust_8="13000.00000" pt_clust_9="134.55926"></scales>
<clustering>
<clus scale="   91.651">  7  8 -1 -1</clus>
<clus scale="   92.554">  5  6 -1 -1</clus>
<clus scale="   93.107">  2  5  1 -1</clus>
<clus scale="  134.559">  1  9  2 -1</clus>
<clus scale="  134.559">  1  5  2 -1</clus>
</clustering>
</event>
<event>
 9    1  0.2423659E-006  0.1176453E+03  0.7546771E-02  0.1247883E+00
         -1   -1    0    0    0  501 -0.00000000000E+00  0.00000000000E+00  0.35750613301E+02  0.35750613301E+02  0.00000000000E+00 0.  1.
          1   -1    0    0  502    0  0.00000000000E+00 -0.00000000000E+00 -0.83006115440E+03  0.83006115440E+03  0.00000000000E+00 0. -1.
         23    2    1    2    0    0  0.48928093332E+02  0.46912489015E+01 -0.17468318601E+03  0.20277997724E+03  0.90496063784E+02 0.  0.
         23    2    1    2    0    0 -0.47343140226E+02 -0.83594052129E+02 -0.51440350828E+03  0.53150148076E+03  0.93024277703E+02 0.  0.
        -11    1    3    3    0    0  0.73309710919E+02  0.77508389966E+00 -0.99139927156E+02  0.12330303981E+03  0.00000000000E+00 0.  1.
         11    1    3    3    0    0 -0.24381617586E+02  0.39161650018E+01 -0.75543258852E+02  0.79476937425E+02  0.00000000000E+00 0. -1.
        -11    1    4    4    0    0 -0.15012422293E+01 -0.80888668000E+02 -0.23966704699E+03  0.25295360000E+03  0.00000000000E+00 0.  1.
         11    1    4    4    0    0 -0.45841897996E+02 -0.27053841291E+01 -0.27473646129E+03  0.27854788076E+03  0.00000000000E+00 0. -1.
         21    1    1    2  502  501 -0.15849531068E+01  0.78902803228E+02 -0.10522384681E+03  0.13153030971E+03  0.00000000000E+00 0.  1.
<scales pt_clust_5="13000.00000" pt_clust_6="13000.00000" pt_clust_7="13000.00000" pt_clust_8="13000.00000" pt_clust_9="78.91872"></scales>
<clustering>
<clus scale="   78.919">  1  9  2 -1</clus>
<clus scale="   90.496">  5  6 -1 -1</clus>
<clus scale="   93.024">  7  8 -1 -1</clus>
<clus scale="  115.657">  1  5  2 -1</clus>
<clus scale="  117.645">  2  5  1 -1</clus>
</clustering>
</event>
<event>
 9    1  0.2423659E-006  0.2258645E+03  0.7546771E-02  0.1154197E+00
         -1   -1    0    0    0  501 -0.00000000000E+00  0.00000000000E+00  0.95727882448E+02  0.95727882448E+02  0.00000000000E+00 0.  1.
          1   -1    0    0  502    0  0.00000000000E+00 -0.00000000000E+00 -0.91494165808E+03  0.91494165808E+03  0.00000000000E+00 0. -1.
         23    2    1    2    0    0 -0.15098286180E+03  0.19337457763E+03 -0.22055667972E+03  0.34116124954E+03  0.86926390626E+02 0.  0.
         23    2    1    2    0    0  0.77997316517E+02 -0.39534487879E+02 -0.31184082595E+03  0.33595584271E+03  0.89303249691E+02 0.  0.
        -11    1    4    4    0    0  0.67810916893E+02  0.14077667341E+02 -0.15141149827E+03  0.16649907800E+03  0.00000000000E+00 0. -1.
         11    1    4    4    0    0  0.10186399624E+02 -0.53612155219E+02 -0.16042932768E+03  0.16945676470E+03  0.00000000000E+00 0.  1.
        -13    1    3    3    0    0 -0.12560124991E+03  0.18490243506E+03 -0.22109118322E+03  0.31439767138E+03  0.00000000000E+00 0.  1.
         13    1    3    3    0    0 -0.25381611894E+02  0.84721425717E+01  0.53450350238E+00  0.26763578163E+02  0.00000000000E+00 0. -1.
         21    1    1    2  502  501  0.72985545283E+02 -0.15384008976E+03 -0.28681626997E+03  0.33355244828E+03  0.00000000000E+00 0. -1.
<scales pt_clust_5="13000.00000" pt_clust_6="13000.00000" pt_clust_7="13000.00000" pt_clust_8="13000.00000" pt_clust_9="208.46723"></scales>
<clustering>
<clus scale="   86.926">  7  8 -1 -1</clus>
<clus scale="   89.303">  5  6 -1 -1</clus>
<clus scale="  124.987">  2  5  1 -1</clus>
<clus scale="  208.467">  2  9  1 -1</clus>
<clus scale="  124.987">  2  5  1 -1</clus>
</clustering>
</event>
<event>
 9    1  0.2423659E-006  0.1310600E+03  0.7546771E-02  0.1226214E+00
         -1   -1    0    0    0  501 -0.00000000000E+00  0.00000000000E+00  0.29721737679E+03  0.29721737679E+03  0.00000000000E+00 0.  1.
          1   -1    0    0  502    0  0.00000000000E+00 -0.00000000000E+00 -0.15376344035E+03  0.15376344035E+03  0.00000000000E+00 0. -1.
         23    2    1    2    0    0 -0.89295971753E+02  0.31919565808E+02  0.23403547592E+03  0.26828822438E+03  0.90627468781E+02 0.  0.
         23    2    1    2    0    0  0.95215669345E+02 -0.10602838988E+02 -0.92672620978E+02  0.16047057027E+03  0.89354045014E+02 0.  0.
        -13    1    3    3    0    0 -0.10283491888E+02 -0.21364562652E+02  0.10633899172E+03  0.10895033687E+03  0.00000000000E+00 0. -1.
         13    1    3    3    0    0 -0.79012479865E+02  0.53284128460E+02  0.12769648420E+03  0.15933788751E+03  0.00000000000E+00 0.  1.
        -13    1    4    4    0    0  0.10679084491E+03  0.94152309102E+01 -0.82170027198E+02  0.13507347815E+03  0.00000000000E+00 0. -1.
         13    1    4    4    0    0 -0.11575175569E+02 -0.20018069899E+02 -0.10502593780E+02  0.25397092117E+02  0.00000000000E+00 0.  1.
         21    1    1    2  502  501 -0.59196975925E+01 -0.21316726819E+02  0.20910814949E+01  0.22222022493E+02  0.00000000000E+00 0.  1.
<scales pt_clust_5="13000.00000" pt_clust_6="13000.00000" pt_clust_7="13000.00000" pt_clust_8="13000.00000" pt_clust_9="22.12342"></scales>
<clustering>
<clus scale="   22.123">  2  9  1 -1</clus>
<clus scale="   89.354">  7  8 -1 -1</clus>
<clus scale="   90.627">  5  6 -1 -1</clus>
<clus scale="  130.183">  2  7  1 -1</clus>
<clus scale="   22.123">  2  5  1 -1</clus>
</clustering>
</event>
<event>
 9    1  0.2423659E-006  0.1148131E+03  0.7546771E-02  0.1252394E+00
          1   -1    0    0  502    0  0.00000000000E+00  0.00000000000E+00  0.16363771612E+03  0.16363771612E+03  0.00000000000E+00 0. -1.
         -1   -1    0    0    0  501 -0.00000000000E+00 -0.00000000000E+00 -0.23425198195E+03  0.23425198195E+03  0.00000000000E+00 0.  1.
         23    2    1    2    0    0 -0.40474576588E+02 -0.51015137736E+01 -0.66687119701E+02  0.11908505194E+03  0.89832404342E+02 0.  0.
         23    2    1    2    0    0  0.11897048395E+03  0.24880821141E+02 -0.76450938938E+02  0.17011918713E+03  0.91229164487E+02 0.  0.
        -11    1    3    3    0    0  0.17525625032E+02  0.22667272110E+02 -0.40595164485E+02  0.49688229363E+02  0.00000000000E+00 0. -1.
         11    1    3    3    0    0 -0.58000201620E+02 -0.27768785884E+02 -0.26091955215E+02  0.69396822581E+02  0.00000000000E+00 0.  1.
        -13    1    4    4    0    0  0.42244123397E+02 -0.73487606736E+01 -0.75577677514E+02  0.86893932949E+02  0.00000000000E+00 0.  1.
         13    1    4    4    0    0  0.76726360556E+02  0.32229581815E+02 -0.87326142438E+00  0.83225254182E+02  0.00000000000E+00 0. -1.
         21    1    1    2  502  501 -0.78495907365E+02 -0.19779307368E+02  0.72523792812E+02  0.10868545899E+03  0.00000000000E+00 0.  1.
<scales pt_clust_5="13000.00000" pt_clust_6="13000.00000" pt_clust_7="13000.00000" pt_clust_8="13000.00000" pt_clust_9="80.94954"></scales>
<clustering>
<clus scale="   80.950">  1  9  2 -1</clus>
<clus scale="   89.832">  5  6 -1 -1</clus>
<clus scale="   91.229">  7  8 -1 -1</clus>
<clus scale="  113.706">  2  5  1 -1</clus>
<clus scale="   80.950">  1  5  2 -1</clus>
</clustering>
</event>
<event>
 9    1  0.2423659E-006  0.1626798E+03  0.7546771E-02  0.1205722E+00
         -1   -1    0    0    0  501 -0.00000000000E+00  0.00000000000E+00  0.24731421309E+03  0.24731421309E+03  0.00000000000E+00 0.  1.
          1   -1    0    0  502    0  0.00000000000E+00 -0.00000000000E+00 -0.25245871611E+03  0.25245871611E+03  0.00000000000E+00 0. -1.
         23    2    1    2    0    0  0.12521508087E+02  0.48849764291E+02  0.13145815337E+03  0.16823342412E+03  0.92076876936E+02 0.  0.
         23    2    1    2    0    0  0.12297954705E+02  0.10663746336E+03 -0.37089774312E+02  0.14527330474E+03  0.90586386557E+02 0.  0.
        -13    1    4    4    0    0 -0.31446720870E+02  0.79668186025E+01 -0.10724425613E+02  0.34166939530E+02  0.00000000000E+00 0. -1.
         13    1    4    4    0    0  0.43744675575E+02  0.98670644753E+02 -0.26365348699E+02  0.11110636521E+03  0.00000000000E+00 0.  1.
        -13    1    3    3    0    0  0.28186234253E+02 -0.18030258993E+02  0.62548262991E+02  0.70935458298E+02  0.00000000000E+00 0. -1.
         13    1    3    3    0    0 -0.15664726166E+02  0.66880023284E+02  0.68909890380E+02  0.97297965819E+02  0.00000000000E+00 0.  1.
         21    1    1    2  502  501 -0.24819462792E+02 -0.15548722765E+03 -0.99512882073E+02  0.18626620035E+03  0.00000000000E+00 0. -1.
<scales pt_clust_5="13000.00000" pt_clust_6="13000.00000" pt_clust_7="13000.00000" pt_clust_8="13000.00000" pt_clust_9="135.12525"></scales>
<clustering>
<clus scale="   90.586">  5  6 -1 -1</clus>
<clus scale="   92.077">  7  8 -1 -1</clus>
<clus scale="  104.982">  1  7  2 -1</clus>
<clus scale="  135.125">  2  9  1 -1</clus>
<clus scale="  135.125">  2  5  1 -1</clus>
</clustering>
</event>
<event>
 9    1  0.2423659E-006  0.1450573E+03  0.7546771E-02  0.1225998E+00
         -1   -1    0    0    0  501 -0.00000000000E+00  0.00000000000E+00  0.11020557152E+03  0.11020557152E+03  0.00000000000E+00 0.  1.
          1   -1    0    0  502    0  0.00000000000E+00 -0.00000000000E+00 -0.66172304698E+03  0.66172304698E+03  0.00000000000E+00 0. -1.
         23    2    1    2    0    0 -0.23098947393E+02 -0.15851538222E+02  0.36242542041E+02  0.10303463783E+03  0.92291831191E+02 0.  0.
         23    2    1    2    0    0 -0.28801429392E+02 -0.86766691696E+02 -0.91561073404E+02  0.15954386303E+03  0.93342556982E+02 0.  0.
        -11    1    3    3    0    0 -0.24413508103E+02 -0.50071976211E+02  0.40004909230E+02  0.68582905611E+02  0.00000000000E+00 0.  1.
         11    1    3    3    0    0  0.13145607095E+01  0.34220437989E+02 -0.37623671897E+01  0.34451732219E+02  0.00000000000E+00 0. -1.
        -11    1    4    4    0    0 -0.75468794336E+01 -0.94665725590E+02 -0.39677116330E+02  0.10292146788E+03  0.00000000000E+00 0.  1.
         11    1    4    4    0    0 -0.21254549959E+02  0.78990338933E+01 -0.51883957075E+02  0.56622395146E+02  0.00000000000E+00 0. -1.
         21    1    1    2  502  501  0.51900376786E+02  0.10261822992E+03 -0.49619894409E+03  0.50935011764E+03  0.00000000000E+00 0. -1.
<scales pt_clust_5="13000.00000" pt_clust_6="13000.00000" pt_clust_7="13000.00000" pt_clust_8="13000.00000" pt_clust_9="111.03508"></scales>
<clustering>
<clus scale="   92.292">  5  6 -1 -1</clus>
<clus scale="   93.343">  7  8 -1 -1</clus>
<clus scale="   96.450">  1  5  2 -1</clus>
<clus scale="  111.035">  2  9  1 -1</clus>
<clus scale="  111.035">  2  5  1 -1</clus>
</clustering>
</event>
<event>
 9    1  0.2423659E-006  0.9177849E+02  0.7546771E-02  0.1298710E+00
         -2   -1    0    0    0  501 -0.00000000000E+00  0.00000000000E+00  0.79588672994E+02  0.79588672994E+02  0.00000000000E+00 0.  1.
          2   -1    0    0  502    0  0.00000000000E+00 -0.00000000000E+00 -0.20820809715E+03  0.20820809715E+03  0.00000000000E+00 0. -1.
         23    2    1    2    0    0  0.10259928960E+02  0.41192117651E+02 -0.30994094897E+02  0.10537205562E+03  0.91326773124E+02 0.  0.
         23    2    1    2    0    0 -0.64351419797E+01  0.18390532025E+02 -0.70418354129E+02  0.11681266812E+03  0.91141824173E+02 0.  0.
        -11    1    4    4    0    0  0.36202976776E+02 -0.12004038823E+02 -0.43778642373E+02  0.58063086411E+02  0.00000000000E+00 0. -1.
         11    1    4    4    0    0 -0.42638118756E+02  0.30394570848E+02 -0.26639711756E+02  0.58749581705E+02  0.00000000000E+00 0.  1.
        -13    1    3    3    0    0  0.22090204145E+02  0.22181833320E+02 -0.60626262193E+02  0.68231624017E+02  0.00000000000E+00 0. -1.
         13    1    3    3    0    0 -0.11830275185E+02  0.19010284331E+02  0.29632167296E+02  0.37140431607E+02  0.00000000000E+00 0.  1.
         21    1    1    2  502  501 -0.38247869806E+01 -0.59582649676E+02 -0.27206975133E+02  0.65612046407E+02  0.00000000000E+00 0.  1.
<scales pt_clust_5="13000.00000" pt_clust_6="13000.00000" pt_clust_7="13000.00000" pt_clust_8="13000.00000" pt_clust_9="59.70529"></scales>
<clustering>
<clus scale="   59.705">  1  9  2 -1</clus>
<clus scale="   91.142">  5  6 -1 -1</clus>
<clus scale="   91.327">  7  8 -1 -1</clus>
<clus scale="   91.594">  2  5  1 -1</clus>
<clus scale="   91.594">  2  5  1 -1</clus>
</clustering>
</event>
<event>
 9    1  0.2423659E-006  0.9637616E+02  0.7546771E-02  0.1292974E+00
         -1   -1    0    0    0  501 -0.00000000000E+00  0.00000000000E+00  0.52547010045E+03  0.52547010045E+03  0.00000000000E+00 0.  1.
          1   -1    0    0  502    0  0.00000000000E+00 -0.00000000000E+00 -0.29989862280E+02  0.29989862280E+02  0.00000000000E+00 0. -1.
         23    2    1    2    0    0  0.32410796658E+02  0.20818308726E+02  0.24234922150E+03  0.26286938602E+03  0.94251298270E+02 0.  0.
         23    2    1    2    0    0  0.18846374918E+02 -0.17705735168E+02  0.19784608639E+03  0.21713589317E+03  0.85651872707E+02 0.  0.
        -11    1    4    4    0    0 -0.33463184109E+02 -0.29497682064E+01  0.95786726418E+02  0.10150656521E+03  0.00000000000E+00 0. -1.
         11    1    4    4    0    0  0.52309559027E+02 -0.14755966961E+02  0.10205935997E+03  0.11562932796E+03  0.00000000000E+00 0.  1.
        -11    1    3    3    0    0  0.52569137421E+02  0.35841408827E+02  0.22071262995E+03  0.22970020857E+03  0.00000000000E+00 0.  1.
         11    1    3    3    0    0 -0.20158340763E+02 -0.15023100101E+02  0.21636591550E+02  0.33169177452E+02  0.00000000000E+00 0. -1.
         21    1    1    2  502  501 -0.51257171576E+02 -0.31125735584E+01  0.55284930280E+02  0.75454683541E+02  0.00000000000E+00 0. -1.
<scales pt_clust_5="13000.00000" pt_clust_6="13000.00000" pt_clust_7="13000.00000" pt_clust_8="13000.00000" pt_clust_9="51.35159"></scales>
<clustering>
<clus scale="   51.352">  2  9  1 -1</clus>
<clus scale="   85.652">  5  6 -1 -1</clus>
<clus scale="   87.985">  2  5  1 -1</clus>
<clus scale="   94.251">  7  8 -1 -1</clus>
<clus scale="   51.352">  2  5  1 -1</clus>
</clustering>
</event>
<event>
 9    1  0.2423659E-006  0.1079439E+03  0.7546771E-02  0.1268002E+00
         -2   -1    0    0    0  501 -0.00000000000E+00  0.00000000000E+00  0.39464737329E+02  0.39464737329E+02  0.00000000000E+00 0.  1.
          2   -1    0    0  502    0  0.00000000000E+00 -0.00000000000E+00 -0.52215007113E+03  0.52215007113E+03  0.00000000000E+00 0. -1.
         23    2    1    2    0    0 -0.59639460572E+02  0.25457417703E+02 -0.21790246812E+03  0.24510448006E+03  0.91595715841E+02 0.  0.
         23    2    1    2    0    0  0.23364601835E+02  0.28735743212E+02 -0.18662903855E+03  0.21472238824E+03  0.99517126286E+02 0.  0.
        -11    1    3    3    0    0 -0.84340895285E+02  0.18256305453E+02 -0.17383549634E+03  0.19407591065E+03  0.00000000000E+00 0.  1.
         11    1    3    3    0    0  0.24701434713E+02  0.72011122497E+01 -0.44066971777E+02  0.51028569411E+02  0.00000000000E+00 0. -1.
        -11    1    4    4    0    0 -0.28350417746E+02 -0.16228513862E+02 -0.32667369573E+02  0.46198137229E+02  0.00000000000E+00 0.  1.
         11    1    4    4    0    0  0.51715019581E+02  0.44964257074E+02 -0.15396166898E+03  0.16852425101E+03  0.00000000000E+00 0. -1.
         21    1    1    2  502  501  0.36274858737E+02 -0.54193160915E+02 -0.78153827130E+02  0.10178794016E+03  0.00000000000E+00 0. -1.
<scales pt_clust_5="13000.00000" pt_clust_6="13000.00000" pt_clust_7="13000.00000" pt_clust_8="13000.00000" pt_clust_9="65.21322"></scales>
<clustering>
<clus scale="   65.213">  1  9  2 -1</clus>
<clus scale="   91.596">  5  6 -1 -1</clus>
<clus scale="   99.517">  7  8 -1 -1</clus>
<clus scale="  100.688">  1  5  2 -1</clus>
<clus scale="  107.944">  2  5  1 -1</clus>
</clustering>
</event>
<event>
 9    1  0.2423659E-006  0.9385304E+02  0.7546771E-02  0.1296491E+00
         -2   -1    0    0    0  501 -0.00000000000E+00  0.00000000000E+00  0.16162218165E+03  0.16162218165E+03  0.00000000000E+00 0.  1.
          2   -1    0    0  502    0  0.00000000000E+00 -0.00000000000E+00 -0.10911405638E+03  0.10911405638E+03  0.00000000000E+00 0. -1.
         23    2    1    2    0    0 -0.14514145942E+02  0.14195937948E+02  0.66772024496E+02  0.11596358085E+03  0.92611358599E+02 0.  0.
         23    2    1    2    0    0 -0.24273799483E+02  0.23602318884E+01 -0.45807353971E+02  0.10210766874E+03  0.87936763088E+02 0.  0.
        -11    1    4    4    0    0 -0.38520569262E+02  0.29594524290E+02 -0.20309437863E+01  0.48618873464E+02  0.00000000000E+00 0.  1.
         11    1    4    4    0    0  0.14246769779E+02 -0.27234292402E+02 -0.43776410184E+02  0.53488795279E+02  0.00000000000E+00 0. -1.
        -11    1    3    3    0    0 -0.17052639316E+02  0.51758036571E+02  0.25710666583E+02  0.60255499612E+02  0.00000000000E+00 0.  1.
         11    1    3    3    0    0  0.25384933737E+01 -0.37562098623E+02  0.41061357913E+02  0.55708081238E+02  0.00000000000E+00 0. -1.
         21    1    1    2  502  501  0.38787945426E+02 -0.16556169836E+02  0.31543454741E+02  0.52664988436E+02  0.00000000000E+00 0.  1.
<scales pt_clust_5="13000.00000" pt_clust_6="13000.00000" pt_clust_7="13000.00000" pt_clust_8="13000.00000" pt_clust_9="42.17359"></scales>
<clustering>
<clus scale="   42.174">  1  9  2 -1</clus>
<clus scale="   87.937">  5  6 -1 -1</clus>
<clus scale="   89.244">  2  5  1 -1</clus>
<clus scale="   92.611">  7  8 -1 -1</clus>
<clus scale="   89.244">  2  5  1 -1</clus>
</clustering>
</event>
<event>
 9    1  0.2423659E-006  0.2245027E+03  0.7546771E-02  0.1130640E+00
         -2   -1    0    0    0  501 -0.00000000000E+00  0.00000000000E+00  0.15460601043E+03  0.15460601043E+03  0.00000000000E+00 0.  1.
          2   -1    0    0  502    0  0.00000000000E+00 -0.00000000000E+00 -0.56959315127E+03  0.56959315127E+03  0.00000000000E+00 0. -1.
         23    2    1    2    0    0  0.20060910936E+03  0.13752744605E+03 -0.26759951101E+03  0.37262033361E+03  0.89881041127E+02 0.  0.
         23    2    1    2    0    0 -0.14318624352E+03 -0.10031274616E+03 -0.18773405479E+03  0.27214235399E+03  0.90842931105E+02 0.  0.
        -11    1    4    4    0    0 -0.20444855381E+02 -0.45892699582E+02 -0.99545885174E+02  0.11150567358E+03  0.00000000000E+00 0. -1.
         11    1    4    4    0    0 -0.12274138814E+03 -0.54420046577E+02 -0.88188169619E+02  0.16063668041E+03  0.00000000000E+00 0.  1.
        -11    1    3    3    0    0  0.10278370623E+03  0.12080927150E+03 -0.18334765536E+03  0.24243707033E+03  0.00000000000E+00 0.  1.
         11    1    3    3    0    0  0.97825403125E+02  0.16718174551E+02 -0.84251855651E+02  0.13018326328E+03  0.00000000000E+00 0. -1.
         21    1    1    2  502  501 -0.57422865841E+02 -0.37214699890E+02  0.40346424966E+02  0.79436474096E+02  0.00000000000E+00 0.  1.
<scales pt_clust_5="13000.00000" pt_clust_6="13000.00000" pt_clust_7="13000.00000" pt_clust_8="13000.00000" pt_clust_9="68.42748"></scales>
<clustering>
<clus scale="   68.427">  1  9  2 -1</clus>
<clus scale="   89.881">  7  8 -1 -1</clus>
<clus scale="   90.843">  5  6 -1 -1</clus>
<clus scale="  224.115">  1  7  2 -1</clus>
<clus scale="  224.503">  2  5  1 -1</clus>
</clustering>
</event>
<event>
 9    1  0.2423659E-006  0.1034176E+03  0.7546771E-02  0.1275394E+00
         -2   -1    0    0    0  501 -0.00000000000E+00  0.00000000000E+00  0.35207076860E+02  0.35207076860E+02  0.00000000000E+00 0.  1.
          2   -1    0    0  502    0  0.00000000000E+00 -0.00000000000E+00 -0.63172174687E+03  0.63172174687E+03  0.00000000000E+00 0. -1.
         23    2    1    2    0    0  0.28965693055E+02 -0.44789773676E+02 -0.18919993008E+03  0.21935220685E+03  0.97332635372E+02 0.  0.
         23    2    1    2    0    0 -0.39498295971E+02 -0.30697756956E+02 -0.19086255654E+03  0.21809709558E+03  0.92926637415E+02 0.  0.
        -11    1    4    4    0    0 -0.19019009057E+02 -0.63764805105E+02 -0.11582554773E+03  0.13357855585E+03  0.00000000000E+00 0.  1.
         11    1    4    4    0    0 -0.20479286914E+02  0.33067048150E+02 -0.75037008810E+02  0.84518539724E+02  0.00000000000E+00 0. -1.
        -13    1    3    3    0    0 -0.50640422733E+01 -0.37978213047E+02 -0.14068994242E+02  0.40815754181E+02  0.00000000000E+00 0.  1.
         13    1    3    3    0    0  0.34029735328E+02 -0.68115606296E+01 -0.17513093584E+03  0.17853645267E+03  0.00000000000E+00 0. -1.
         21    1    1    2  502  501  0.10532602916E+02  0.75487530632E+02 -0.21645218338E+03  0.22947952130E+03  0.00000000000E+00 0. -1.
<scales pt_clust_5="13000.00000" pt_clust_6="13000.00000" pt_clust_7="13000.00000" pt_clust_8="13000.00000" pt_clust_9="76.21878"></scales>
<clustering>
<clus scale="   76.219">  2  9  1 -1</clus>
<clus scale="   92.927">  5  6 -1 -1</clus>
<clus scale="   97.333">  7  8 -1 -1</clus>
<clus scale="   99.282">  2  5  1 -1</clus>
<clus scale="   76.219">  2  5  1 -1</clus>
</clustering>
</event>
<event>
 9    1  0.2423659E-006  0.1672278E+03  0.7546771E-02  0.1199049E+00
         -1   -1    0    0    0  501 -0.00000000000E+00  0.00000000000E+00  0.25229555280E+03  0.25229555280E+03  0.00000000000E+00 0.  1.
          1   -1    0    0  502    0  0.00000000000E+00 -0.00000000000E+00 -0.43587738406E+03  0.43587738406E+03  0.00000000000E+00 0. -1.
         23    2    1    2    0    0  0.11331980201E+02  0.51940409993E+02  0.17801170745E+03  0.21013121040E+03  0.98187257962E+02 0.  0.
         23    2    1    2    0    0 -0.13592329009E+03  0.24196893330E+02 -0.17034981755E+03  0.23742991391E+03  0.91067410444E+02 0.  0.
        -13    1    4    4    0    0 -0.27385889203E+02 -0.49997161530E+01 -0.10234201254E+03  0.10606069781E+03  0.00000000000E+00 0.  1.
         13    1    4    4    0    0 -0.10853740089E+03  0.29196609483E+02 -0.68007805008E+02  0.13136921610E+03  0.00000000000E+00 0. -1.
        -13    1    3    3    0    0 -0.30453107157E+02  0.99970092985E+01  0.12593887263E+02  0.34437449482E+02  0.00000000000E+00 0. -1.
         13    1    3    3    0    0  0.41785087358E+02  0.41943400695E+02  0.16541782019E+03  0.17569376091E+03  0.00000000000E+00 0.  1.
         21    1    1    2  502  501  0.12459130989E+03 -0.76137303323E+02 -0.19124372116E+03  0.24061181255E+03  0.00000000000E+00 0. -1.
<scales pt_clust_5="13000.00000" pt_clust_6="13000.00000" pt_clust_7="13000.00000" pt_clust_8="13000.00000" pt_clust_9="140.25643"></scales>
<clustering>
<clus scale="   91.067">  5  6 -1 -1</clus>
<clus scale="   98.187">  7  8 -1 -1</clus>
<clus scale="  111.656">  1  7  2 -1</clus>
<clus scale="  140.256">  2  9  1 -1</clus>
<clus scale="  140.256">  2  5  1 -1</clus>
</clustering>
</event>
<event>
 9    1  0.2423659E-006  0.1786346E+03  0.7546771E-02  0.1196660E+00
         -2   -1    0    0    0  501 -0.00000000000E+00  0.00000000000E+00  0.22623164938E+03  0.22623164938E+03  0.00000000000E+00 0.  1.
          2   -1    0    0  502    0  0.00000000000E+00 -0.00000000000E+00 -0.43649659812E+03  0.43649659812E+03  0.00000000000E+00 0. -1.
         23    2    1    2    0    0 -0.15495470912E+03 -0.23066897595E+02  0.15085615612E+03  0.23664100995E+03  0.93264913583E+02 0.  0.
         23    2    1    2    0    0  0.29906422545E+02 -0.97326140972E+01 -0.14239184536E+03  0.17200974760E+03  0.91229368939E+02 0.  0.
        -11    1    4    4    0    0  0.30052686006E+02 -0.48681467424E+02 -0.77553751384E+02  0.96372369279E+02  0.00000000000E+00 0. -1.
         11    1    4    4    0    0 -0.14626346155E+00  0.38948853327E+02 -0.64838093973E+02  0.75637378316E+02  0.00000000000E+00 0.  1.
        -13    1    3    3    0    0 -0.61432529667E+02 -0.21993113050E+02  0.77877673965E+01  0.65713788841E+02  0.00000000000E+00 0. -1.
         13    1    3    3    0    0 -0.93522179457E+02 -0.10737845453E+01  0.14306838872E+03  0.17092722110E+03  0.00000000000E+00 0.  1.
         21    1    1    2  502  501  0.12504828658E+03  0.32799511692E+02 -0.21872925950E+03  0.25407748996E+03  0.00000000000E+00 0. -1.
<scales pt_clust_5="13000.00000" pt_clust_6="13000.00000" pt_clust_7="13000.00000" pt_clust_8="13000.00000" pt_clust_9="152.35473"></scales>
<clustering>
<clus scale="   91.229">  5  6 -1 -1</clus>
<clus scale="   93.265">  7  8 -1 -1</clus>
<clus scale="   96.498">  2  5  1 -1</clus>
<clus scale="  152.355">  2  9  1 -1</clus>
<clus scale="   96.498">  2  5  1 -1</clus>
</clustering>
</event>
<event>
 9    1  0.2423659E-006  0.1057436E+03  0.7546771E-02  0.1269709E+00
          1   -1    0    0  502    0  0.00000000000E+00  0.00000000000E+00  0.12089645893E+03  0.12089645893E+03  0.00000000000E+00 0. -1.
         -1   -1    0    0    0  501 -0.00000000000E+00 -0.00000000000E+00 -0.14056729612E+03  0.14056729612E+03  0.00000000000E+00 0.  1.
         23    2    1    2    0    0  0.33803571487E+02  0.20284342943E+02  0.12052909277E+01  0.10425860536E+03  0.96510455659E+02 0.  0.
         23    2    1    2    0    0 -0.49590350790E+02  0.10499641744E+01  0.20160039294E+02  0.10833448265E+03  0.94178700511E+02 0.  0.
        -13    1    4    4    0    0 -0.69538974365E+02  0.25970094021E+02  0.10403811426E+02  0.74955680447E+02  0.00000000000E+00 0.  1.
         13    1    4    4    0    0  0.19948623575E+02 -0.24920129847E+02  0.97562278675E+01  0.33378802200E+02  0.00000000000E+00 0. -1.
        -13    1    3    3    0    0  0.34750852607E+02 -0.31614264747E+02 -0.15913034320E+02  0.49601493462E+02  0.00000000000E+00 0. -1.
         13    1    3    3    0    0 -0.94728111943E+00  0.51898607690E+02  0.17118325248E+02  0.54657111898E+02  0.00000000000E+00 0.  1.
         21    1    1    2  502  501  0.15786779302E+02 -0.21334307118E+02 -0.41036167415E+02  0.48870667041E+02  0.00000000000E+00 0. -1.
<scales pt_clust_5="13000.00000" pt_clust_6="13000.00000" pt_clust_7="13000.00000" pt_clust_8="13000.00000" pt_clust_9="26.54007"></scales>
<clustering>
<clus scale="   26.540">  2  9  1 -1</clus>
<clus scale="   94.179">  5  6 -1 -1</clus>
<clus scale="   96.510">  7  8 -1 -1</clus>
<clus scale="  103.620">  1  5  2 -1</clus>
<clus scale="  103.620">  1  5  2 -1</clus>
</clustering>
</event>
<event>
 9    1  0.2423659E-006  0.2175127E+03  0.7546771E-02  0.1156041E+00
          1   -1    0    0  502    0  0.00000000000E+00  0.00000000000E+00  0.14496002431E+04  0.14496002431E+04  0.00000000000E+00 0. -1.
         -1   -1    0    0    0  501 -0.00000000000E+00 -0.00000000000E+00 -0.10875373852E+03  0.10875373852E+03  0.00000000000E+00 0.  1.
         23    2    1    2    0    0 -0.92783861208E+02 -0.57538798704E+00  0.15827747020E+03  0.20739153668E+03  0.96697031702E+02 0.  0.
         23    2    1    2    0    0  0.40272314250E+02  0.19466187326E+03  0.11186715661E+04  0.11399887196E+04  0.92914498038E+02 0.  0.
        -11    1    3    3    0    0 -0.69351660416E+02  0.16069093217E+01  0.27677017171E+02  0.74687698047E+02  0.00000000000E+00 0.  1.
         11    1    3    3    0    0 -0.23432200793E+02 -0.21822973087E+01  0.13060045303E+03  0.13270383863E+03  0.00000000000E+00 0. -1.
        -13    1    4    4    0    0 -0.16935880618E+02  0.17168492200E+02  0.54447903022E+02  0.59549603863E+02  0.00000000000E+00 0.  1.
         13    1    4    4    0    0  0.57208194868E+02  0.17749338106E+03  0.10642236630E+04  0.10804391158E+04  0.00000000000E+00 0. -1.
         21    1    1    2  502  501  0.52511546958E+02 -0.19408648527E+03  0.63897468342E+02  0.21097372536E+03  0.00000000000E+00 0.  1.
<scales pt_clust_5="13000.00000" pt_clust_6="13000.00000" pt_clust_7="13000.00000" pt_clust_8="13000.00000" pt_clust_9="196.66892"></scales>
<clustering>
<clus scale="   92.914">  7  8 -1 -1</clus>
<clus scale="   96.697">  5  6 -1 -1</clus>
<clus scale="  134.013">  2  5  1 -1</clus>
<clus scale="  196.669">  2  9  1 -1</clus>
<clus scale="  217.513">  1  5  2 -1</clus>
</clustering>
</event>
<event>
 9    1  0.2423659E-006  0.1037042E+03  0.7546771E-02  0.1273661E+00
          1   -1    0    0  502    0  0.00000000000E+00  0.00000000000E+00  0.10446825254E+03  0.10446825254E+03  0.00000000000E+00 0. -1.
         -1   -1    0    0    0  501 -0.00000000000E+00 -0.00000000000E+00 -0.47039730922E+03  0.47039730922E+03  0.00000000000E+00 0.  1.
         23    2    1    2    0    0 -0.50051731411E+02 -0.70628564050E+01 -0.42443852861E+03  0.43707772673E+03  0.91289730376E+02 0.  0.
         23    2    1    2    0    0  0.29754028031E+02  0.25290709446E+02  0.42639327581E+02  0.10622657918E+03  0.89112578797E+02 0.  0.
        -11    1    4    4    0    0  0.42915445537E+01  0.34145923251E+02 -0.18741356571E+02  0.39186730859E+02  0.00000000000E+00 0.  1.
         11    1    4    4    0    0  0.25462483477E+02 -0.88552138046E+01  0.61380684151E+02  0.67039848323E+02  0.00000000000E+00 0. -1.
        -13    1    3    3    0    0 -0.60812053730E+02 -0.36864002325E+02 -0.32598643943E+03  0.33365284239E+03  0.00000000000E+00 0.  1.
         13    1    3    3    0    0  0.10760322320E+02  0.29801145920E+02 -0.98452089186E+02  0.10342488433E+03  0.00000000000E+00 0. -1.
         21    1    1    2  502  501  0.20297703380E+02 -0.18227853041E+02  0.15870144350E+02  0.31561255848E+02  0.00000000000E+00 0.  1.
<scales pt_clust_5="13000.00000" pt_clust_6="13000.00000" pt_clust_7="13000.00000" pt_clust_8="13000.00000" pt_clust_9="27.28097"></scales>
<clustering>
<clus scale="   27.281">  1  9  2 -1</clus>
<clus scale="   89.113">  5  6 -1 -1</clus>
<clus scale="   91.290">  7  8 -1 -1</clus>
<clus scale="  101.793">  1  5  2 -1</clus>
<clus scale="   27.281">  1  5  2 -1</clus>
</clustering>
</event>
<event>
 9    1  0.2423659E-006  0.1162013E+03  0.7546771E-02  0.1250100E+00
          1   -1    0    0  502    0  0.00000000000E+00  0.00000000000E+00  0.14342779780E+03  0.14342779780E+03  0.00000000000E+00 0. -1.
         -1   -1    0    0    0  501 -0.00000000000E+00 -0.00000000000E+00 -0.12562933778E+03  0.12562933778E+03  0.00000000000E+00 0.  1.
         23    2    1    2    0    0  0.26736478243E+02 -0.82663592509E+02 -0.17067022770E+02  0.12679255620E+03  0.90757700756E+02 0.  0.
         23    2    1    2    0    0 -0.11602669755E+02  0.53171421129E+02  0.31476622699E+02  0.10894334433E+03  0.88972200868E+02 0.  0.
        -13    1    4    4    0    0 -0.29596495944E+02  0.13109791446E+02 -0.22452321404E+02  0.39394491244E+02  0.00000000000E+00 0.  1.
         13    1    4    4    0    0  0.17993826189E+02  0.40061629682E+02  0.53928944103E+02  0.69548853087E+02  0.00000000000E+00 0. -1.
        -13    1    3    3    0    0  0.10421475743E+02 -0.99114034033E+02 -0.24188710480E+02  0.10255385226E+03  0.00000000000E+00 0.  1.
         13    1    3    3    0    0  0.16315002500E+02  0.16450441524E+02  0.71216877093E+01  0.24238703940E+02  0.00000000000E+00 0. -1.
         21    1    1    2  502  501 -0.15133808488E+02  0.29492171381E+02  0.33888600967E+01  0.33321235044E+02  0.00000000000E+00 0. -1.
<scales pt_clust_5="13000.00000" pt_clust_6="13000.00000" pt_clust_7="13000.00000" pt_clust_8="13000.00000" pt_clust_9="33.14846"></scales>
<clustering>
<clus scale="   33.148">  1  9  2 -1</clus>
<clus scale="   88.972">  5  6 -1 -1</clus>
<clus scale="   90.758">  7  8 -1 -1</clus>
<clus scale="  114.812">  1  5  2 -1</clus>
<clus scale="   33.148">  1  5  2 -1</clus>
</clustering>
</event>
<event>
 9    1  0.2423659E-006  0.1292651E+03  0.7546771E-02  0.1245168E+00
          1   -1    0    0  502    0  0.00000000000E+00  0.00000000000E+00  0.42443934011E+03  0.42443934011E+03  0.00000000000E+00 0. -1.
         -1   -1    0    0    0  501 -0.00000000000E+00 -0.00000000000E+00 -0.91129285443E+02  0.91129285443E+02  0.00000000000E+00 0.  1.
         23    2    1    2    0    0 -0.82159184466E+02 -0.22685146609E+02  0.41042439983E+02  0.13260036837E+03  0.92917319939E+02 0.  0.
         23    2    1    2    0    0 -0.29520328042E+01 -0.15687948880E+02  0.27236674432E+03  0.28750905959E+03  0.90680701898E+02 0.  0.
        -11    1    4    4    0    0  0.24189869434E+02 -0.45428056529E+02  0.14036207826E+03  0.14950040507E+03  0.00000000000E+00 0.  1.
         11    1    4    4    0    0 -0.27141902238E+02  0.29740107649E+02  0.13200466607E+03  0.13800865452E+03  0.00000000000E+00 0. -1.
        -13    1    3    3    0    0 -0.61890847250E+02  0.76220166027E+01  0.64126526277E+02  0.89447098795E+02  0.00000000000E+00 0. -1.
         13    1    3    3    0    0 -0.20268337216E+02 -0.30307163212E+02 -0.23084086294E+02  0.43153269580E+02  0.00000000000E+00 0.  1.
         21    1    1    2  502  501  0.85111217270E+02  0.38373095489E+02  0.19900870362E+02  0.95459197586E+02  0.00000000000E+00 0.  1.
<scales pt_clust_5="13000.00000" pt_clust_6="13000.00000" pt_clust_7="13000.00000" pt_clust_8="13000.00000" pt_clust_9="89.86569"></scales>
<clustering>
<clus scale="   90.681">  5  6 -1 -1</clus>
<clus scale="   92.075">  1  5  2 -1</clus>
<clus scale="   89.866">  2  9  1 -1</clus>
<clus scale="   92.917">  7  8 -1 -1</clus>
<clus scale="   92.075">  1  5  2 -1</clus>
</clustering>
</event>
<event>
 9    1  0.2423659E-006  0.9778822E+02  0.7546771E-02  0.1287386E+00
          1   -1    0    0  502    0  0.00000000000E+00  0.00000000000E+00  0.50228100737E+03  0.50228100737E+03  0.00000000000E+00 0. -1.
         -1   -1    0    0    0  501 -0.00000000000E+00 -0.00000000000E+00 -0.73263081768E+02  0.73263081768E+02  0.00000000000E+00 0.  1.
         23    2    1    2    0    0  0.32625783426E+02 -0.54830325465E+02  0.17455631788E+02  0.11610616895E+03  0.95420841815E+02 0.  0.
         23    2    1    2    0    0 -0.17666373705E+02 -0.17169479252E+02  0.35314196525E+03  0.36551938842E+03  0.91040012733E+02 0.  0.
        -11    1    3    3    0    0 -0.60262354437E+01 -0.54402324744E+02 -0.23698650178E+02  0.59645238464E+02  0.00000000000E+00 0.  1.
         11    1    3    3    0    0  0.38652018869E+02 -0.42800072052E+00  0.41154281966E+02  0.56460930487E+02  0.00000000000E+00 0. -1.
        -11    1    4    4    0    0  0.23891939156E+02  0.22519187396E+02  0.18335368743E+03  0.18627000094E+03  0.00000000000E+00 0. -1.
         11    1    4    4    0    0 -0.41558312861E+02 -0.39688666648E+02  0.16978827782E+03  0.17924938748E+03  0.00000000000E+00 0.  1.
         21    1    1    2  502  501 -0.14959409721E+02  0.71999804717E+02  0.58420328567E+02  0.93918531762E+02  0.00000000000E+00 0. -1.
<scales pt_clust_5="13000.00000" pt_clust_6="13000.00000" pt_clust_7="13000.00000" pt_clust_8="13000.00000" pt_clust_9="73.53745"></scales>
<clustering>
<clus scale="   73.537">  2  9  1 -1</clus>
<clus scale="   91.040">  7  8 -1 -1</clus>
<clus scale="   93.518">  1  7  2 -1</clus>
<clus scale="   95.421">  5  6 -1 -1</clus>
<clus scale="   93.518">  1  5  2 -1</clus>
</clustering>
</event>
<event>
 9    1  0.2423659E-006  0.1177843E+03  0.7546771E-02  0.1247593E+00
         -1   -1    0    0    0  501 -0.00000000000E+00  0.00000000000E+00  0.80426012156E+02  0.80426012156E+02  0.00000000000E+00 0.  1.
          1   -1    0    0  502    0  0.00000000000E+00 -0.00000000000E+00 -0.31513247040E+03  0.31513247040E+03  0.00000000000E+00 0. -1.
         23    2    1    2    0    0 -0.19924671677E+01  0.74969742883E+02 -0.88579983348E+02  0.14833374853E+03  0.92369124869E+02 0.  0.
         23    2    1    2    0    0  0.70070541350E+02 -0.51764257570E+02 -0.11021952075E+03  0.16683550534E+03  0.89979575246E+02 0.  0.
        -13    1    4    4    0    0  0.36497819137E+02  0.12506521603E+02 -0.47897428122E+01  0.38877313701E+02  0.00000000000E+00 0.  1.
         13    1    4    4    0    0  0.33572722212E+02 -0.64270779173E+02 -0.10542977793E+03  0.12795819164E+03  0.00000000000E+00 0. -1.
        -13    1    3    3    0    0 -0.27390212791E+02  0.84200869182E+02 -0.51435504178E+02  0.10239932235E+03  0.00000000000E+00 0.  1.
         13    1    3    3    0    0  0.25397745623E+02 -0.92311262990E+01 -0.37144479171E+02  0.45934426178E+02  0.00000000000E+00 0. -1.
         21    1    1    2  502  501 -0.68078074182E+02 -0.23205485313E+02 -0.35906954150E+02  0.80389228689E+02  0.00000000000E+00 0.  1.
<scales pt_clust_5="13000.00000" pt_clust_6="13000.00000" pt_clust_7="13000.00000" pt_clust_8="13000.00000" pt_clust_9="71.92440"></scales>
<clustering>
<clus scale="   71.924">  1  9  2 -1</clus>
<clus scale="   89.980">  5  6 -1 -1</clus>
<clus scale="   92.369">  7  8 -1 -1</clus>
<clus scale="  115.920">  2  5  1 -1</clus>
<clus scale="  115.920">  2  5  1 -1</clus>
</clustering>
</event>
